     100
 i =        1, E =      -575.3418734276
  I        12.0407439760       12.4240772826        8.7358828409
  I        18.3374603705       12.4400947233        8.7280684505
  I        12.0432950992       18.6664542742        8.7341413821
  I        18.3383354609       18.6499379788        8.7280572008
  I        12.1544369957        9.3148122868       12.1491427303
  I        18.4396584584        9.3105373338       12.1524332896
  I         9.1389456722       12.4265395079       11.6125818438
  I        12.1961625225       12.4354214739       15.0635463783
  I        12.1516085335       15.5425734208       12.1540591026
  I        15.4082151524       12.4263251373       11.6173895795
  I        18.4761623642       12.4320302356       15.0656877976
  I        18.4319864607       15.5437281154       12.1585664769
  I        21.6935015700       12.4275816916       11.6302565960
  I         9.1360194834       18.6671312572       11.6142155804
  I        12.1958803979       18.6538297657       15.0672454435
  I        12.1501465616       21.7777292737       12.1483258990
  I        15.4076386772       18.6624452217       11.6162724973
  I        18.4767572046       18.6581151007       15.0680125371
  I        18.4403616145       21.7816842075       12.1526206447
  I        21.6973709662       18.6636360670       11.6291649928
  I        12.3025860824        9.3055978998       18.5078232059
  I        18.5885225538        9.3002570701       18.4996856420
  I         9.2815824885       12.4286513803       17.9782486587
  I        12.3527868850       12.4169901997       21.4027240507
  I        12.2984667751       15.5470343514       18.5093713683
  I        15.5652256947       12.4305195931       17.9686523745
  I        18.6353139843       12.4397719191       21.4095920837
  I        18.5817147163       15.5461035636       18.5012981986
  I        21.8525975495       12.4347519901       17.9705876081
  I         9.2850719060       18.6611152614       17.9777685341
  I        12.3530384153       18.6723043713       21.4007075513
  I        12.3035651468       21.7828045738       18.5066983031
  I        15.5642390337       18.6593096689       17.9698631941
  I        18.6347688464       18.6507000513       21.4079966490
  I        18.5885242657       21.7885701949       18.4992269640
  I        21.8499223088       18.6555026116       17.9706416330
 Pb        12.2822548490       12.3572462445       11.8499296930
 Pb        18.6930694853       12.3439400169       11.8319252050
 Pb        12.2854481616       18.7304649741       11.8495972927
 Pb        18.6908301241       18.7457230173       11.8320565730
 Pb        12.4290969507       12.3605053701       18.3124451461
 Pb        18.8356064767       12.3536391579       18.3246061258
 Pb        12.4264737616       18.7315048114       18.3141270024
 Pb        18.8362498170       18.7363904355       18.3254351201
  C        15.0413015033       15.5451194303        8.5569716789
  C        15.1839954727        9.2923118563       14.9071942374
  C         8.8864928224       15.5451590139       14.9092062331
  C        15.1848061320       15.5450722958       14.9111804023
  C        21.4849508103       15.5450382075       14.9119357309
  C        15.1839087626       21.7978599609       14.9071848900
  C        15.3441535118       15.5450666550       21.2816170137
  N        16.4519069175       15.5450438683        9.1735203976
  N        16.5894724725        9.2898586322       15.5347405479
  N        10.2939197385       15.5450881871       15.5273303175
  N        16.5916808535       15.5451248323       15.5281368771
  N        22.8963840649       15.5451328599       15.5367809876
  N        16.5893728065       21.8001889619       15.5345490067
  N        16.7580633699       15.5452471671       21.8931509316
  H        15.1419671692       15.5451838042        7.4962883944
  H        14.5202150616       16.4188814556        8.8769297293
  H        14.5203217155       14.6713691379        8.8770211035
  H        16.9769659227       16.4054416252        8.8829382099
  H        16.9771908897       14.6848483101        8.8828265700
  H        16.3936703394       15.5451593614       10.2121184020
  H        15.2866929735        9.3012475226       13.8463796690
  H        14.6728266924       10.1690926307       15.2344751098
  H        14.6665007095        8.4214107638       15.2363319189
  H        17.1264894332       10.1399541719       15.2363235634
  H        17.1307421436        8.4598940839       15.2268520035
  H        16.5490651486        9.3042302662       16.5782555447
  H         8.9936663651       15.5448741220       13.8488098132
  H         8.3785041213       16.4236230106       15.2369434419
  H         8.3785562691       14.6666269680       15.2368475325
  H        10.8226070065       16.3997264282       15.2347236526
  H        10.8225500018       14.6904974616       15.2346676215
  H        10.2397724629       15.5451001135       16.5686186781
  H        15.2877769821       15.5450462319       13.8519123351
  H        14.6747669167       16.4230967533       15.2340667124
  H        14.6748258265       14.6670035702       15.2340610596
  H        17.1246377943       16.3982825398       15.2364248653
  H        17.1247067500       14.6919900929       15.2363981705
  H        16.5427291474       15.5449671576       16.5691584540
  H        21.5821999525       15.5452030711       13.8501127648
  H        20.9749616928       16.4245434458       15.2355715971
  H        20.9750432251       14.6655278555       15.2356252140
  H        23.4133939890       16.3959101442       15.2325569195
  H        23.4134143534       14.6943710720       15.2325886936
  H        22.8173752436       15.5450440136       16.5782282242
  H        15.2872431703       21.7889468405       13.8464179195
  H        14.6663928263       22.6686956714       15.2365560419
  H        14.6728216216       20.9210781075       15.2346662855
  H        17.1305589502       22.6303340435       15.2270529212
  H        17.1268086658       20.9502036713       15.2363981287
  H        16.5491575163       21.7861421361       16.5781249549
  H        15.4421010377       15.5450654543       20.2209289105
  H        14.8231648284       16.4238232892       21.5866663197
  H        14.8231623755       14.6663496013       21.5866100382
  H        17.2820066230       16.4047895026       21.5892040140
  H        17.2816993309       14.6856760457       21.5892483640
  H        16.6874666378       15.5450737142       22.9288153421
     100
 i =        2, E =      -575.3571820340
  I        12.0427647809       12.4282309316        8.7612637538
  I        18.3302301252       12.4634204515        8.7461834529
  I        12.0457862294       18.6633286428        8.7586046858
  I        18.3308354383       18.6259208472        8.7459035643
  I        12.1668129769        9.3216154084       12.1395932417
  I        18.4375395417        9.3136935075       12.1469137251
  I         9.1484835338       12.4325607999       11.6174817424
  I        12.1966136254       12.4584020479       15.0651191596
  I        12.1683043631       15.5386399873       12.1515164349
  I        15.3862611163       12.4359106363       11.6219464096
  I        18.4518560914       12.4449431372       15.0645893690
  I        18.4205876139       15.5417200017       12.1624699284
  I        21.6930626660       12.4370697066       11.6507372480
  I         9.1449766230       18.6627487964       11.6189141981
  I        12.1984542927       18.6283382580       15.0696053019
  I        12.1615763169       21.7731096146       12.1378732416
  I        15.3882876938       18.6504588620       11.6205433302
  I        18.4517762012       18.6454416120       15.0744824319
  I        18.4391509736       21.7792199574       12.1487686317
  I        21.6984592718       18.6546570680       11.6490502115
  I        12.3177941080        9.2986590106       18.4960401396
  I        18.5870733676        9.2901182842       18.4807025184
  I         9.2913360682       12.4419571133       17.9843331869
  I        12.3600570998       12.4169555991       21.3897858060
  I        12.3127487632       15.5467466598       18.5050013721
  I        15.5475031544       12.4427595814       17.9625939542
  I        18.6254412122       12.4701138647       21.4068153013
  I        18.5746580120       15.5535801055       18.4843943795
  I        21.8526669676       12.4552111647       17.9656944593
  I         9.2995071894       18.6468608498       17.9847602210
  I        12.3628003465       18.6726212166       21.3865208688
  I        12.3206347603       21.7876402378       18.4940229678
  I        15.5508295282       18.6422603501       17.9647718037
  I        18.6241840527       18.6222679494       21.4002812032
  I        18.5888444229       21.7948872301       18.4796472704
  I        21.8423947515       18.6359209380       17.9667738139
 Pb        12.2326996981       12.2991627070       11.8015775780
 Pb        18.7552518722       12.2796266064       11.7722591185
 Pb        12.2320206347       18.7894736221       11.8019478645
 Pb        18.7545594278       18.8125121942       11.7676658453
 Pb        12.3776547780       12.3024390699       18.3709494862
 Pb        18.8893947726       12.2859105042       18.3958506272
 Pb        12.3656221103       18.7969413776       18.3760411669
 Pb        18.8893129328       18.8007716672       18.3994116286
  C        14.9980813319       15.5450429327        8.5322726648
  C        15.1498286944        9.2927264952       14.8943282263
  C         8.8509410424       15.5451374882       14.8886696426
  C        15.1546925032       15.5451145611       14.8913114609
  C        21.4415311506       15.5451298714       14.8874201383
  C        15.1504219611       21.7971978113       14.8943766912
  C        15.3075924872       15.5453141567       21.2515706376
  N        16.4314974657       15.5453111030        9.1736033036
  N        16.5927259805        9.2989199228       15.5222704116
  N        10.2834954009       15.5450538019       15.5247294171
  N        16.5875999266       15.5449365763       15.5253538017
  N        22.8852289785       15.5451238156       15.5329626635
  N        16.5930474357       21.7914188277       15.5227010971
  N        16.7469451639       15.5450043207       21.8913358292
  H        15.1410447550       15.5451476422        7.4858513252
  H        14.5210582423       16.4233156582        8.8807325693
  H        14.5209660160       14.6668166052        8.8806779623
  H        16.9929903206       16.3920359810        8.8976843499
  H        16.9925876162       14.6984498642        8.8976524427
  H        16.4169066963       15.5450036561       10.2117949260
  H        15.2822173104        9.3006096638       13.8448071888
  H        14.6655441046       10.1704961630       15.2328184475
  H        14.6523170353        8.4225380638       15.2290777624
  H        17.1429033122       10.1492013340       15.2402107664
  H        17.1446014963        8.4699237956       15.2373581614
  H        16.5676344213        9.2990433587       16.5697291684
  H         8.9841108337       15.5446889570       13.8401166582
  H         8.3710989630       16.4228530450       15.2342634705
  H         8.3710946493       14.6674369806       15.2341988733
  H        10.8323362620       16.3926484499       15.2401758380
  H        10.8320525588       14.6972541016       15.2401706972
  H        10.2460440529       15.5449226713       16.5664180576
  H        15.2804113783       15.5449290336       13.8441167996
  H        14.6703982597       16.4207060366       15.2329980113
  H        14.6707155285       14.6694010298       15.2330213716
  H        17.1385537039       16.3930141063       15.2418629628
  H        17.1387533768       14.6969795767       15.2416606809
  H        16.5548115972       15.5448382816       16.5672241851
  H        21.5810867952       15.5451552701       13.8384809743
  H        20.9737628431       16.4291070617       15.2392180784
  H        20.9739099559       14.6610202668       15.2392269532
  H        23.4250409613       16.3852377956       15.2500141615
  H        23.4251295261       14.7049765601       15.2501477269
  H        22.8199032078       15.5449169991       16.5743580284
  H        15.2821011418       21.7897275908       13.8448519839
  H        14.6522104264       22.6670408353       15.2292612435
  H        14.6653249305       20.9200332219       15.2331152542
  H        17.1445081779       22.6204717201       15.2369897854
  H        17.1427492848       20.9411024890       15.2400836048
  H        16.5669930948       21.7909654230       16.5701761384
  H        15.4437057980       15.5452105472       20.2047306415
  H        14.8297281637       16.4252836851       21.5959231460
  H        14.8304099359       14.6652086530       21.5961472278
  H        17.3019667970       16.3945648464       21.6021537676
  H        17.3018060676       14.6956345767       21.6021897940
  H        16.7201242422       15.5452135387       22.9245475712
     100
 i =        3, E =      -575.3646612341
  I        12.0516339149       12.4310255761        8.7658804635
  I        18.3238862463       12.4814381192        8.7493376553
  I        12.0530796742       18.6606836360        8.7615072704
  I        18.3252009768       18.6074727112        8.7483035381
  I        12.1779777176        9.3115261072       12.1312026504
  I        18.4353376986        9.3027386597       12.1399740953
  I         9.1436735429       12.4399953126       11.6292871261
  I        12.1959956143       12.4785853163       15.0658334571
  I        12.1798387150       15.5353594255       12.1481995394
  I        15.3651119259       12.4458802738       11.6264909884
  I        18.4282978560       12.4537938683       15.0667988297
  I        18.4076566158       15.5433794796       12.1628028906
  I        21.7162715967       12.4455701463       11.6684406670
  I         9.1387428111       18.6560058232       11.6301700770
  I        12.2031079661       18.6045847696       15.0720258329
  I        12.1723781545       21.7861750548       12.1291308081
  I        15.3700125703       18.6393232102       11.6287939756
  I        18.4284781294       18.6370515365       15.0791251178
  I        18.4375835254       21.7895804803       12.1436387430
  I        21.7191223618       18.6463315878       11.6671259961
  I        12.3334911597        9.2806715452       18.4807983177
  I        18.5858144996        9.2703553417       18.4632762905
  I         9.2974495227       12.4556110233       17.9887407775
  I        12.3663368647       12.4218461994       21.3937984330
  I        12.3261403378       15.5445740351       18.5024392672
  I        15.5258179930       12.4522351566       17.9539009790
  I        18.6186642157       12.4968387975       21.4186662415
  I        18.5680034688       15.5592887285       18.4674043841
  I        21.8628612508       12.4722246532       17.9619918085
  I         9.3036849643       18.6332758265       17.9913047677
  I        12.3702302512       18.6667382505       21.3903650088
  I        12.3372022844       21.8084076856       18.4778707991
  I        15.5326889360       18.6277432425       17.9569698935
  I        18.6169425875       18.5978175518       21.4112085177
  I        18.5896095775       21.8108483985       18.4613976800
  I        21.8491159184       18.6197943371       17.9635278779
 Pb        12.2044253797       12.2722720773       11.7792118991
 Pb        18.7850840319       12.2492377372       11.7459675051
 Pb        12.2037005044       18.8172582574       11.7785855495
 Pb        18.7862553709       18.8423073042       11.7362633294
 Pb        12.3477547137       12.2680771661       18.4036340403
 Pb        18.9203901602       12.2532659678       18.4352818637
 Pb        12.3329444347       18.8369535763       18.4091832269
 Pb        18.9157722103       18.8318764854       18.4413385534
  C        15.0217493873       15.5452052882        8.5476277385
  C        15.1546481187        9.2972001609       14.8917662622
  C         8.8535379109       15.5450243203       14.8912846127
  C        15.1586205732       15.5449212066       14.8935699779
  C        21.4484756091       15.5451012724       14.8905762076
  C        15.1543872126       21.7929778626       14.8918432330
  C        15.3274171545       15.5451963105       21.2603470343
  N        16.4690106124       15.5450321421        9.1853408959
  N        16.6074338394        9.2994245264       15.5309023640
  N        10.2970395396       15.5448292722       15.5278751552
  N        16.6026037699       15.5448437200       15.5284305554
  N        22.9048453073       15.5451223305       15.5434940563
  N        16.6071610860       21.7907531525       15.5308003723
  N        16.7816689201       15.5452539449       21.8981250257
  H        15.1225353355       15.5451509825        7.4928960910
  H        14.5077926441       16.4159043758        8.8677132769
  H        14.5079860157       14.6743928397        8.8676228886
  H        16.9955713408       16.4079758795        8.8927203313
  H        16.9954502169       14.6824025183        8.8923794113
  H        16.4032413671       15.5451890803       10.2233916291
  H        15.2684013261        9.3016513455       13.8372749136
  H        14.6535671188       10.1707506121       15.2275042666
  H        14.6430297680        8.4282486409       15.2231355988
  H        17.1388305378       10.1587589143       15.2345455966
  H        17.1499637107        8.4702248728       15.2269004325
  H        16.5739243977        9.3026700408       16.5768055842
  H         8.9685231497       15.5447710847       13.8369189890
  H         8.3550831508       16.4205806367       15.2236473912
  H         8.3550075463       14.6696301163       15.2239230576
  H        10.8329244735       16.3987926361       15.2366123094
  H        10.8324550458       14.6904972469       15.2365191439
  H        10.2372379034       15.5448351023       16.5683231468
  H        15.2688983483       15.5450360315       13.8405188430
  H        14.6594173585       16.4194144586       15.2252897690
  H        14.6596056812       14.6705139377       15.2254984545
  H        17.1405922205       16.3989080211       15.2377138805
  H        17.1408201437       14.6909885758       15.2373022175
  H        16.5530394946       15.5447701451       16.5691537504
  H        21.5628773321       15.5451370699       13.8354960301
  H        20.9586178812       16.4246919412       15.2282787061
  H        20.9587620542       14.6654055514       15.2283133312
  H        23.4259687376       16.3936509776       15.2502615946
  H        23.4259524210       14.6964746094       15.2504295169
  H        22.8034239031       15.5447305185       16.5827070990
  H        15.2684739854       21.7884859296       13.8374199061
  H        14.6428136622       22.6618321558       15.2235773385
  H        14.6536821574       20.9193417492       15.2279040171
  H        17.1499190998       22.6199084847       15.2271263698
  H        17.1387603542       20.9314695989       15.2350639176
  H        16.5732728711       21.7872663360       16.5767074866
  H        15.4294266659       15.5454280100       20.2059940046
  H        14.8216149386       16.4199215346       21.5839205888
  H        14.8222299004       14.6705437454       21.5844126637
  H        17.3074248986       16.4078641493       21.5937575708
  H        17.3070312751       14.6823074099       21.5941499433
  H        16.7143768611       15.5451556750       22.9307332770
     100
 i =        4, E =      -575.3695132963
  I        12.0649340732       12.4333300189        8.7540584470
  I        18.3188121011       12.4927641317        8.7396030011
  I        12.0637236437       18.6583086810        8.7474292773
  I        18.3213152508       18.5957844596        8.7356758364
  I        12.1885401407        9.2935025756       12.1241316129
  I        18.4339963568        9.2839378096       12.1318716612
  I         9.1301752580       12.4490514534       11.6463618164
  I        12.1967363919       12.4958716689       15.0623607218
  I        12.1847501014       15.5330473067       12.1452583033
  I        15.3464659433       12.4552331926       11.6310994921
  I        18.4052922538       12.4581461173       15.0708017036
  I        18.3978254665       15.5471838582       12.1647052067
  I        21.7485248759       12.4529183370       11.6838429997
  I         9.1228336910       18.6470088312       11.6461243764
  I        12.2093037165       18.5849649764       15.0720026941
  I        12.1826483196       21.8065903039       12.1223460351
  I        15.3528131257       18.6279376341       11.6391291365
  I        18.4067686542       18.6333657355       15.0822982806
  I        18.4367859574       21.8073788782       12.1372503599
  I        21.7494359997       18.6388071254       11.6833744858
  I        12.3489542741        9.2593535089       18.4622637016
  I        18.5874140343        9.2494722010       18.4511430290
  I         9.3009808226       12.4689976671       17.9939919182
  I        12.3724630163       12.4304914380       21.4093032252
  I        12.3380906640       15.5416168096       18.5018861390
  I        15.5040860739       12.4605083637       17.9440862707
  I        18.6151950873       12.5153336607       21.4403353282
  I        18.5614340237       15.5616298852       18.4507362936
  I        21.8781876086       12.4858340456       17.9601657578
  I         9.2988929539       18.6204562419       17.9975938625
  I        12.3760984021       18.6559332857       21.4071295765
  I        12.3529767025       21.8369530961       18.4580397235
  I        15.5126333158       18.6159639135       17.9480840508
  I        18.6130443695       18.5821349224       21.4373986206
  I        18.5926329219       21.8309522837       18.4486181130
  I        21.8653759232       18.6072787572       17.9616384885
 Pb        12.1920095753       12.2639136079       11.7773980944
 Pb        18.7961408989       12.2418376172       11.7464663930
 Pb        12.1941127387       18.8271702034       11.7745393956
 Pb        18.7975447282       18.8482985037       11.7332556926
 Pb        12.3327445967       12.2474296107       18.4184938241
 Pb        18.9348484379       12.2451186929       18.4491540587
 Pb        12.3231624987       18.8595697978       18.4227497560
 Pb        18.9238645759       18.8369797796       18.4547167496
  C        15.0112133355       15.5451769449        8.5420321894
  C        15.1547682607        9.2985697684       14.8911091889
  C         8.8499747828       15.5450365664       14.8891792991
  C        15.1592403621       15.5447527160       14.8945324487
  C        21.4489057305       15.5450535620       14.8912178034
  C        15.1544798739       21.7916920403       14.8913276726
  C        15.3292689863       15.5452337261       21.2636353587
  N        16.4563053679       15.5451223039        9.1771615773
  N        16.6078121779        9.3019993272       15.5309088843
  N        10.2922491410       15.5445729356       15.5250461406
  N        16.6035315906       15.5448268912       15.5251697172
  N        22.9046441272       15.5450568478       15.5484565902
  N        16.6075424479       21.7880176906       15.5309129746
  N        16.7843984107       15.5453516546       21.8954418223
  H        15.1262744718       15.5452860018        7.4844827592
  H        14.5091554174       16.4238246855        8.8733414948
  H        14.5093009644       14.6665519959        8.8733082724
  H        16.9972483420       16.4023534348        8.9013397000
  H        16.9972203561       14.6882384314        8.9009986788
  H        16.4046870043       15.5452380132       10.2157837028
  H        15.2677427770        9.3063609721       13.8321896583
  H        14.6504454634       10.1762233657       15.2248855871
  H        14.6421195419        8.4269605652       15.2253294136
  H        17.1337737976       10.1634241818       15.2328131574
  H        17.1512853022        8.4765551330       15.2169357242
  H        16.5801783006        9.3080465205       16.5752735619
  H         8.9665922244       15.5446503074       13.8306539715
  H         8.3476445530       16.4237053308       15.2208423336
  H         8.3476192423       14.6664475075       15.2211735822
  H        10.8294874402       16.3981084441       15.2367660431
  H        10.8285714832       14.6901840664       15.2366417086
  H        10.2323932190       15.5446023499       16.5644673837
  H        15.2690353691       15.5450199903       13.8369116297
  H        14.6550416001       16.4223069015       15.2229702749
  H        14.6549376571       14.6673399960       15.2231013579
  H        17.1383031790       16.4000128887       15.2357436582
  H        17.1384064396       14.6899174321       15.2351068656
  H        16.5532996203       15.5447415096       16.5650022133
  H        21.5606968477       15.5451321431       13.8312599816
  H        20.9482487749       16.4255136557       15.2236885383
  H        20.9484269335       14.6645327020       15.2237643011
  H        23.4238760748       16.3947087520       15.2523604625
  H        23.4237263410       14.6952532162       15.2524137785
  H        22.7963021883       15.5445326559       16.5855879614
  H        15.2675844191       21.7836559158       13.8324287071
  H        14.6417809862       22.6632148426       15.2256817282
  H        14.6506291523       20.9138003926       15.2251340171
  H        17.1511537084       22.6135127192       15.2173566868
  H        17.1336703202       20.9263695005       15.2334616008
  H        16.5792720586       21.7819799627       16.5751382885
  H        15.4317079960       15.5454184777       20.2042767820
  H        14.8225852204       16.4259941932       21.5810700071
  H        14.8230851478       14.6644399277       21.5814197964
  H        17.3115573646       16.4054287384       21.5920546998
  H        17.3111190376       14.6845148568       21.5926558993
  H        16.7144111033       15.5452688097       22.9280582716
     100
 i =        5, E =      -575.3754754725
  I        12.1042560450       12.4390325813        8.7260772151
  I        18.3073596347       12.5243465214        8.7203287251
  I        12.0951898101       18.6532130280        8.7115759753
  I        18.3108684400       18.5637531585        8.7051393028
  I        12.2186887567        9.2505460791       12.1021300870
  I        18.4314164244        9.2356215226       12.1066551240
  I         9.0951103828       12.4751326917       11.6999263522
  I        12.1980961335       12.5450501903       15.0472957424
  I        12.1969293359       15.5278148896       12.1350443312
  I        15.2967972966       12.4810737319       11.6471932028
  I        18.3375370353       12.4658279105       15.0819858182
  I        18.3698513399       15.5588711882       12.1669257093
  I        21.8243224200       12.4731050902       11.7306327466
  I         9.0814438885       18.6205680811       11.6947022260
  I        12.2289585473       18.5296451907       15.0699687152
  I        12.2121582872       21.8561303238       12.1013292519
  I        15.3099083640       18.5919735151       11.6685234230
  I        18.3425320877       18.6288078925       15.0902365719
  I        18.4358103375       21.8518270864       12.1167920780
  I        21.8217827391       18.6173482616       11.7323445143
  I        12.3941849091        9.2037249563       18.4054380223
  I        18.5960398327        9.2042782880       18.4197087388
  I         9.3081467232       12.5074362391       18.0112536878
  I        12.3904672553       12.4563268077       21.4503044228
  I        12.3721176823       15.5354648438       18.5000473359
  I        15.4444550730       12.4832500120       17.9169114440
  I        18.6090097846       12.5612522964       21.4940060160
  I        18.5421874352       15.5636465828       18.4024136338
  I        21.9181770127       12.5245085280       17.9569226265
  I         9.2865997922       18.5836317033       18.0176427539
  I        12.3935999001       18.6249996970       21.4514515407
  I        12.3991320870       21.9079775306       18.3978476746
  I        15.4532204541       18.5829294538       17.9231734427
  I        18.6045221165       18.5432986343       21.5054749189
  I        18.6034154119       21.8771889325       18.4150319834
  I        21.9060793665       18.5712912541       17.9576620641
 Pb        12.1541925773       12.2364192725       11.7685297521
 Pb        18.8390711205       12.2222716476       11.7468603912
 Pb        12.1583994468       18.8609655088       11.7606916614
 Pb        18.8420355841       18.8661107117       11.7275841751
 Pb        12.2974095627       12.1862264113       18.4654200427
 Pb        18.9735566455       12.2233882625       18.4909789503
 Pb        12.2977336123       18.9277457844       18.4634001772
 Pb        18.9537909521       18.8515361353       18.4973961789
  C        15.0253944389       15.5453666134        8.5429644977
  C        15.1473793974        9.3052588453       14.8897626636
  C         8.8357005028       15.5448973454       14.8773945817
  C        15.1514140357       15.5445437659       14.8844991619
  C        21.4259115674       15.5450644875       14.8804759968
  C        15.1471476612       21.7847469002       14.8899290136
  C        15.3287645430       15.5453237403       21.2531039954
  N        16.4557875904       15.5452540115        9.1877479667
  N        16.6038862479        9.3178388800       15.5162418721
  N        10.2683320546       15.5440528570       15.5195574365
  N        16.5880898502       15.5448841417       15.5166822975
  N        22.8762459956       15.5446809458       15.5506066181
  N        16.6034892260       21.7717853095       15.5167129878