 DBCSR| CPU Multiplication driver                                           XSMM
 DBCSR| Multrec recursion limit                                              512
 DBCSR| Multiplication stack size                                           1000
 DBCSR| Maximum elements for images                                    UNLIMITED
 DBCSR| Multiplicative factor virtual images                                   1
 DBCSR| Use multiplication densification                                       T
 DBCSR| Multiplication size stacks                                             3
 DBCSR| Use memory pool for CPU allocation                                     F
 DBCSR| Number of 3D layers                                               SINGLE
 DBCSR| Use MPI memory allocation                                              F
 DBCSR| Use RMA algorithm                                                      F
 DBCSR| Use Communication thread                                               T
 DBCSR| Communication thread load                                             87
 DBCSR| MPI: My node id                                                        0
 DBCSR| MPI: Number of nodes                                                  24
 DBCSR| OMP: Current number of threads                                         1
 DBCSR| OMP: Max number of threads                                             1
 DBCSR| Split modifier for TAS multiplication algorithm                  1.0E+00


  **** **** ******  **  PROGRAM STARTED AT               2023-12-04 01:32:41.684
 ***** ** ***  *** **   PROGRAM STARTED ON            milan4.int.triton.aalto.fi
 **    ****   ******    PROGRAM STARTED BY                               huangj4
 ***** **    ** ** **   PROGRAM PROCESS ID                                 14312
  **** **  *******  **  PROGRAM STARTED IN /scratch/phys/sin/Jie/Github/cp2kTest
                                           /ab_energy/Cluster_333

 CP2K| version string:                                          CP2K version 8.2
 CP2K| source code revision number:                                  git:310b7ab
 CP2K| cp2kflags: omp libint fftw3 libxc parallel mpi3 scalapack xsmm           
 CP2K| is freely available from                            https://www.cp2k.org/
 CP2K| Program compiled at                          Thu May 12 10:08:29 UTC 2022
 CP2K| Program compiled on                                          80d7174ae3e8
 CP2K| Program compiled for                            linux-centos7-haswell-gcc
 CP2K| Data directory path    /share/apps/spack/envs/fgci-centos7-haswell/softwa
 CP2K| Input file name                                      calEnergy_MAPbI3.inp

 GLOBAL| Force Environment number                                              1
 GLOBAL| Basis set file name                                        BASIS_MOLOPT
 GLOBAL| Potential file name                                      GTH_POTENTIALS
 GLOBAL| MM Potential file name                                     MM_POTENTIAL
 GLOBAL| Coordinate file name                               ./relaxed_MAPbI3.xyz
 GLOBAL| Method name                                                        CP2K
 GLOBAL| Project name                                                  calEnergy
 GLOBAL| Run type                                                   ENERGY_FORCE
 GLOBAL| FFT library                                                       FFTW3
 GLOBAL| Diagonalization library                                       ScaLAPACK
 GLOBAL| Orthonormality check for eigenvectors                          DISABLED
 GLOBAL| Matrix multiplication library                                    SCALAP
 GLOBAL| All-to-all communication in single precision                          F
 GLOBAL| FFTs using library dependent lengths                                  F
 GLOBAL| Grid backend                                                       AUTO
 GLOBAL| Global print level                                                  LOW
 GLOBAL| MPI I/O enabled                                                       T
 GLOBAL| Total number of message passing processes                            24
 GLOBAL| Number of threads for this process                                    1
 GLOBAL| This output is from process                                           0
 GLOBAL| CPU model name                          AMD EPYC 7713 64-Core Processor
 GLOBAL| CPUID                                                              1002

 MEMORY| system memory details [Kb]
 MEMORY|                        rank 0           min           max       average
 MEMORY| MemTotal            528041892     528041892     528041892     528041892
 MEMORY| MemFree             486277588     486277588     486277588     486277588
 MEMORY| Buffers                     0             0             0             0
 MEMORY| Cached               17161792      17161792      17161792      17161792
 MEMORY| Slab                  4262440       4262440       4262440       4262440
 MEMORY| SReclaimable          2226516       2226516       2226516       2226516
 MEMORY| MemLikelyFree       505665896     505665896     505665896     505665896


 GENERATE|  Preliminary Number of Bonds generated:                             0
 GENERATE|  Achieved consistency in connectivity generation.

 *******************************************************************************
 *******************************************************************************
 **                                                                           **
 **     #####                         ##              ##                      **
 **    ##   ##            ##          ##              ##                      **
 **   ##     ##                       ##            ######                    **
 **   ##     ##  ##   ##  ##   #####  ##  ##   ####   ##    #####    #####    **
 **   ##     ##  ##   ##  ##  ##      ## ##   ##      ##   ##   ##  ##   ##   **
 **   ##  ## ##  ##   ##  ##  ##      ####     ###    ##   ######   ######    **
 **    ##  ###   ##   ##  ##  ##      ## ##      ##   ##   ##       ##        **
 **     #######   #####   ##   #####  ##  ##  ####    ##    #####   ##        **
 **           ##                                                    ##        **
 **                                                                           **
 **                                                ... make the atoms dance   **
 **                                                                           **
 **            Copyright (C) by CP2K developers group (2000-2021)             **
 **                      J. Chem. Phys. 152, 194103 (2020)                    **
 **                                                                           **
 *******************************************************************************

 *******************************************************************************
 *   ___                                                                       *
 *  /   \                                                                      *
 * [ABORT]                                                                     *
 *  \___/                LSD: try to use a different multiplicity              *
 *    |                                                                        *
 *  O/|                                                                        *
 * /| |                                                                        *
 * / \                                                   qs_environment.F:1363 *
 *******************************************************************************


 ===== Routine Calling Stack ===== 

            2 qs_init_subsys
            1 CP2K
 DBCSR| CPU Multiplication driver                                           XSMM
 DBCSR| Multrec recursion limit                                              512
 DBCSR| Multiplication stack size                                           1000
 DBCSR| Maximum elements for images                                    UNLIMITED
 DBCSR| Multiplicative factor virtual images                                   1
 DBCSR| Use multiplication densification                                       T
 DBCSR| Multiplication size stacks                                             3
 DBCSR| Use memory pool for CPU allocation                                     F
 DBCSR| Number of 3D layers                                               SINGLE
 DBCSR| Use MPI memory allocation                                              F
 DBCSR| Use RMA algorithm                                                      F
 DBCSR| Use Communication thread                                               T
 DBCSR| Communication thread load                                             87
 DBCSR| MPI: My node id                                                        0
 DBCSR| MPI: Number of nodes                                                  24
 DBCSR| OMP: Current number of threads                                         1
 DBCSR| OMP: Max number of threads                                             1
 DBCSR| Split modifier for TAS multiplication algorithm                  1.0E+00


  **** **** ******  **  PROGRAM STARTED AT               2023-12-04 03:10:04.168
 ***** ** ***  *** **   PROGRAM STARTED ON           milan31.int.triton.aalto.fi
 **    ****   ******    PROGRAM STARTED BY                               huangj4
 ***** **    ** ** **   PROGRAM PROCESS ID                                 41499
  **** **  *******  **  PROGRAM STARTED IN /scratch/phys/sin/Jie/Github/cp2kTest
                                           /ab_energy/Cluster_333

 CP2K| version string:                                          CP2K version 8.2
 CP2K| source code revision number:                                  git:310b7ab
 CP2K| cp2kflags: omp libint fftw3 libxc parallel mpi3 scalapack xsmm           
 CP2K| is freely available from                            https://www.cp2k.org/
 CP2K| Program compiled at                          Thu May 12 10:08:29 UTC 2022
 CP2K| Program compiled on                                          80d7174ae3e8
 CP2K| Program compiled for                            linux-centos7-haswell-gcc
 CP2K| Data directory path    /share/apps/spack/envs/fgci-centos7-haswell/softwa
 CP2K| Input file name                                      calEnergy_MAPbI3.inp

 GLOBAL| Force Environment number                                              1
 GLOBAL| Basis set file name                                        BASIS_MOLOPT
 GLOBAL| Potential file name                                      GTH_POTENTIALS
 GLOBAL| MM Potential file name                                     MM_POTENTIAL
 GLOBAL| Coordinate file name                               ./relaxed_MAPbI3.xyz
 GLOBAL| Method name                                                        CP2K
 GLOBAL| Project name                                                  calEnergy
 GLOBAL| Run type                                                   ENERGY_FORCE
 GLOBAL| FFT library                                                       FFTW3
 GLOBAL| Diagonalization library                                       ScaLAPACK
 GLOBAL| Orthonormality check for eigenvectors                          DISABLED
 GLOBAL| Matrix multiplication library                                    SCALAP
 GLOBAL| All-to-all communication in single precision                          F
 GLOBAL| FFTs using library dependent lengths                                  F
 GLOBAL| Grid backend                                                       AUTO
 GLOBAL| Global print level                                                  LOW
 GLOBAL| MPI I/O enabled                                                       T
 GLOBAL| Total number of message passing processes                            24
 GLOBAL| Number of threads for this process                                    1
 GLOBAL| This output is from process                                           0
 GLOBAL| CPU model name                          AMD EPYC 7713 64-Core Processor
 GLOBAL| CPUID                                                              1002

 MEMORY| system memory details [Kb]
 MEMORY|                        rank 0           min           max       average
 MEMORY| MemTotal            528041892     528041892     528041892     528041892
 MEMORY| MemFree             473198404     473198404     473198404     473198404
 MEMORY| Buffers                     0             0             0             0
 MEMORY| Cached               26753212      26753212      26753212      26753212
 MEMORY| Slab                  6426396       6426396       6426396       6426396
 MEMORY| SReclaimable          1756512       1756512       1756512       1756512
 MEMORY| MemLikelyFree       501708128     501708128     501708128     501708128


 GENERATE|  Preliminary Number of Bonds generated:                             0
 GENERATE|  Achieved consistency in connectivity generation.

 *******************************************************************************
 *******************************************************************************
 **                                                                           **
 **     #####                         ##              ##                      **
 **    ##   ##            ##          ##              ##                      **
 **   ##     ##                       ##            ######                    **
 **   ##     ##  ##   ##  ##   #####  ##  ##   ####   ##    #####    #####    **
 **   ##     ##  ##   ##  ##  ##      ## ##   ##      ##   ##   ##  ##   ##   **
 **   ##  ## ##  ##   ##  ##  ##      ####     ###    ##   ######   ######    **
 **    ##  ###   ##   ##  ##  ##      ## ##      ##   ##   ##       ##        **
 **     #######   #####   ##   #####  ##  ##  ####    ##    #####   ##        **
 **           ##                                                    ##        **
 **                                                                           **
 **                                                ... make the atoms dance   **
 **                                                                           **
 **            Copyright (C) by CP2K developers group (2000-2021)             **
 **                      J. Chem. Phys. 152, 194103 (2020)                    **
 **                                                                           **
 *******************************************************************************


 TOTAL NUMBERS AND MAXIMUM NUMBERS

  Total number of            - Atomic kinds:                                   5
                             - Atoms:                                        391
                             - Shell sets:                                   391
                             - Shells:                                       590
                             - Primitive Cartesian functions:               2467
                             - Cartesian basis functions:                    988
                             - Spherical basis functions:                    988

  Maximum angular momentum of- Orbital basis functions:                        1
                             - Local part of the GTH pseudopotential:          2
                             - Non-local part of the GTH pseudopotential:      4


 SCF PARAMETERS         Density guess:                                    ATOMIC
                        --------------------------------------------------------
                        max_scf:                                            1000
                        max_scf_history:                                       0
                        max_diis:                                              4
                        --------------------------------------------------------
                        eps_scf:                                        1.00E-06
                        eps_scf_history:                                0.00E+00
                        eps_diis:                                       1.00E-01
                        eps_eigval:                                     1.00E-05
                        --------------------------------------------------------
                        level_shift [a.u.]:                                 0.00
                        --------------------------------------------------------
                        No outer SCF

 Spin 1

 Number of electrons:                                                        672
 Number of occupied orbitals:                                                672
 Number of molecular orbitals:                                               672

 Spin 2

 Number of electrons:                                                        672
 Number of occupied orbitals:                                                672
 Number of molecular orbitals:                                               672

 Number of orbital functions:                                                988
 Number of independent orbital functions:                                    988

 Extrapolation method: initial_guess


 SCF WAVEFUNCTION OPTIMIZATION

  ----------------------------------- OT ---------------------------------------
  Minimizer      : DIIS                : direct inversion
                                         in the iterative subspace
                                         using   7 DIIS vectors
                                         safer DIIS on
  Preconditioner : FULL_KINETIC        : inversion of T + eS
  Precond_solver : DEFAULT
  stepsize       :    0.15000000                  energy_gap     :    0.20000000
  eps_taylor     :   0.10000E-15                  max_taylor     :             4
  ----------------------------------- OT ---------------------------------------

  Step     Update method      Time    Convergence         Total energy    Change
  ------------------------------------------------------------------------------
     1 OT DIIS     0.15E+00    6.8     0.00707388     -1879.1804200690 -1.88E+03
     2 OT DIIS     0.15E+00    8.2     0.00645503     -1888.6677660324 -9.49E+00
     3 OT DIIS     0.15E+00    8.1     0.00474784     -1913.5575218203 -2.49E+01
     4 OT DIIS     0.15E+00    8.1     0.00325747     -1929.8376833627 -1.63E+01
     5 OT DIIS     0.15E+00    8.1     0.00249619     -1935.9810424219 -6.14E+00
     6 OT DIIS     0.15E+00    8.0     0.00155743     -1941.9784902523 -6.00E+00
     7 OT DIIS     0.15E+00    8.0     0.00143248     -1942.5251103289 -5.47E-01
     8 OT DIIS     0.15E+00    8.0     0.00101987     -1944.5447134669 -2.02E+00
     9 OT DIIS     0.15E+00    8.0     0.00074841     -1945.5597662253 -1.02E+00
    10 OT DIIS     0.15E+00    8.0     0.00064669     -1946.0709006683 -5.11E-01
    11 OT DIIS     0.15E+00    8.0     0.00056525     -1946.4399949298 -3.69E-01
    12 OT DIIS     0.15E+00    8.0     0.00044606     -1946.9171409545 -4.77E-01
    13 OT DIIS     0.15E+00    8.0     0.00036242     -1947.1143310921 -1.97E-01
    14 OT DIIS     0.15E+00    8.0     0.00033995     -1947.2706011338 -1.56E-01
    15 OT DIIS     0.15E+00    8.0     0.00025590     -1947.4602526046 -1.90E-01
    16 OT DIIS     0.15E+00    8.0     0.00024994     -1947.4797882877 -1.95E-02
    17 OT DIIS     0.15E+00    8.0     0.00021155     -1947.5839077744 -1.04E-01
    18 OT DIIS     0.15E+00    8.0     0.00019587     -1947.6395869874 -5.57E-02
    19 OT DIIS     0.15E+00    8.0     0.00016413     -1947.6947917736 -5.52E-02
    20 OT DIIS     0.15E+00    8.0     0.00015465     -1947.7120273127 -1.72E-02
    21 OT DIIS     0.15E+00    8.0     0.00013528     -1947.7523260316 -4.03E-02
    22 OT DIIS     0.15E+00    8.0     0.00011754     -1947.7872841302 -3.50E-02
    23 OT DIIS     0.15E+00    8.0     0.00010050     -1947.8027732088 -1.55E-02
    24 OT DIIS     0.15E+00    8.0     0.00010409     -1947.8128814404 -1.01E-02
    25 OT DIIS     0.15E+00    8.0     0.00008215     -1947.8384962008 -2.56E-02
    26 OT DIIS     0.15E+00    8.0     0.00007789     -1947.8442486515 -5.75E-03
    27 OT DIIS     0.15E+00    8.0     0.00006780     -1947.8667569156 -2.25E-02
    28 OT DIIS     0.15E+00    8.0     0.00006473     -1947.8710149803 -4.26E-03
    29 OT DIIS     0.15E+00    8.0     0.00005864     -1947.8846752890 -1.37E-02
    30 OT DIIS     0.15E+00    8.0     0.00005540     -1947.8889569107 -4.28E-03
    31 OT DIIS     0.15E+00    8.0     0.00005345     -1947.8945985480 -5.64E-03
    32 OT DIIS     0.15E+00    8.1     0.00004977     -1947.9034585605 -8.86E-03
    33 OT DIIS     0.15E+00    8.0     0.00004689     -1947.9099073806 -6.45E-03
    34 OT DIIS     0.15E+00    8.0     0.00004442     -1947.9153892398 -5.48E-03
    35 OT DIIS     0.15E+00    8.0     0.00004362     -1947.9177164452 -2.33E-03
    36 OT DIIS     0.15E+00    8.0     0.00004287     -1947.9193239569 -1.61E-03
    37 OT DIIS     0.15E+00    7.9     0.00004226     -1947.9206785166 -1.35E-03
    38 OT DIIS     0.15E+00    7.9     0.00003819     -1947.9323132250 -1.16E-02
    39 OT DIIS     0.15E+00    8.1     0.00003617     -1947.9383044599 -5.99E-03
    40 OT DIIS     0.15E+00    8.0     0.00003541     -1947.9417830555 -3.48E-03
    41 OT DIIS     0.15E+00    8.0     0.00003416     -1947.9457008246 -3.92E-03
    42 OT DIIS     0.15E+00    8.0     0.00003202     -1947.9508540638 -5.15E-03
    43 OT DIIS     0.15E+00    8.0     0.00003080     -1947.9563455444 -5.49E-03
    44 OT DIIS     0.15E+00    8.0     0.00002930     -1947.9577992143 -1.45E-03
    45 OT DIIS     0.15E+00    8.1     0.00002875     -1947.9589511536 -1.15E-03
    46 OT DIIS     0.15E+00    8.0     0.00002758     -1947.9632473500 -4.30E-03
    47 OT DIIS     0.15E+00    8.0     0.00003378     -1947.9641185227 -8.71E-04
    48 OT DIIS     0.15E+00    8.0     0.00002690     -1947.9653989072 -1.28E-03
    49 OT DIIS     0.15E+00    8.0     0.00002558     -1947.9686430437 -3.24E-03
    50 OT DIIS     0.15E+00    8.0     0.00002706     -1947.9691217619 -4.79E-04
    51 OT DIIS     0.15E+00    8.1     0.00002326     -1947.9738564826 -4.73E-03
    52 OT DIIS     0.15E+00    8.0     0.00002394     -1947.9771085343 -3.25E-03
    53 OT DIIS     0.15E+00    8.0     0.00002286     -1947.9773072452 -1.99E-04
    54 OT DIIS     0.15E+00    8.0     0.00002253     -1947.9779015893 -5.94E-04
    55 OT DIIS     0.15E+00    8.0     0.00002174     -1947.9791955127 -1.29E-03
    56 OT DIIS     0.15E+00    8.0     0.00002410     -1947.9807618034 -1.57E-03
    57 OT DIIS     0.15E+00    8.0     0.00002078     -1947.9813381329 -5.76E-04
    58 OT DIIS     0.15E+00    8.0     0.00002019     -1947.9825238032 -1.19E-03
    59 OT SD       0.15E+00    8.0     0.00001928     -1947.9868285851 -4.30E-03
    60 OT DIIS     0.15E+00    7.8     0.00001906     -1947.9869021676 -7.36E-05
    61 OT DIIS     0.15E+00    7.9     0.00001819     -1947.9903509412 -3.45E-03
    62 OT SD       0.15E+00    7.9     0.00001784     -1947.9906048319 -2.54E-04
    63 OT DIIS     0.15E+00    7.9     0.00001770     -1947.9906679331 -6.31E-05
    64 OT DIIS     0.15E+00    8.0     0.00001708     -1947.9932600857 -2.59E-03
    65 OT DIIS     0.15E+00    7.9     0.00001642     -1947.9940059045 -7.46E-04
    66 OT DIIS     0.15E+00    7.9     0.00001660     -1947.9940217183 -1.58E-05
    67 OT DIIS     0.15E+00    7.9     0.00001583     -1947.9950851955 -1.06E-03
    68 OT DIIS     0.15E+00    7.9     0.00001523     -1947.9971910957 -2.11E-03
    69 OT DIIS     0.15E+00    7.9     0.00001498     -1947.9975237860 -3.33E-04
    70 OT DIIS     0.15E+00    8.0     0.00001474     -1947.9980748718 -5.51E-04
    71 OT DIIS     0.15E+00    7.9     0.00001452     -1947.9984526889 -3.78E-04
    72 OT DIIS     0.15E+00    7.9     0.00001508     -1947.9987178895 -2.65E-04
    73 OT DIIS     0.15E+00    8.0     0.00001429     -1947.9988536552 -1.36E-04
    74 OT DIIS     0.15E+00    8.0     0.00001418     -1947.9991847403 -3.31E-04
    75 OT SD       0.15E+00    8.0     0.00001375     -1948.0034024721 -4.22E-03
    76 OT DIIS     0.15E+00    8.0     0.00001357     -1948.0034398602 -3.74E-05
    77 OT SD       0.15E+00    8.1     0.00001281     -1948.0053919868 -1.95E-03
    78 OT DIIS     0.15E+00    8.0     0.00001270     -1948.0054245329 -3.25E-05
    79 OT DIIS     0.15E+00    8.0     0.00001186     -1948.0079206426 -2.50E-03
    80 OT DIIS     0.15E+00    8.0     0.00001191     -1948.0083360458 -4.15E-04
    81 OT SD       0.15E+00    8.0     0.00001183     -1948.0085122888 -1.76E-04
    82 OT DIIS     0.15E+00    8.0     0.00001170     -1948.0085400154 -2.77E-05
    83 OT SD       0.15E+00    8.1     0.00001197     -1948.0113161745 -2.78E-03
    84 OT DIIS     0.15E+00    8.0     0.00001165     -1948.0113442993 -2.81E-05
    85 OT SD       0.15E+00    8.0     0.00001246     -1948.0134611804 -2.12E-03
    86 OT DIIS     0.15E+00    8.0     0.00001202     -1948.0134915314 -3.04E-05
    87 OT DIIS     0.15E+00    8.0     0.00001097     -1948.0140997621 -6.08E-04
    88 OT DIIS     0.15E+00    8.0     0.00001020     -1948.0144284621 -3.29E-04
    89 OT DIIS     0.15E+00    8.0     0.00000993     -1948.0145359218 -1.07E-04
    90 OT DIIS     0.15E+00    8.0     0.00000962     -1948.0151218885 -5.86E-04
    91 OT DIIS     0.15E+00    8.0     0.00000940     -1948.0157618277 -6.40E-04
    92 OT DIIS     0.15E+00    8.0     0.00000938     -1948.0158398209 -7.80E-05
    93 OT DIIS     0.15E+00    8.0     0.00000928     -1948.0161250404 -2.85E-04
    94 OT SD       0.15E+00    8.0     0.00000885     -1948.0170811481 -9.56E-04
    95 OT DIIS     0.15E+00    8.0     0.00000880     -1948.0170967097 -1.56E-05
    96 OT DIIS     0.15E+00    8.0     0.00001109     -1948.0176016644 -5.05E-04
    97 OT SD       0.15E+00    8.0     0.00000840     -1948.0181907302 -5.89E-04
    98 OT DIIS     0.15E+00    8.0     0.00000833     -1948.0182047307 -1.40E-05
    99 OT SD       0.15E+00    8.0     0.00000818     -1948.0194265836 -1.22E-03
   100 OT DIIS     0.15E+00    8.0     0.00000808     -1948.0194398375 -1.33E-05
   101 OT DIIS     0.15E+00    8.0     0.00000773     -1948.0203859357 -9.46E-04
   102 OT DIIS     0.15E+00    8.1     0.00000769     -1948.0203786640  7.27E-06
   103 OT DIIS     0.15E+00    8.0     0.00000760     -1948.0204738861 -9.52E-05
   104 OT DIIS     0.15E+00    8.0     0.00000729     -1948.0210393269 -5.65E-04
   105 OT DIIS     0.15E+00    8.0     0.00000796     -1948.0211730735 -1.34E-04
   106 OT SD       0.15E+00    8.0     0.00000701     -1948.0214409300 -2.68E-04
   107 OT DIIS     0.15E+00    8.0     0.00000698     -1948.0214507041 -9.77E-06
   108 OT SD       0.15E+00    8.1     0.00000665     -1948.0226132749 -1.16E-03
   109 OT DIIS     0.15E+00    8.0     0.00000660     -1948.0226220551 -8.78E-06
   110 OT SD       0.15E+00    8.0     0.00000636     -1948.0231838856 -5.62E-04
   111 OT DIIS     0.15E+00    8.0     0.00000633     -1948.0231919213 -8.04E-06
   112 OT DIIS     0.15E+00    8.1     0.00000627     -1948.0241984063 -1.01E-03
   113 OT SD       0.15E+00    8.0     0.00000631     -1948.0242808971 -8.25E-05
   114 OT DIIS     0.15E+00    8.0     0.00000622     -1948.0242887692 -7.87E-06
   115 OT SD       0.15E+00    8.0     0.00000585     -1948.0246769243 -3.88E-04
   116 OT DIIS     0.15E+00    8.0     0.00000582     -1948.0246837303 -6.81E-06
   117 OT DIIS     0.15E+00    8.0     0.00000553     -1948.0253435999 -6.60E-04
   118 OT DIIS     0.15E+00    8.0     0.00000547     -1948.0256063618 -2.63E-04
   119 OT DIIS     0.15E+00    8.0     0.00000649     -1948.0262161371 -6.10E-04
   120 OT SD       0.15E+00    8.0     0.00000702     -1948.0262954806 -7.93E-05
   121 OT DIIS     0.15E+00    8.1     0.00000670     -1948.0263050557 -9.58E-06
   122 OT DIIS     0.15E+00    8.0     0.00000526     -1948.0263532838 -4.82E-05
   123 OT DIIS     0.15E+00    8.0     0.00000517     -1948.0264476448 -9.44E-05
   124 OT DIIS     0.15E+00    8.0     0.00000507     -1948.0266192555 -1.72E-04
   125 OT DIIS     0.15E+00    8.0     0.00000497     -1948.0268650203 -2.46E-04
   126 OT DIIS     0.15E+00    8.0     0.00000490     -1948.0273048782 -4.40E-04
   127 OT DIIS     0.15E+00    8.1     0.00000487     -1948.0274281207 -1.23E-04
   128 OT DIIS     0.15E+00    8.0     0.00000477     -1948.0275516422 -1.24E-04
   129 OT DIIS     0.15E+00    8.0     0.00000469     -1948.0276804105 -1.29E-04
   130 OT DIIS     0.15E+00   21.4     0.00000466     -1948.0276880588 -7.65E-06
   131 OT DIIS     0.15E+00    9.6     0.00000457     -1948.0277964519 -1.08E-04
   132 OT DIIS     0.15E+00    8.0     0.00000455     -1948.0278247669 -2.83E-05
   133 OT SD       0.15E+00    7.9     0.00000450     -1948.0278746954 -4.99E-05
   134 OT DIIS     0.15E+00    8.0     0.00000448     -1948.0278787183 -4.02E-06
   135 OT DIIS     0.15E+00    8.0     0.00000430     -1948.0281711427 -2.92E-04
   136 OT DIIS     0.15E+00    8.0     0.00000422     -1948.0283893262 -2.18E-04
   137 OT DIIS     0.15E+00    8.0     0.00000418     -1948.0284666667 -7.73E-05
   138 OT DIIS     0.15E+00    8.1     0.00000409     -1948.0286581127 -1.91E-04
   139 OT DIIS     0.15E+00    8.0     0.00000404     -1948.0287127350 -5.46E-05
   140 OT DIIS     0.15E+00    8.0     0.00000394     -1948.0288847099 -1.72E-04
   141 OT DIIS     0.15E+00    8.0     0.00000392     -1948.0289183606 -3.37E-05
   142 OT DIIS     0.15E+00    8.0     0.00000389     -1948.0289920806 -7.37E-05
   143 OT DIIS     0.15E+00    8.0     0.00000387     -1948.0290675829 -7.55E-05
   144 OT DIIS     0.15E+00    8.0     0.00000385     -1948.0291365061 -6.89E-05
   145 OT DIIS     0.15E+00    8.0     0.00000382     -1948.0291449186 -8.41E-06
   146 OT DIIS     0.15E+00    7.9     0.00000376     -1948.0292154226 -7.05E-05
   147 OT DIIS     0.15E+00    8.0     0.00000367     -1948.0294321530 -2.17E-04
   148 OT DIIS     0.15E+00    8.0     0.00000365     -1948.0295176609 -8.55E-05
   149 OT DIIS     0.15E+00    7.9     0.00000361     -1948.0296663318 -1.49E-04
   150 OT DIIS     0.15E+00    8.0     0.00000360     -1948.0296754472 -9.12E-06
   151 OT SD       0.15E+00    8.0     0.00000360     -1948.0300924894 -4.17E-04
   152 OT DIIS     0.15E+00    7.9     0.00000356     -1948.0300950520 -2.56E-06
   153 OT DIIS     0.15E+00    8.0     0.00000340     -1948.0302308796 -1.36E-04
   154 OT DIIS     0.15E+00    7.9     0.00000338     -1948.0303006586 -6.98E-05
   155 OT DIIS     0.15E+00    8.0     0.00000334     -1948.0304865975 -1.86E-04
   156 OT DIIS     0.15E+00    7.9     0.00000334     -1948.0305020190 -1.54E-05
   157 OT DIIS     0.15E+00    7.9     0.00000332     -1948.0305173264 -1.53E-05
   158 OT DIIS     0.15E+00    7.9     0.00000324     -1948.0306716993 -1.54E-04
   159 OT DIIS     0.15E+00    7.6     0.00000327     -1948.0307237431 -5.20E-05
   160 OT DIIS     0.15E+00    8.8     0.00000320     -1948.0307259707 -2.23E-06
   161 OT DIIS     0.15E+00    7.8     0.00000317     -1948.0307576960 -3.17E-05
   162 OT SD       0.15E+00   12.7     0.00000332     -1948.0311458941 -3.88E-04
   163 OT DIIS     0.15E+00    7.9     0.00000326     -1948.0311480705 -2.18E-06
   164 OT SD       0.15E+00    7.8     0.00000314     -1948.0313619608 -2.14E-04
   165 OT DIIS     0.15E+00    7.8     0.00000310     -1948.0313639087 -1.95E-06
   166 OT DIIS     0.15E+00    7.9     0.00000290     -1948.0315645061 -2.01E-04
   167 OT DIIS     0.15E+00    7.8     0.00000284     -1948.0316917408 -1.27E-04
   168 OT DIIS     0.15E+00    7.9     0.00000305     -1948.0317571018 -6.54E-05
   169 OT DIIS     0.15E+00    7.9     0.00000282     -1948.0318606796 -1.04E-04
   170 OT DIIS     0.15E+00    7.8     0.00000276     -1948.0319080939 -4.74E-05
   171 OT DIIS     0.15E+00    7.8     0.00000278     -1948.0320618981 -1.54E-04
   172 OT SD       0.15E+00    8.0     0.00000266     -1948.0321470386 -8.51E-05
   173 OT SD       0.15E+00    8.1     0.00000265     -1948.0321484475 -1.41E-06
   174 OT DIIS     0.15E+00    7.8     0.00000264     -1948.0321498411 -1.39E-06
   175 OT DIIS     0.15E+00    8.0     0.00000275     -1948.0322564118 -1.07E-04
   176 OT SD       0.15E+00    8.1     0.00000262     -1948.0324235694 -1.67E-04
   177 OT DIIS     0.15E+00    7.9     0.00000258     -1948.0324249233 -1.35E-06
   178 OT SD       0.15E+00    7.8     0.00000246     -1948.0325336717 -1.09E-04
   179 OT DIIS     0.15E+00    8.0     0.00000245     -1948.0325348750 -1.20E-06
   180 OT SD       0.15E+00    8.0     0.00000244     -1948.0327202867 -1.85E-04
   181 OT DIIS     0.15E+00    7.8     0.00000242     -1948.0327214689 -1.18E-06
   182 OT DIIS     0.15E+00    8.0     0.00000231     -1948.0328717762 -1.50E-04
   183 OT DIIS     0.15E+00    8.1     0.00000229     -1948.0328867496 -1.50E-05
   184 OT DIIS     0.15E+00    7.9     0.00000259     -1948.0329507541 -6.40E-05
   185 OT DIIS     0.15E+00    7.8     0.00000224     -1948.0329934488 -4.27E-05
   186 OT DIIS     0.15E+00    8.0     0.00000259     -1948.0331529486 -1.59E-04
   187 OT SD       0.15E+00    8.0     0.00000220     -1948.0331557922 -2.84E-06
   188 OT SD       0.15E+00    7.9     0.00000218     -1948.0331567489 -9.57E-07
   189 OT DIIS     0.15E+00    8.0     0.00000217     -1948.0331576953 -9.46E-07
   190 OT DIIS     0.15E+00    8.0     0.00000264     -1948.0331567742  9.21E-07
   191 OT DIIS     0.15E+00    8.0     0.00000375     -1948.0332472186 -9.04E-05
   192 OT DIIS     0.15E+00    8.1     0.00000209     -1948.0333305017 -8.33E-05
   193 OT DIIS     0.15E+00    8.0     0.00000205     -1948.0333556955 -2.52E-05
   194 OT DIIS     0.15E+00    8.1     0.00000204     -1948.0333704315 -1.47E-05
   195 OT DIIS     0.15E+00    8.1     0.00000202     -1948.0333747992 -4.37E-06
   196 OT DIIS     0.15E+00    8.0     0.00000200     -1948.0333912403 -1.64E-05
   197 OT DIIS     0.15E+00    8.0     0.00000197     -1948.0334376495 -4.64E-05
   198 OT DIIS     0.15E+00    8.0     0.00000196     -1948.0335015420 -6.39E-05
   199 OT DIIS     0.15E+00    8.0     0.00000195     -1948.0335061023 -4.56E-06
   200 OT DIIS     0.15E+00    8.0     0.00000191     -1948.0335316284 -2.55E-05
   201 OT DIIS     0.15E+00    8.1     0.00000190     -1948.0335402271 -8.60E-06
   202 OT DIIS     0.15E+00    8.0     0.00000189     -1948.0335571933 -1.70E-05
   203 OT DIIS     0.15E+00    8.0     0.00000187     -1948.0335829062 -2.57E-05
   204 OT DIIS     0.15E+00    8.0     0.00000186     -1948.0336117110 -2.88E-05
   205 OT DIIS     0.15E+00    8.0     0.00000184     -1948.0336522146 -4.05E-05
   206 OT DIIS     0.15E+00    8.0     0.00000182     -1948.0336713967 -1.92E-05
   207 OT DIIS     0.15E+00    8.1     0.00000181     -1948.0336787598 -7.36E-06
   208 OT DIIS     0.15E+00    8.0     0.00000178     -1948.0337345746 -5.58E-05
   209 OT DIIS     0.15E+00    8.0     0.00000177     -1948.0337564075 -2.18E-05
   210 OT DIIS     0.15E+00    8.0     0.00000176     -1948.0337766338 -2.02E-05
   211 OT DIIS     0.15E+00    8.0     0.00000175     -1948.0338033951 -2.68E-05
   212 OT DIIS     0.15E+00    8.1     0.00000174     -1948.0338389712 -3.56E-05
   213 OT DIIS     0.15E+00    8.0     0.00000173     -1948.0338800449 -4.11E-05
   214 OT DIIS     0.15E+00    8.1     0.00000170     -1948.0339252958 -4.53E-05
   215 OT SD       0.15E+00    8.0     0.00000176     -1948.0340103542 -8.51E-05
   216 OT DIIS     0.15E+00    8.0     0.00000174     -1948.0340109670 -6.13E-07
   217 OT SD       0.15E+00    8.1     0.00000168     -1948.0340810091 -7.00E-05
   218 OT DIIS     0.15E+00    8.0     0.00000168     -1948.0340815720 -5.63E-07
   219 OT SD       0.15E+00    8.0     0.00000173     -1948.0342113312 -1.30E-04
   220 OT DIIS     0.15E+00    8.1     0.00000171     -1948.0342119239 -5.93E-07
   221 OT DIIS     0.15E+00    8.0     0.00000159     -1948.0343103732 -9.84E-05
   222 OT DIIS     0.15E+00    8.0     0.00000159     -1948.0343249859 -1.46E-05
   223 OT DIIS     0.15E+00    8.0     0.00000187     -1948.0343757240 -5.07E-05
   224 OT DIIS     0.15E+00    8.0     0.00000154     -1948.0344134512 -3.77E-05
   225 OT DIIS     0.15E+00    8.0     0.00000191     -1948.0345571150 -1.44E-04
   226 OT SD       0.15E+00    8.1     0.00000148     -1948.0345804861 -2.34E-05
   227 OT SD       0.15E+00    8.0     0.00000147     -1948.0345809204 -4.34E-07
   228 OT SD       0.15E+00    8.0     0.00000147     -1948.0345813504 -4.30E-07
   229 OT SD       0.15E+00    8.0     0.00000146     -1948.0345817774 -4.27E-07
   230 OT DIIS     0.15E+00    8.1     0.00000146     -1948.0345822021 -4.25E-07
   231 OT SD       0.15E+00    8.1     0.00000160     -1948.0347403983 -1.58E-04
   232 OT SD       0.15E+00    8.1     0.00000155     -1948.0347408988 -5.00E-07
   233 OT DIIS     0.15E+00    8.0     0.00000151     -1948.0347413706 -4.72E-07
   234 OT DIIS     0.15E+00    8.0     0.00000147     -1948.0348628906 -1.22E-04
   235 OT DIIS     0.15E+00    8.0     0.00000137     -1948.0348655393 -2.65E-06
   236 OT SD       0.15E+00    8.0     0.00000133     -1948.0348704805 -4.94E-06
   237 OT DIIS     0.15E+00    8.0     0.00000132     -1948.0348708300 -3.50E-07
   238 OT SD       0.15E+00    8.0     0.00000157     -1948.0349900677 -1.19E-04
   239 OT SD       0.15E+00    8.0     0.00000152     -1948.0349905514 -4.84E-07
   240 OT DIIS     0.15E+00    7.9     0.00000147     -1948.0349910018 -4.50E-07
   241 OT DIIS     0.15E+00    8.0     0.00000127     -1948.0350407454 -4.97E-05
   242 OT DIIS     0.15E+00    8.0     0.00000125     -1948.0350548062 -1.41E-05
   243 OT DIIS     0.15E+00    8.0     0.00000125     -1948.0350698950 -1.51E-05
   244 OT DIIS     0.15E+00    8.0     0.00000127     -1948.0351194671 -4.96E-05
   245 OT DIIS     0.15E+00    8.0     0.00000131     -1948.0351342014 -1.47E-05
   246 OT DIIS     0.15E+00    8.0     0.00000147     -1948.0351662800 -3.21E-05
   247 OT SD       0.15E+00    8.0     0.00000130     -1948.0351662163  6.37E-08
   248 OT SD       0.15E+00    7.9     0.00000128     -1948.0351665489 -3.33E-07
   249 OT DIIS     0.15E+00    8.0     0.00000126     -1948.0351668727 -3.24E-07
   250 OT SD       0.15E+00    8.0     0.00000120     -1948.0352107088 -4.38E-05
   251 OT DIIS     0.15E+00    8.0     0.00000120     -1948.0352109951 -2.86E-07
   252 OT DIIS     0.15E+00    8.0     0.00000119     -1948.0352800855 -6.91E-05
   253 OT DIIS     0.15E+00    8.0     0.00000129     -1948.0352809288 -8.43E-07
   254 OT DIIS     0.15E+00    8.0     0.00000117     -1948.0352948313 -1.39E-05
   255 OT DIIS     0.15E+00    8.0     0.00000134     -1948.0353482697 -5.34E-05
   256 OT SD       0.15E+00    8.0     0.00000113     -1948.0353885692 -4.03E-05
   257 OT SD       0.15E+00    8.0     0.00000113     -1948.0353888232 -2.54E-07
   258 OT DIIS     0.15E+00    8.0     0.00000112     -1948.0353890752 -2.52E-07
   259 OT DIIS     0.15E+00    8.0     0.00000122     -1948.0353962724 -7.20E-06
   260 OT SD       0.15E+00    8.0     0.00000113     -1948.0354706306 -7.44E-05
   261 OT SD       0.15E+00    8.0     0.00000112     -1948.0354708853 -2.55E-07
   262 OT DIIS     0.15E+00    8.0     0.00000112     -1948.0354711362 -2.51E-07
   263 OT SD       0.15E+00    8.0     0.00000108     -1948.0354890839 -1.79E-05
   264 OT DIIS     0.15E+00    8.0     0.00000108     -1948.0354893173 -2.33E-07
   265 OT SD       0.15E+00   12.1     0.00000107     -1948.0355278526 -3.85E-05
   266 OT DIIS     0.15E+00    7.9     0.00000107     -1948.0355280805 -2.28E-07
   267 OT SD       0.15E+00    7.9     0.00000105     -1948.0355526584 -2.46E-05
   268 OT DIIS     0.15E+00    7.9     0.00000105     -1948.0355528799 -2.22E-07
   269 OT DIIS     0.15E+00    7.8     0.00000104     -1948.0355858990 -3.30E-05
   270 OT DIIS     0.15E+00    7.8     0.00000104     -1948.0355885439 -2.64E-06
   271 OT DIIS     0.15E+00    7.8     0.00000104     -1948.0355959564 -7.41E-06
   272 OT DIIS     0.15E+00    7.9     0.00000103     -1948.0356142135 -1.83E-05
   273 OT DIIS     0.15E+00    7.8     0.00000102     -1948.0356149179 -7.04E-07
   274 OT DIIS     0.15E+00    8.1     0.00000102     -1948.0356210313 -6.11E-06
   275 OT DIIS     0.15E+00    7.9     0.00000102     -1948.0356349145 -1.39E-05
   276 OT DIIS     0.15E+00    8.1     0.00000102     -1948.0356392241 -4.31E-06
   277 OT SD       0.15E+00    7.9     0.00000101     -1948.0356609089 -2.17E-05
   278 OT DIIS     0.15E+00    8.0     0.00000101     -1948.0356611110 -2.02E-07
   279 OT DIIS     0.15E+00    8.0     0.00000100     -1948.0356711735 -1.01E-05
   280 OT DIIS     0.15E+00    8.0     0.00000100     -1948.0356766844 -5.51E-06

  *** SCF run converged in   280 steps ***


  Electronic density on regular grids:      -1344.0000000517       -0.0000000517
  Core density on regular grids:             1343.9999997548       -0.0000002452
  Total charge density on r-space grids:       -0.0000002969
  Total charge density g-space grids:          -0.0000002969

  Overlap energy of the core charge distribution:               0.00006710711913
  Self energy of the core charge distribution:              -4355.89898471840388
  Core Hamiltonian energy:                                   1084.16148368284007
  Hartree energy:                                            1808.90655305206064
  Exchange-correlation energy:                               -484.31027130653314
  Dispersion energy:                                           -0.89452450144592

  Total energy:                                             -1948.03567668436267

  Integrated absolute spin density  :                               0.0000000139
  Ideal and single determinant S**2 :                    0.000000      -0.000000

 ENERGY| Total FORCE_EVAL ( QS ) energy [a.u.]:            -1948.035682181695620

 -------------------------------------------------------------------------------
 -                                                                             -
 -                                DBCSR STATISTICS                             -
 -                                                                             -
 -------------------------------------------------------------------------------
 COUNTER                                    TOTAL       BLAS       SMM       ACC
 flops     1 x    32 x    32             16515072       0.0%    100.0%      0.0%
 flops     4 x    32 x    32             68468736       0.0%    100.0%      0.0%
 flops     1 x     1 x    32            628611840       0.0%    100.0%      0.0%
 flops     1 x     4 x    32           2809857024       0.0%    100.0%      0.0%
 flops     4 x     1 x    32           2813755392       0.0%    100.0%      0.0%
 flops     1 x     1 x    64           3771671040       0.0%    100.0%      0.0%
 flops   246 x    96 x    83          13219103232       0.0%    100.0%      0.0%
 flops   248 x    96 x    83          13326575616       0.0%    100.0%      0.0%
 flops     4 x     4 x    32          13375733760       0.0%    100.0%      0.0%
 flops     1 x     4 x    64          16859142144       0.0%    100.0%      0.0%
 flops     4 x     1 x    64          16882532352       0.0%    100.0%      0.0%
 flops     1 x    32 x     1          17356090752       0.0%    100.0%      0.0%
 flops   246 x   128 x    83          17625470976       0.0%    100.0%      0.0%
 flops   248 x   128 x    83          17768767488       0.0%    100.0%      0.0%
 flops   246 x    96 x    81          19350855936       0.0%    100.0%      0.0%
 flops   248 x    96 x    81          19508179968       0.0%    100.0%      0.0%
 flops   246 x    96 x    82          19589755392       0.0%    100.0%      0.0%
 flops   248 x    96 x    82          19749021696       0.0%    100.0%      0.0%
 flops   246 x   128 x    81          25801141248       0.0%    100.0%      0.0%
 flops   248 x   128 x    81          26010906624       0.0%    100.0%      0.0%
 flops   246 x   128 x    82          26119673856       0.0%    100.0%      0.0%
 flops   248 x   128 x    82          26332028928       0.0%    100.0%      0.0%
 flops   247 x    96 x    83          26545678848       0.0%    100.0%      0.0%
 flops   247 x   128 x    83          35394238464       0.0%    100.0%      0.0%
 flops   246 x    96 x    32          38033473536       0.0%    100.0%      0.0%
 flops   248 x    96 x    32          38342688768       0.0%    100.0%      0.0%
 flops   247 x    96 x    81          38859035904       0.0%    100.0%      0.0%
 flops   247 x    96 x    82          39338777088       0.0%    100.0%      0.0%
 flops   192 x    96 x    83          41085812736       0.0%    100.0%      0.0%
 flops   246 x   128 x    32          50711298048       0.0%    100.0%      0.0%
 flops   248 x   128 x    32          51123585024       0.0%    100.0%      0.0%
 flops   247 x   128 x    81          51812047872       0.0%    100.0%      0.0%
 flops   247 x   128 x    82          52451702784       0.0%    100.0%      0.0%
 flops   192 x    96 x    32          53530066944       0.0%    100.0%      0.0%
 flops   192 x   128 x    83          54781083648       0.0%    100.0%      0.0%
 flops   192 x    96 x    81          60143689728       0.0%    100.0%      0.0%
 flops   192 x    96 x    82          60886204416       0.0%    100.0%      0.0%
 flops   192 x   128 x    32          71373422592       0.0%    100.0%      0.0%
 flops   247 x    96 x    32          76376162304       0.0%    100.0%      0.0%
 flops     4 x    32 x     1          78939963648       0.0%    100.0%      0.0%
 flops     1 x    32 x     4          78939963648       0.0%    100.0%      0.0%
 flops   192 x   128 x    81          80191586304       0.0%    100.0%      0.0%
 flops     4 x     4 x    64          80254402560       0.0%    100.0%      0.0%
 flops   192 x   128 x    82          81181605888       0.0%    100.0%      0.0%
 flops   247 x   128 x    32         101834883072       0.0%    100.0%      0.0%
 flops   160 x    96 x    83         102714531840       0.0%    100.0%      0.0%
 flops   160 x    96 x    32         133825167360       0.0%    100.0%      0.0%
 flops   160 x   128 x    83         136952709120       0.0%    100.0%      0.0%
 flops   160 x    96 x    81         150359224320       0.0%    100.0%      0.0%
 flops   160 x    96 x    82         152215511040       0.0%    100.0%      0.0%
 flops   160 x   128 x    32         178433556480       0.0%    100.0%      0.0%
 flops   160 x   128 x    81         200478965760       0.0%    100.0%      0.0%
 flops   160 x   128 x    82         202954014720       0.0%    100.0%      0.0%
 flops   246 x    96 x    64         228200841216       0.0%    100.0%      0.0%
 flops   248 x    96 x    64         230056132608       0.0%    100.0%      0.0%
 flops   246 x   128 x    64         304267788288       0.0%    100.0%      0.0%
 flops   248 x   128 x    64         306741510144       0.0%    100.0%      0.0%
 flops   192 x    96 x    64         321180401664       0.0%    100.0%      0.0%
 flops     4 x    32 x     4         370676726784       0.0%    100.0%      0.0%
 flops   192 x   128 x    64         428240535552       0.0%    100.0%      0.0%
 flops   247 x    96 x    64         458256973824       0.0%    100.0%      0.0%
 flops   247 x   128 x    64         611009298432       0.0%    100.0%      0.0%
 flops   160 x    96 x    64         802951004160       0.0%    100.0%      0.0%
 flops   160 x   128 x    64        1070601338880       0.0%    100.0%      0.0%
 flops inhomo. stacks                940968376320     100.0%      0.0%      0.0%
 flops total                         8.992200E+12      10.5%     89.5%      0.0%
 flops max/rank                    460.228037E+09      10.7%     89.3%      0.0%
 matmuls inhomo. stacks                    268800     100.0%      0.0%      0.0%
 matmuls total                         1432382685       0.0%    100.0%      0.0%
 number of processed stacks               5613744       4.8%     95.2%      0.0%
 average stack size                                     1.0     267.9       0.0
 marketing flops                    10.517388E+12
 -------------------------------------------------------------------------------
 # multiplications                          12337
 max memory usage/rank               1.423241E+09
 # max total images/rank                        3
 # max 3D layers                                1
 # MPI messages exchanged                 5625672
 MPI messages size (bytes):
  total size                       434.596151E+09
  min size                           0.000000E+00
  max size                         168.640000E+03
  average size                      77.252312E+03
 MPI breakdown and total messages size (bytes):
             size <=      128                1272                        0
       128 < size <=     8192                  18                   147456
      8192 < size <=    32768              423306              12136366080
     32768 < size <=   131072             5066196             400482831984
    131072 < size <=  4194304              134880              21943717120
   4194304 < size <= 16777216                   0                        0
  16777216 < size                               0                        0
 -------------------------------------------------------------------------------

 *** WARNING in dbcsr_mm.F:294 :: Using a non-square number of MPI ranks ***
 *** might lead to poor performance. Used ranks: 24 Suggested: 25 49     ***

 -------------------------------------------------------------------------------
 -                                                                             -
 -                      DBCSR MESSAGE PASSING PERFORMANCE                      -
 -                                                                             -
 -------------------------------------------------------------------------------
 ROUTINE             CALLS      AVE VOLUME [Bytes]
 MP_Bcast               65                     12.
 MP_Allreduce        67344                     50.
 MP_Alltoall         39916                  42967.
 MP_ISend           571862                  39550.
 MP_IRecv           560704                  38649.
 -------------------------------------------------------------------------------

 -------------------------------------------------------------------------------
 -                                                                             -
 -                                GRID STATISTICS                              -
 -                                                                             -
 -------------------------------------------------------------------------------
 LP    KERNEL             BACKEND                              COUNT     PERCENT
 1     collocate ortho    REF                               79209966      24.37%
 1     integrate ortho    REF                               79068206      24.32%
 2     integrate ortho    REF                               44063806      13.56%
 2     collocate ortho    REF                               43938284      13.52%
 0     collocate ortho    REF                               39375406      12.11%
 0     integrate ortho    REF                               39235280      12.07%
 3     integrate ortho    REF                                 156364       0.05%
 0     collocate general  REF                                   9384       0.00%
 1     integrate general  REF                                   9384       0.00%
 -------------------------------------------------------------------------------

 MEMORY| Estimated peak process memory [MiB]                                1358

 -------------------------------------------------------------------------------
 -                                                                             -
 -                         MESSAGE PASSING PERFORMANCE                         -
 -                                                                             -
 -------------------------------------------------------------------------------

 ROUTINE             CALLS      AVE VOLUME [Bytes]
 MP_Group                4
 MP_Bcast            36859                  29451.
 MP_Allreduce        94248                    568.
 MP_Sync              1120
 MP_Alltoall         10414               84303563.
 MP_SendRecv            92                   7357.
 MP_ISendRecv        51704                 457944.
 MP_Wait            101204
 MP_comm_split         558
 MP_ISend            40500                1838660.
 MP_IRecv            40500                1838660.
 MP_Recv               560                 252928.
 -------------------------------------------------------------------------------


 -------------------------------------------------------------------------------
 -                                                                             -
 -                           R E F E R E N C E S                               -
 -                                                                             -
 -------------------------------------------------------------------------------
 
 CP2K version 8.2, the CP2K developers group (2021).
 CP2K is freely available from https://www.cp2k.org/ .

 Kuehne,Thomas D.; Iannuzzi,Marcella; Del Ben,Mauro;
 Rybkin,Vladimir V.; Seewald,Patrick; Stein,Frederick; Laino,Teodoro;
 Khaliullin,Rustam Z.; Schuett,Ole; Schiffmann,Florian; Golze,Dorothea;
 Wilhelm,Jan; Chulkov,Sergey; Bani-Hashemian,Mohammad Hossein;
 Weber,Valery; Borstnik,Urban; Taillefumier,Mathieu;
 Jakobovits,Alice Shoshana; Lazzaro,Alfio; Pabst,Hans; Mueller,Tiziano;
 Schade,Robert; Guidon,Manuel; Andermatt,Samuel; Holmberg,Nico;
 Schenter,Gregory K.; Hehn,Anna; Bussy,Augustin; Belleflamme,Fabian;
 Tabacchi,Gloria; Gloess,Andreas; Lass,Michael; Bethune,Iain;
 Mundy,Christopher J.; Plessl,Christian; Watkins,Matt;
 VandeVondele,Joost; Krack,Matthias; Hutter,Juerg. 
 The Journal of Chemical Physics, 152 (19), (2020). 
 CP2K: An electronic structure and molecular dynamics software package -
 Quickstep: Efficient and accurate electronic structure calculations.
 https://doi.org/10.1063/5.0007045

 Goerigk, Lars; Hansen, Andreas; Bauer, Christoph; Ehrlich, Stephan;
 Najibi, Asim; Grimme, Stefan. , 19 (48), (2017). 
 A look at the density functional theory zoo with the advanced GMTKN55 database
 for general main group thermochemistry, kinetics and noncovalent interactions.
 https://doi.org/10.1039/C7CP04913G

 Schuett, Ole; Messmer, Peter; Hutter, Juerg; VandeVondele, Joost. 
 Electronic Structure Calculations on Graphics Processing Units, John
 Wiley & Sons, Ltd, 173-190 (2016). 
 GPU-Accelerated Sparse Matrix-Matrix Multiplication for
 Linear Scaling Density Functional Theory.
 https://doi.org/10.1002/9781118670712.ch8

 Heinecke, A; Henry, G; Hutchinson, M; Pabst, H. 
 Proceedings of Intl. Supercomputing Conference, 981-991 (2016). 
 LIBXSMM: Accelerating Small Matrix Multiplications
 by Runtime Code Generation.
 https://doi.org/10.1109/SC.2016.83

 Borstnik, U; VandeVondele, J; Weber, V; Hutter, J. 
 PARALLEL COMPUTING, 40 (5-6), 47-58 (2014). 
 Sparse matrix multiplication: The distributed block-compressed sparse
 row library.
 https://doi.org/10.1016/j.parco.2014.03.012

 Hutter, J; Iannuzzi, M; Schiffmann, F; VandeVondele, J. 
 WIREs Comput Mol Sci., 4 (1), 15-25 (2014). 
 CP2K: atomistic simulations of condensed matter systems.
 https://doi.org/10.1002/wcms.1159

 Grimme, S; Ehrlich, S; Goerigk, L. 
 JOURNAL OF COMPUTATIONAL CHEMISTRY, 32, 1456 (2011). 
 Effect of the damping function in dispersion corrected density functional theory.
 https://doi.org/10.1002/jcc.21759

 Grimme, S; Antony, J; Ehrlich, S; Krieg, H. 
 JOURNAL OF CHEMICAL PHYSICS, 132 (15), 154104 (2010). 
 A consistent and accurate ab initio parametrization of density
 functional dispersion correction (DFT-D) for the 94 elements H-Pu.
 https://doi.org/10.1063/1.3382344

 VandeVondele, J; Hutter, J. 
 JOURNAL OF CHEMICAL PHYSICS, 127 (11), 114105 (2007). 
 Gaussian basis sets for accurate calculations on molecular systems in
 gas and condensed phases.
 https://doi.org/10.1063/1.2770708

 Krack, M. 
 THEORETICAL CHEMISTRY ACCOUNTS, 114 (1-3), 145-152 (2005). 
 Pseudopotentials for H to Kr optimized for gradient-corrected
 exchange-correlation functionals.
 https://doi.org/10.1007/s00214-005-0655-y

 VandeVondele, J; Krack, M; Mohamed, F; Parrinello, M; Chassaing, T;
 Hutter, J. COMPUTER PHYSICS COMMUNICATIONS, 167 (2), 103-128 (2005). 
 QUICKSTEP: Fast and accurate density functional calculations using a
 mixed Gaussian and plane waves approach.
 https://doi.org/10.1016/j.cpc.2004.12.014

 Frigo, M; Johnson, SG. 
 PROCEEDINGS OF THE IEEE, 93 (2), 216-231 (2005). 
 The design and implementation of FFTW3.
 https://doi.org/10.1109/JPROC.2004.840301

 VandeVondele, J; Hutter, J. 
 JOURNAL OF CHEMICAL PHYSICS, 118 (10), 4365-4369 (2003). 
 An efficient orbital transformation method for electronic structure
 calculations.
 https://doi.org/10.1063/1.1543154

 Hartwigsen, C; Goedecker, S; Hutter, J. 
 PHYSICAL REVIEW B, 58 (7), 3641-3662 (1998). 
 Relativistic separable dual-space Gaussian pseudopotentials from H to Rn.
 https://doi.org/10.1103/PhysRevB.58.3641

 Lippert, G; Hutter, J; Parrinello, M. 
 MOLECULAR PHYSICS, 92 (3), 477-487 (1997). 
 A hybrid Gaussian and plane wave density functional scheme.
 https://doi.org/10.1080/002689797170220

 Perdew, JP; Burke, K; Ernzerhof, M. 
 PHYSICAL REVIEW LETTERS, 77 (18), 3865-3868 (1996). 
 Generalized gradient approximation made simple.
 https://doi.org/10.1103/PhysRevLett.77.3865

 Goedecker, S; Teter, M; Hutter, J. 
 PHYSICAL REVIEW B, 54 (3), 1703-1710 (1996). 
 Separable dual-space Gaussian pseudopotentials.
 https://doi.org/10.1103/PhysRevB.54.1703


 -------------------------------------------------------------------------------
 -                                                                             -
 -                                T I M I N G                                  -
 -                                                                             -
 -------------------------------------------------------------------------------
 SUBROUTINE                       CALLS  ASD         SELF TIME        TOTAL TIME
                                MAXIMUM       AVERAGE  MAXIMUM  AVERAGE  MAXIMUM
 CP2K                                 1  1.0    0.174    0.183 2272.534 2272.535
 qs_forces                            1  2.0    0.000    0.000 2271.323 2271.324
 qs_energies                          1  3.0    0.000    0.000 2264.902 2264.903
 scf_env_do_scf                       1  4.0    0.001    0.001 2262.288 2262.289
 scf_env_do_scf_inner_loop          280  5.0    0.006    0.036 2255.599 2255.627
 rebuild_ks_matrix                  281  7.0    0.001    0.001 1719.059 1719.232
 qs_ks_build_kohn_sham_matrix       281  8.0    0.045    0.049 1719.058 1719.231
 qs_ks_update_qs_env                281  6.0    0.002    0.003 1713.055 1713.227
 pw_transfer                       9836 10.7    0.693    0.783 1405.417 1612.018
 fft_wrap_pw1pw2                   9274 11.7    0.108    0.135 1399.794 1608.081
 fft_wrap_pw1pw2_140               5902 12.9   62.909   80.317 1334.248 1531.141
 qs_vxc_create                      281  9.0    0.007    0.008 1279.011 1282.176
 xc_vxc_pw_create                   281 10.0   35.352   37.397 1279.004 1282.169
 fft3d_ps                          9274 13.7  427.352  459.427  920.433 1168.427
 xc_rho_set_and_dset_create         281 11.0    8.671   10.403  606.464  731.683
 mp_alltoall_z22v                  9274 15.7  362.351  649.226  362.351  649.226
 yz_to_x                           4497 14.1   68.440   75.638  298.498  508.237
 qs_rho_update_rho                  281  6.0    0.002    0.002  451.254  451.279
 calculate_rho_elec                 562  7.0    6.138    6.509  451.253  451.277
 sum_up_and_integrate               281  9.0    2.890    3.691  349.569  349.597
 integrate_v_rspace                 562 10.0    0.018    0.021  346.678  347.746
 density_rs2pw                      562  8.0    0.026    0.031  327.077  340.206
 xc_functional_eval                 281 12.0    0.003    0.004  213.013  338.910
 pbe_lsd_eval                       281 13.0  213.010  338.907  213.010  338.907
 pw_gather_p                       4497 13.1  229.856  257.173  229.856  257.173
 x_to_yz                           4777 15.3   62.125   80.163  194.418  246.389
 potential_pw2rs                    562 11.0    0.221    0.264  223.136  224.089
 pw_scatter_p                      4777 14.3  184.537  193.989  184.537  193.989
 rs_pw_transfer                    4498 10.5    0.062    0.077  131.887  146.268
 grid_collocate_task_list           562  8.0  112.260  129.142  112.260  129.142
 grid_integrate_task_list           562 11.0  106.822  122.385  106.822  122.385
 qs_scf_new_mos                     280  6.0    0.001    0.002   99.107   99.296
 qs_scf_loop_do_ot                  280  7.0    0.002    0.002   99.106   99.294
 ot_scf_mini                        280  8.0    0.006    0.007   94.813   94.970
 dbcsr_multiply_generic           12337 11.1    0.367    0.388   70.433   71.040
 mp_waitany                       40500 12.5   44.456   68.410   44.456   68.410
 fft_wrap_pw1pw2_50                1124 12.5    1.618    1.979   54.386   63.727
 pw_derive                         3372 11.5   49.793   62.615   49.793   62.615
 rs_pw_transfer_RS2PW_140           563 10.0   15.366   18.619   38.624   53.176
 mp_waitall_1                    751576 15.1   40.532   47.762   40.532   47.762
 multiply_cannon                  12337 12.1    0.567    0.593   43.390   46.308
 -------------------------------------------------------------------------------

 The number of warnings for this run is : 1
 
 -------------------------------------------------------------------------------
  **** **** ******  **  PROGRAM ENDED AT                 2023-12-04 03:47:57.284
 ***** ** ***  *** **   PROGRAM RAN ON               milan31.int.triton.aalto.fi
 **    ****   ******    PROGRAM RAN BY                                   huangj4
 ***** **    ** ** **   PROGRAM PROCESS ID                                 41499
  **** **  *******  **  PROGRAM STOPPED IN /scratch/phys/sin/Jie/Github/cp2kTest
                                           /ab_energy/Cluster_333
