  **** **** ******  **  PROGRAM STARTED AT               2023-12-04 03:47:57.925
 ***** ** ***  *** **   PROGRAM STARTED ON           milan31.int.triton.aalto.fi
 **    ****   ******    PROGRAM STARTED BY                               huangj4
 ***** **    ** ** **   PROGRAM PROCESS ID                                 51976
  **** **  *******  **  PROGRAM STARTED IN /scratch/phys/sin/Jie/Github/cp2kTest
                                           /ab_energy/Cluster_333

 CP2K| version string:                                          CP2K version 8.2
 CP2K| source code revision number:                                  git:310b7ab
 CP2K| cp2kflags: omp libint fftw3 libxc parallel mpi3 scalapack xsmm           
 CP2K| is freely available from                            https://www.cp2k.org/
 CP2K| Program compiled at                          Thu May 12 10:08:29 UTC 2022
 CP2K| Program compiled on                                          80d7174ae3e8
 CP2K| Program compiled for                            linux-centos7-haswell-gcc
 CP2K| Data directory path    /share/apps/spack/envs/fgci-centos7-haswell/softwa
 CP2K| Input file name                                       calEnergy_Water.inp

 GLOBAL| Force Environment number                                              1
 GLOBAL| Basis set file name                                        BASIS_MOLOPT
 GLOBAL| Potential file name                                      GTH_POTENTIALS
 GLOBAL| MM Potential file name                                     MM_POTENTIAL
 GLOBAL| Coordinate file name                                ./relaxed_Water.xyz
 GLOBAL| Method name                                                        CP2K
 GLOBAL| Project name                                                  calEnergy
 GLOBAL| Run type                                                   ENERGY_FORCE
 GLOBAL| FFT library                                                       FFTW3
 GLOBAL| Diagonalization library                                       ScaLAPACK
 GLOBAL| Orthonormality check for eigenvectors                          DISABLED
 GLOBAL| Matrix multiplication library                                    SCALAP
 GLOBAL| All-to-all communication in single precision                          F
 GLOBAL| FFTs using library dependent lengths                                  F
 GLOBAL| Grid backend                                                       AUTO
 GLOBAL| Global print level                                                  LOW
 GLOBAL| MPI I/O enabled                                                       T
 GLOBAL| Total number of message passing processes                            24
 GLOBAL| Number of threads for this process                                    1
 GLOBAL| This output is from process                                           0
 GLOBAL| CPU model name                          AMD EPYC 7713 64-Core Processor
 GLOBAL| CPUID                                                              1002

 MEMORY| system memory details [Kb]
 MEMORY|                        rank 0           min           max       average
 MEMORY| MemTotal            528041892     528041892     528041892     528041892
 MEMORY| MemFree             471864712     471864712     471864712     471864712
 MEMORY| Buffers                     0             0             0             0
 MEMORY| Cached               28025300      28025300      28025300      28025300
 MEMORY| Slab                  6526428       6526428       6526428       6526428
 MEMORY| SReclaimable          1755072       1755072       1755072       1755072
 MEMORY| MemLikelyFree       501645084     501645084     501645084     501645084


 GENERATE|  Preliminary Number of Bonds generated:                             0
 GENERATE|  Achieved consistency in connectivity generation.

 *******************************************************************************
 *******************************************************************************
 **                                                                           **
 **     #####                         ##              ##                      **
 **    ##   ##            ##          ##              ##                      **
 **   ##     ##                       ##            ######                    **
 **   ##     ##  ##   ##  ##   #####  ##  ##   ####   ##    #####    #####    **
 **   ##     ##  ##   ##  ##  ##      ## ##   ##      ##   ##   ##  ##   ##   **
 **   ##  ## ##  ##   ##  ##  ##      ####     ###    ##   ######   ######    **
 **    ##  ###   ##   ##  ##  ##      ## ##      ##   ##   ##       ##        **
 **     #######   #####   ##   #####  ##  ##  ####    ##    #####   ##        **
 **           ##                                                    ##        **
 **                                                                           **
 **                                                ... make the atoms dance   **
 **                                                                           **
 **            Copyright (C) by CP2K developers group (2000-2021)             **
 **                      J. Chem. Phys. 152, 194103 (2020)                    **
 **                                                                           **
 *******************************************************************************


 TOTAL NUMBERS AND MAXIMUM NUMBERS

  Total number of            - Atomic kinds:                                   2
                             - Atoms:                                       1110
                             - Shell sets:                                  1110
                             - Shells:                                      1480
                             - Primitive Cartesian functions:               7770
                             - Cartesian basis functions:                   2220
                             - Spherical basis functions:                   2220

  Maximum angular momentum of- Orbital basis functions:                        1
                             - Local part of the GTH pseudopotential:          2
                             - Non-local part of the GTH pseudopotential:      0


 SCF PARAMETERS         Density guess:                                    ATOMIC
                        --------------------------------------------------------
                        max_scf:                                            1000
                        max_scf_history:                                       0
                        max_diis:                                              4
                        --------------------------------------------------------
                        eps_scf:                                        1.00E-06
                        eps_scf_history:                                0.00E+00
                        eps_diis:                                       1.00E-01
                        eps_eigval:                                     1.00E-05
                        --------------------------------------------------------
                        level_shift [a.u.]:                                 0.00
                        --------------------------------------------------------
                        No outer SCF

 Spin 1

 Number of electrons:                                                       1480
 Number of occupied orbitals:                                               1480
 Number of molecular orbitals:                                              1480

 Spin 2

 Number of electrons:                                                       1480
 Number of occupied orbitals:                                               1480
 Number of molecular orbitals:                                              1480

 Number of orbital functions:                                               2220
 Number of independent orbital functions:                                   2220

 Extrapolation method: initial_guess


 SCF WAVEFUNCTION OPTIMIZATION

  ----------------------------------- OT ---------------------------------------
  Minimizer      : DIIS                : direct inversion
                                         in the iterative subspace
                                         using   7 DIIS vectors
                                         safer DIIS on
  Preconditioner : FULL_KINETIC        : inversion of T + eS
  Precond_solver : DEFAULT
  stepsize       :    0.15000000                  energy_gap     :    0.20000000
  eps_taylor     :   0.10000E-15                  max_taylor     :             4
  ----------------------------------- OT ---------------------------------------

  Step     Update method      Time    Convergence         Total energy    Change
  ------------------------------------------------------------------------------
     1 OT DIIS     0.15E+00    8.5     0.00508468     -6105.8994871096 -6.11E+03
     2 OT DIIS     0.15E+00   11.1     0.00468940     -6130.3271619544 -2.44E+01
     3 OT DIIS     0.15E+00   10.9     0.00331585     -6214.1052339634 -8.38E+01
     4 OT DIIS     0.15E+00   11.1     0.00269961     -6254.2646165832 -4.02E+01
     5 OT DIIS     0.15E+00   11.0     0.00202663     -6292.0204732925 -3.78E+01
     6 OT DIIS     0.15E+00   11.3     0.00154484     -6313.8589505643 -2.18E+01
     7 OT DIIS     0.15E+00   11.3     0.00170513     -6312.0948048500  1.76E+00
     8 OT DIIS     0.15E+00   11.1     0.00169797     -6312.5797094257 -4.85E-01
     9 OT SD       0.15E+00   10.9     0.00127215     -6330.0328131022 -1.75E+01
    10 OT DIIS     0.15E+00   10.9     0.00122447     -6331.5978815967 -1.57E+00
    11 OT SD       0.15E+00   10.9     0.00110967     -6338.2030993533 -6.61E+00
    12 OT DIIS     0.15E+00   11.1     0.00105592     -6339.3871708501 -1.18E+00
    13 OT DIIS     0.15E+00   10.9     0.00101921     -6339.6828536426 -2.96E-01
    14 OT DIIS     0.15E+00   11.2     0.00054939     -6348.1878653849 -8.51E+00
    15 OT SD       0.15E+00   11.3     0.00050158     -6348.5734284914 -3.86E-01
    16 OT DIIS     0.15E+00   11.3     0.00048305     -6348.8167355266 -2.43E-01
    17 OT DIIS     0.15E+00   11.4     0.00065765     -6347.8549033982  9.62E-01
    18 OT DIIS     0.15E+00   11.2     0.00043225     -6350.2973596593 -2.44E+00
    19 OT DIIS     0.15E+00   11.0     0.00029922     -6351.2720211229 -9.75E-01
    20 OT DIIS     0.15E+00   11.0     0.00045511     -6350.4015528812  8.70E-01
    21 OT SD       0.15E+00   10.9     0.00033030     -6351.3389678085 -9.37E-01
    22 OT DIIS     0.15E+00   10.9     0.00031413     -6351.4438141840 -1.05E-01
    23 OT DIIS     0.15E+00   11.1     0.00022295     -6352.1305527519 -6.87E-01
    24 OT DIIS     0.15E+00   11.3     0.00022068     -6352.1347881281 -4.24E-03
    25 OT DIIS     0.15E+00   11.2     0.00020230     -6352.2338582065 -9.91E-02
    26 OT DIIS     0.15E+00   11.2     0.00019665     -6352.2869056557 -5.30E-02
    27 OT DIIS     0.15E+00   11.4     0.00018403     -6352.4249012632 -1.38E-01
    28 OT DIIS     0.15E+00   11.3     0.00017628     -6352.5126507961 -8.77E-02
    29 OT DIIS     0.15E+00   11.1     0.00015551     -6352.7502890595 -2.38E-01
    30 OT DIIS     0.15E+00   11.0     0.00014744     -6352.8158358426 -6.55E-02
    31 OT DIIS     0.15E+00   10.8     0.00010984     -6353.0626686555 -2.47E-01
    32 OT DIIS     0.15E+00   10.8     0.00010431     -6353.0892937822 -2.66E-02
    33 OT DIIS     0.15E+00   11.0     0.00008809     -6353.2075836558 -1.18E-01
    34 OT DIIS     0.15E+00   11.3     0.00008787     -6353.2069087099  6.75E-04
    35 OT DIIS     0.15E+00   11.0     0.00008326     -6353.2319070731 -2.50E-02
    36 OT DIIS     0.15E+00   11.0     0.00007798     -6353.2682397691 -3.63E-02
    37 OT DIIS     0.15E+00   11.1     0.00007263     -6353.3027887842 -3.45E-02
    38 OT DIIS     0.15E+00   11.4     0.00006804     -6353.3336088088 -3.08E-02
    39 OT DIIS     0.15E+00   11.3     0.00006573     -6353.3491898331 -1.56E-02
    40 OT DIIS     0.15E+00   11.2     0.00005073     -6353.4270459048 -7.79E-02
    41 OT DIIS     0.15E+00   10.7     0.00004947     -6353.4322782910 -5.23E-03
    42 OT DIIS     0.15E+00   10.7     0.00004282     -6353.4717326567 -3.95E-02
    43 OT DIIS     0.15E+00   10.9     0.00004118     -6353.4833911391 -1.17E-02
    44 OT DIIS     0.15E+00   10.9     0.00003370     -6353.5298695394 -4.65E-02
    45 OT SD       0.15E+00   11.0     0.00003346     -6353.5335547594 -3.69E-03
    46 OT DIIS     0.15E+00   11.0     0.00003292     -6353.5346493600 -1.09E-03
    47 OT DIIS     0.15E+00   11.0     0.00002757     -6353.5686105864 -3.40E-02
    48 OT DIIS     0.15E+00   11.0     0.00002697     -6353.5706655712 -2.05E-03
    49 OT DIIS     0.15E+00   11.1     0.00002548     -6353.5783570727 -7.69E-03
    50 OT DIIS     0.15E+00   11.1     0.00002388     -6353.5915221530 -1.32E-02
    51 OT DIIS     0.15E+00   10.8     0.00002252     -6353.6005869103 -9.06E-03
    52 OT DIIS     0.15E+00   10.7     0.00002074     -6353.6067015592 -6.11E-03
    53 OT DIIS     0.15E+00   10.8     0.00001995     -6353.6126280949 -5.93E-03
    54 OT DIIS     0.15E+00   10.8     0.00001924     -6353.6178260667 -5.20E-03
    55 OT SD       0.15E+00   10.9     0.00001890     -6353.6288683673 -1.10E-02
    56 OT DIIS     0.15E+00   11.1     0.00001845     -6353.6292161454 -3.48E-04
    57 OT DIIS     0.15E+00   11.0     0.00001641     -6353.6349572804 -5.74E-03
    58 OT DIIS     0.15E+00   10.9     0.00001663     -6353.6356347760 -6.77E-04
    59 OT SD       0.15E+00   11.0     0.00001553     -6353.6390810668 -3.45E-03
    60 OT DIIS     0.15E+00   11.1     0.00001535     -6353.6393173019 -2.36E-04
    61 OT SD       0.15E+00   11.1     0.00001381     -6353.6495834110 -1.03E-02
    62 OT DIIS     0.15E+00   26.6     0.00001367     -6353.6497704437 -1.87E-04
    63 OT SD       0.15E+00   10.7     0.00001213     -6353.6593542331 -9.58E-03
    64 OT DIIS     0.15E+00   10.8     0.00001202     -6353.6594985831 -1.44E-04
    65 OT DIIS     0.15E+00   10.7     0.00001082     -6353.6666081405 -7.11E-03
    66 OT DIIS     0.15E+00   11.5     0.00001058     -6353.6678987721 -1.29E-03
    67 OT SD       0.15E+00   10.7     0.00001030     -6353.6723388219 -4.44E-03
    68 OT DIIS     0.15E+00   10.7     0.00001015     -6353.6724425647 -1.04E-04
    69 OT DIIS     0.15E+00   10.7     0.00000903     -6353.6771938540 -4.75E-03
    70 OT DIIS     0.15E+00   10.7     0.00000895     -6353.6776276494 -4.34E-04
    71 OT DIIS     0.15E+00   10.7     0.00000830     -6353.6806096615 -2.98E-03
    72 OT DIIS     0.15E+00   10.7     0.00000946     -6353.6804839657  1.26E-04
    73 OT DIIS     0.15E+00   10.7     0.00000795     -6353.6830237552 -2.54E-03
    74 OT DIIS     0.15E+00   10.7     0.00000749     -6353.6846297898 -1.61E-03
    75 OT DIIS     0.15E+00   10.7     0.00000787     -6353.6845518559  7.79E-05
    76 OT DIIS     0.15E+00   10.8     0.00000738     -6353.6852685604 -7.17E-04
    77 OT SD       0.15E+00   10.7     0.00000728     -6353.6857992069 -5.31E-04
    78 OT SD       0.15E+00   10.6     0.00000721     -6353.6858511374 -5.19E-05
    79 OT DIIS     0.15E+00   10.8     0.00000715     -6353.6859021429 -5.10E-05
    80 OT DIIS     0.15E+00   10.7     0.00000645     -6353.6890099824 -3.11E-03
    81 OT DIIS     0.15E+00   10.7     0.00000646     -6353.6892527501 -2.43E-04
    82 OT DIIS     0.15E+00   10.7     0.00000634     -6353.6896877955 -4.35E-04
    83 OT DIIS     0.15E+00   10.7     0.00000617     -6353.6911806441 -1.49E-03
    84 OT DIIS     0.15E+00   10.6     0.00000611     -6353.6915183225 -3.38E-04
    85 OT SD       0.15E+00   10.6     0.00000553     -6353.6954124887 -3.89E-03
    86 OT DIIS     0.15E+00   10.6     0.00000548     -6353.6954425106 -3.00E-05
    87 OT SD       0.15E+00   31.5     0.00000542     -6353.6979664385 -2.52E-03
    88 OT DIIS     0.15E+00   10.7     0.00000534     -6353.6979951660 -2.87E-05
    89 OT SD       0.15E+00   10.7     0.00000492     -6353.6989552618 -9.60E-04
    90 OT DIIS     0.15E+00   10.7     0.00000487     -6353.6989789848 -2.37E-05
    91 OT SD       0.15E+00   79.4     0.00000458     -6353.7010428952 -2.06E-03
    92 OT DIIS     0.15E+00   82.4     0.00000454     -6353.7010635107 -2.06E-05
    93 OT SD       0.15E+00   78.6     0.00000425     -6353.7026988610 -1.64E-03
    94 OT DIIS     0.15E+00   10.9     0.00000423     -6353.7027166576 -1.78E-05
    95 OT DIIS     0.15E+00   10.6     0.00000396     -6353.7045336744 -1.82E-03
    96 OT DIIS     0.15E+00   10.7     0.00000389     -6353.7046336825 -1.00E-04
    97 OT DIIS     0.15E+00   10.9     0.00000384     -6353.7050688831 -4.35E-04
    98 OT DIIS     0.15E+00   10.9     0.00000493     -6353.7062759248 -1.21E-03
    99 OT DIIS     0.15E+00   11.0     0.00000475     -6353.7064160145 -1.40E-04
   100 OT SD       0.15E+00   11.0     0.00000358     -6353.7064130153  3.00E-06
   101 OT DIIS     0.15E+00   10.9     0.00000356     -6353.7064256109 -1.26E-05
   102 OT DIIS     0.15E+00   11.0     0.00000344     -6353.7076340767 -1.21E-03
   103 OT DIIS     0.15E+00   10.9     0.00000337     -6353.7076538110 -1.97E-05
   104 OT DIIS     0.15E+00   10.7     0.00000334     -6353.7077528506 -9.90E-05
   105 OT SD       0.15E+00   10.7     0.00000334     -6353.7088265350 -1.07E-03
   106 OT DIIS     0.15E+00   10.7     0.00000329     -6353.7088374506 -1.09E-05
   107 OT DIIS     0.15E+00   10.9     0.00000307     -6353.7095342488 -6.97E-04
   108 OT DIIS     0.15E+00   11.0     0.00000308     -6353.7095769455 -4.27E-05
   109 OT DIIS     0.15E+00   10.9     0.00000305     -6353.7096198921 -4.29E-05
   110 OT DIIS     0.15E+00   11.0     0.00000304     -6353.7096650117 -4.51E-05
   111 OT DIIS     0.15E+00   10.7     0.00000296     -6353.7100109455 -3.46E-04
   112 OT DIIS     0.15E+00   10.9     0.00000308     -6353.7102023312 -1.91E-04
   113 OT DIIS     0.15E+00   11.1     0.00000285     -6353.7106318821 -4.30E-04
   114 OT DIIS     0.15E+00   10.5     0.00000284     -6353.7107029977 -7.11E-05
   115 OT DIIS     0.15E+00   10.7     0.00000281     -6353.7111935270 -4.91E-04
   116 OT SD       0.15E+00   10.5     0.00000289     -6353.7114338488 -2.40E-04
   117 OT DIIS     0.15E+00   10.7     0.00000286     -6353.7114420501 -8.20E-06
   118 OT SD       0.15E+00   10.8     0.00000274     -6353.7118627387 -4.21E-04
   119 OT DIIS     0.15E+00   10.9     0.00000271     -6353.7118700900 -7.35E-06
   120 OT SD       0.15E+00   11.0     0.00000255     -6353.7125083471 -6.38E-04
   121 OT DIIS     0.15E+00   11.2     0.00000254     -6353.7125147601 -6.41E-06
   122 OT SD       0.15E+00   11.1     0.00000248     -6353.7132813573 -7.67E-04
   123 OT DIIS     0.15E+00   10.8     0.00000247     -6353.7132874201 -6.06E-06
   124 OT SD       0.15E+00   10.8     0.00000233     -6353.7138609461 -5.74E-04
   125 OT DIIS     0.15E+00   10.8     0.00000233     -6353.7138663087 -5.36E-06
   126 OT SD       0.15E+00   10.5     0.00000225     -6353.7143699871 -5.04E-04
   127 OT DIIS     0.15E+00   10.8     0.00000225     -6353.7143749866 -5.00E-06
   128 OT DIIS     0.15E+00   10.8     0.00000213     -6353.7149632478 -5.88E-04
   129 OT SD       0.15E+00   10.7     0.00000214     -6353.7149794220 -1.62E-05
   130 OT DIIS     0.15E+00   11.1     0.00000213     -6353.7149839243 -4.50E-06
   131 OT DIIS     0.15E+00   11.0     0.00000205     -6353.7155361210 -5.52E-04
   132 OT DIIS     0.15E+00   11.0     0.00000204     -6353.7156226545 -8.65E-05
   133 OT DIIS     0.15E+00   10.9     0.00000199     -6353.7157602350 -1.38E-04
   134 OT DIIS     0.15E+00   10.8     0.00000196     -6353.7159722143 -2.12E-04
   135 OT SD       0.15E+00   10.9     0.00000201     -6353.7160704412 -9.82E-05
   136 OT DIIS     0.15E+00   10.8     0.00000199     -6353.7160744042 -3.96E-06
   137 OT SD       0.15E+00   10.7     0.00000192     -6353.7165587834 -4.84E-04
   138 OT DIIS     0.15E+00   10.9     0.00000190     -6353.7165623984 -3.61E-06
   139 OT DIIS     0.15E+00   10.8     0.00000180     -6353.7168457515 -2.83E-04
   140 OT DIIS     0.15E+00   10.8     0.00000179     -6353.7168651734 -1.94E-05
   141 OT SD       0.15E+00   11.1     0.00000176     -6353.7170845537 -2.19E-04
   142 OT DIIS     0.15E+00   11.0     0.00000175     -6353.7170876059 -3.05E-06
   143 OT SD       0.15E+00   10.8     0.00000167     -6353.7175169247 -4.29E-04
   144 OT DIIS     0.15E+00   10.7     0.00000166     -6353.7175196603 -2.74E-06
   145 OT DIIS     0.15E+00   10.7     0.00000161     -6353.7177816145 -2.62E-04
   146 OT DIIS     0.15E+00   10.6     0.00000158     -6353.7178238393 -4.22E-05
   147 OT DIIS     0.15E+00   10.6     0.00000173     -6353.7178915338 -6.77E-05
   148 OT DIIS     0.15E+00   10.4     0.00000155     -6353.7180279677 -1.36E-04
   149 OT SD       0.15E+00   10.4     0.00000186     -6353.7180334698 -5.50E-06
   150 OT DIIS     0.15E+00   10.4     0.00000179     -6353.7180368157 -3.35E-06
   151 OT DIIS     0.15E+00   10.4     0.00000149     -6353.7182538587 -2.17E-04
   152 OT DIIS     0.15E+00   10.8     0.00000148     -6353.7182611485 -7.29E-06
   153 OT SD       0.15E+00   10.6     0.00000142     -6353.7184619678 -2.01E-04
   154 OT DIIS     0.15E+00   10.6     0.00000142     -6353.7184639648 -2.00E-06
   155 OT SD       0.15E+00   10.9     0.00000138     -6353.7187313145 -2.67E-04
   156 OT DIIS     0.15E+00   10.8     0.00000138     -6353.7187331980 -1.88E-06
   157 OT SD       0.15E+00   10.7     0.00000133     -6353.7188918794 -1.59E-04
   158 OT DIIS     0.15E+00   10.6     0.00000133     -6353.7188936307 -1.75E-06
   159 OT SD       0.15E+00   10.4     0.00000130     -6353.7191510220 -2.57E-04
   160 OT DIIS     0.15E+00   10.4     0.00000129     -6353.7191526833 -1.66E-06
   161 OT DIIS     0.15E+00   10.2     0.00000130     -6353.7193145409 -1.62E-04
   162 OT DIIS     0.15E+00   10.3     0.00000123     -6353.7193571831 -4.26E-05
   163 OT DIIS     0.15E+00   10.6     0.00000131     -6353.7193978106 -4.06E-05
   164 OT DIIS     0.15E+00   10.8     0.00000122     -6353.7194429938 -4.52E-05
   165 OT DIIS     0.15E+00   94.0     0.00000121     -6353.7195118093 -6.88E-05
   166 OT SD       0.15E+00   73.1     0.00000119     -6353.7195923660 -8.06E-05
   167 OT DIIS     0.15E+00   38.8     0.00000119     -6353.7195937710 -1.41E-06
   168 OT DIIS     0.15E+00   11.0     0.00000116     -6353.7197062671 -1.12E-04
   169 OT DIIS     0.15E+00   10.9     0.00000116     -6353.7197087082 -2.44E-06
   170 OT DIIS     0.15E+00   10.7     0.00000115     -6353.7197298567 -2.11E-05
   171 OT DIIS     0.15E+00   74.1     0.00000116     -6353.7198160945 -8.62E-05
   172 OT DIIS     0.15E+00  116.8     0.00000113     -6353.7198330750 -1.70E-05
   173 OT SD       0.15E+00   10.3     0.00000113     -6353.7198679402 -3.49E-05
   174 OT DIIS     0.15E+00   10.3     0.00000113     -6353.7198691943 -1.25E-06
   175 OT SD       0.15E+00   64.6     0.00000109     -6353.7200048406 -1.36E-04
   176 OT DIIS     0.15E+00   10.2     0.00000109     -6353.7200060136 -1.17E-06
   177 OT SD       0.15E+00   10.0     0.00000107     -6353.7201704007 -1.64E-04
   178 OT DIIS     0.15E+00   10.1     0.00000107     -6353.7201715280 -1.13E-06
   179 OT DIIS     0.15E+00   10.1     0.00000103     -6353.7202903436 -1.19E-04
   180 OT SD       0.15E+00   10.0     0.00000103     -6353.7203029368 -1.26E-05
   181 OT DIIS     0.15E+00    9.9     0.00000103     -6353.7203039882 -1.05E-06
   182 OT SD       0.15E+00    9.8     0.00000100     -6353.7204317627 -1.28E-04
   183 OT DIIS     0.15E+00    9.9     0.00000100     -6353.7204327514 -9.89E-07

  *** SCF run converged in   183 steps ***


  Electronic density on regular grids:      -2959.9999942811        0.0000057189
  Core density on regular grids:             2959.9999998979       -0.0000001021
  Total charge density on r-space grids:        0.0000056168
  Total charge density g-space grids:           0.0000056168

  Overlap energy of the core charge distribution:               0.00000206262236
  Self energy of the core charge distribution:             -16408.44734879293537
  Core Hamiltonian energy:                                   4974.45037633603897
  Hartree energy:                                            6676.22515073760951
  Exchange-correlation energy:                              -1595.22017016430300
  Dispersion energy:                                           -0.72844293038556

  Total energy:                                             -6353.72043275135366

  Integrated absolute spin density  :                               0.0000000005
  Ideal and single determinant S**2 :                    0.000000       0.000000

 ENERGY| Total FORCE_EVAL ( QS ) energy [a.u.]:            -6353.720592808796937

 -------------------------------------------------------------------------------
 -                                                                             -
 -                                DBCSR STATISTICS                             -
 -                                                                             -
 -------------------------------------------------------------------------------
 COUNTER                                    TOTAL       BLAS       SMM       ACC
 flops     1 x     8 x     8               189440       0.0%    100.0%      0.0%
 flops     4 x     8 x     8               378880       0.0%    100.0%      0.0%
 flops     1 x    32 x    32            139427840       0.0%    100.0%      0.0%
 flops     4 x    32 x    32            278855680       0.0%    100.0%      0.0%
 flops     1 x     8 x     1            704435328       0.0%    100.0%      0.0%
 flops     1 x     8 x     4           1687240064       0.0%    100.0%      0.0%
 flops     4 x     8 x     1           1687240064       0.0%    100.0%      0.0%
 flops     1 x     1 x    96           2131057920       0.0%    100.0%      0.0%
 flops     1 x     1 x   104           2308646080       0.0%    100.0%      0.0%
 flops     4 x     8 x     4           3977629696       0.0%    100.0%      0.0%
 flops     1 x     4 x    96           5039009280       0.0%    100.0%      0.0%
 flops     4 x     1 x    96           5043555840       0.0%    100.0%      0.0%
 flops     1 x     4 x   104           5458926720       0.0%    100.0%      0.0%
 flops     4 x     1 x   104           5463852160       0.0%    100.0%      0.0%
 flops     4 x     4 x    96          12094986240       0.0%    100.0%      0.0%
 flops     4 x     4 x   104          13102901760       0.0%    100.0%      0.0%
 flops     1 x     1 x   128          28414105600       0.0%    100.0%      0.0%
 flops   352 x   224 x   149          34352181248       0.0%    100.0%      0.0%
 flops   360 x   224 x   149          35132912640       0.0%    100.0%      0.0%
 flops   352 x   232 x   149          35579044864       0.0%    100.0%      0.0%
 flops   352 x   224 x   156          35966042112       0.0%    100.0%      0.0%
 flops   360 x   232 x   149          36387659520       0.0%    100.0%      0.0%
 flops   360 x   224 x   156          36783452160       0.0%    100.0%      0.0%
 flops   352 x   232 x   156          37250543616       0.0%    100.0%      0.0%
 flops   360 x   232 x   156          38097146880       0.0%    100.0%      0.0%
 flops   352 x   224 x    96          49746149376       0.0%    100.0%      0.0%
 flops   360 x   224 x    96          50876743680       0.0%    100.0%      0.0%
 flops   352 x   232 x    96          51522797568       0.0%    100.0%      0.0%
 flops   360 x   232 x    96          52693770240       0.0%    100.0%      0.0%
 flops   352 x   224 x   104          53891661824       0.0%    100.0%      0.0%
 flops   555 x   224 x   149          54533713920       0.0%    100.0%      0.0%
 flops   360 x   224 x   104          55116472320       0.0%    100.0%      0.0%
 flops   352 x   232 x   104          55816364032       0.0%    100.0%      0.0%
 flops   555 x   232 x   149          56481346560       0.0%    100.0%      0.0%
 flops   360 x   232 x   104          57084917760       0.0%    100.0%      0.0%
 flops   555 x   224 x   156          57095700480       0.0%    100.0%      0.0%
 flops   555 x   232 x   156          59134832640       0.0%    100.0%      0.0%
 flops     1 x     4 x   128          67186790400       0.0%    100.0%      0.0%
 flops     4 x     1 x   128          67247411200       0.0%    100.0%      0.0%
 flops   384 x   224 x   149          74950213632       0.0%    100.0%      0.0%
 flops   384 x   232 x   149          77627006976       0.0%    100.0%      0.0%
 flops   384 x   224 x   156          78471364608       0.0%    100.0%      0.0%
 flops   384 x   232 x   156          81273913344       0.0%    100.0%      0.0%
 flops   352 x   224 x   203          93603930112       0.0%    100.0%      0.0%
 flops   360 x   224 x   203          95731292160       0.0%    100.0%      0.0%
 flops   352 x   232 x   203          96946927616       0.0%    100.0%      0.0%
 flops   360 x   232 x   203          99150266880       0.0%    100.0%      0.0%
 flops   384 x   224 x    96         108537053184       0.0%    100.0%      0.0%
 flops   384 x   232 x    96         112413376512       0.0%    100.0%      0.0%
 flops   384 x   224 x   104         117581807616       0.0%    100.0%      0.0%
 flops   384 x   232 x   104         121781157888       0.0%    100.0%      0.0%
 flops     1 x    32 x     1         129616100352       0.0%    100.0%      0.0%
 flops   555 x   224 x   203         148595220480       0.0%    100.0%      0.0%
 flops   555 x   232 x   203         153902192640       0.0%    100.0%      0.0%
 flops   352 x   256 x   149         157038542848       0.0%    100.0%      0.0%
 flops   360 x   256 x   149         160607600640       0.0%    100.0%      0.0%
 flops     4 x     4 x   128         161266483200       0.0%    100.0%      0.0%
 flops   352 x   256 x   156         164416192512       0.0%    100.0%      0.0%
 flops   360 x   256 x   156         168152924160       0.0%    100.0%      0.0%
 flops   555 x   224 x    96         174342389760       0.0%    100.0%      0.0%
 flops   555 x   232 x    96         180568903680       0.0%    100.0%      0.0%
 flops   555 x   224 x   104         188870922240       0.0%    100.0%      0.0%
 flops   555 x   232 x   104         195616312320       0.0%    100.0%      0.0%
 flops   384 x   224 x   203         204226756608       0.0%    100.0%      0.0%
 flops   384 x   232 x   203         211520569344       0.0%    100.0%      0.0%
 flops   352 x   256 x    96         227410968576       0.0%    100.0%      0.0%
 flops   360 x   256 x    96         232579399680       0.0%    100.0%      0.0%
 flops   352 x   256 x   104         246361882624       0.0%    100.0%      0.0%
 flops   555 x   256 x   149         249296977920       0.0%    100.0%      0.0%
 flops   360 x   256 x   104         251961016320       0.0%    100.0%      0.0%
 flops   555 x   256 x   156         261008916480       0.0%    100.0%      0.0%
 flops     1 x    32 x     4         310452171776       0.0%    100.0%      0.0%
 flops     4 x    32 x     1         310452171776       0.0%    100.0%      0.0%
 flops   384 x   256 x   149         342629548032       0.0%    100.0%      0.0%
 flops   384 x   256 x   156         358726238208       0.0%    100.0%      0.0%
 flops   352 x   256 x   203         427903680512       0.0%    100.0%      0.0%
 flops   360 x   256 x   203         437628764160       0.0%    100.0%      0.0%
 flops   384 x   256 x    96         496169385984       0.0%    100.0%      0.0%
 flops   384 x   256 x   104         537516834816       0.0%    100.0%      0.0%
 flops   352 x   224 x   128         663281991680       0.0%    100.0%      0.0%
 flops   360 x   224 x   128         678356582400       0.0%    100.0%      0.0%
 flops   555 x   256 x   203         679292436480       0.0%    100.0%      0.0%
 flops   352 x   232 x   128         686970634240       0.0%    100.0%      0.0%
 flops   360 x   232 x   128         702583603200       0.0%    100.0%      0.0%
 flops     4 x    32 x     4         731883864064       0.0%    100.0%      0.0%
 flops   555 x   256 x    96         796993781760       0.0%    100.0%      0.0%
 flops   555 x   256 x   104         863409930240       0.0%    100.0%      0.0%
 flops   384 x   256 x   203         933608030208       0.0%    100.0%      0.0%
 flops   384 x   224 x   128        1447160709120       0.0%    100.0%      0.0%
 flops   384 x   232 x   128        1498845020160       0.0%    100.0%      0.0%
 flops   555 x   224 x   128        2324565196800       0.0%    100.0%      0.0%
 flops   555 x   232 x   128        2407585382400       0.0%    100.0%      0.0%
 flops   352 x   256 x   128        3032146247680       0.0%    100.0%      0.0%
 flops   360 x   256 x   128        3101058662400       0.0%    100.0%      0.0%
 flops   384 x   256 x   128        6615591813120       0.0%    100.0%      0.0%
 flops   555 x   256 x   128       10626583756800       0.0%    100.0%      0.0%
 flops inhomo. stacks              15669525811200     100.0%      0.0%      0.0%
 flops total                        62.871861E+12      24.9%     75.1%      0.0%
 flops max/rank                      2.779751E+12      25.0%     75.0%      0.0%
 matmuls inhomo. stacks                    351360     100.0%      0.0%      0.0%
 matmuls total                         5617761448       0.0%    100.0%      0.0%
 number of processed stacks               8649486       4.1%     95.9%      0.0%
 average stack size                                     1.0     676.9       0.0
 marketing flops                    74.930771E+12
 -------------------------------------------------------------------------------
 # multiplications                           8059
 max memory usage/rank               1.460158E+09
 # max total images/rank                        3
 # max 3D layers                                1
 # MPI messages exchanged                 3674904
 MPI messages size (bytes):
  total size                         1.362549E+12
  min size                           0.000000E+00
  max size                         985.680000E+03
  average size                     370.771250E+03
 MPI breakdown and total messages size (bytes):
             size <=      128                1272                        0
       128 < size <=     8192                   0                        0
      8192 < size <=    32768                  72                  2264064
     32768 < size <=   131072              148740              16090598560
    131072 < size <=  4194304             3524820            1346319122720
   4194304 < size <= 16777216                   0                        0
  16777216 < size                               0                        0
 -------------------------------------------------------------------------------

 *** WARNING in dbcsr_mm.F:294 :: Using a non-square number of MPI ranks ***
 *** might lead to poor performance. Used ranks: 24 Suggested: 25 49     ***

 -------------------------------------------------------------------------------
 -                                                                             -
 -                      DBCSR MESSAGE PASSING PERFORMANCE                      -
 -                                                                             -
 -------------------------------------------------------------------------------
 ROUTINE             CALLS      AVE VOLUME [Bytes]
 MP_Bcast               97                     12.
 MP_Allreduce        44098                    104.
 MP_Alltoall         26220                 171666.
 MP_ISend           373542                 175356.
 MP_IRecv           366264                 175390.
 -------------------------------------------------------------------------------

 -------------------------------------------------------------------------------
 -                                                                             -
 -                                GRID STATISTICS                              -
 -                                                                             -
 -------------------------------------------------------------------------------
 LP    KERNEL             BACKEND                              COUNT     PERCENT
 1     collocate ortho    REF                              165064560      22.09%
 1     integrate ortho    REF                              165043582      22.09%
 0     collocate ortho    REF                              161204608      21.58%
 0     integrate ortho    REF                              160328496      21.46%
 2     integrate ortho    REF                               47927724       6.41%
 2     collocate ortho    REF                               47287632       6.33%
 3     integrate ortho    REF                                 256998       0.03%
 0     collocate general  REF                                  26640       0.00%
 1     integrate general  REF                                  26640       0.00%
 -------------------------------------------------------------------------------

 MEMORY| Estimated peak process memory [MiB]                                1393

 -------------------------------------------------------------------------------
 -                                                                             -
 -                         MESSAGE PASSING PERFORMANCE                         -
 -                                                                             -
 -------------------------------------------------------------------------------

 ROUTINE             CALLS      AVE VOLUME [Bytes]
 MP_Group                4
 MP_Bcast            23568                  19801.
 MP_Allreduce        60293                   1093.
 MP_Sync               368
 MP_Alltoall          6825               84256178.
 MP_SendRecv            92                   9444.
 MP_ISendRecv        33856                 457944.
 MP_Wait             66284
 MP_ISend            26532                1708871.
 MP_IRecv            26532                1708871.
 MP_Recv               900                 568320.
 -------------------------------------------------------------------------------


 -------------------------------------------------------------------------------
 -                                                                             -
 -                           R E F E R E N C E S                               -
 -                                                                             -
 -------------------------------------------------------------------------------
 
 CP2K version 8.2, the CP2K developers group (2021).
 CP2K is freely available from https://www.cp2k.org/ .

 Kuehne,Thomas D.; Iannuzzi,Marcella; Del Ben,Mauro;
 Rybkin,Vladimir V.; Seewald,Patrick; Stein,Frederick; Laino,Teodoro;
 Khaliullin,Rustam Z.; Schuett,Ole; Schiffmann,Florian; Golze,Dorothea;
 Wilhelm,Jan; Chulkov,Sergey; Bani-Hashemian,Mohammad Hossein;
 Weber,Valery; Borstnik,Urban; Taillefumier,Mathieu;
 Jakobovits,Alice Shoshana; Lazzaro,Alfio; Pabst,Hans; Mueller,Tiziano;
 Schade,Robert; Guidon,Manuel; Andermatt,Samuel; Holmberg,Nico;
 Schenter,Gregory K.; Hehn,Anna; Bussy,Augustin; Belleflamme,Fabian;
 Tabacchi,Gloria; Gloess,Andreas; Lass,Michael; Bethune,Iain;
 Mundy,Christopher J.; Plessl,Christian; Watkins,Matt;
 VandeVondele,Joost; Krack,Matthias; Hutter,Juerg. 
 The Journal of Chemical Physics, 152 (19), (2020). 
 CP2K: An electronic structure and molecular dynamics software package -
 Quickstep: Efficient and accurate electronic structure calculations.
 https://doi.org/10.1063/5.0007045

 Goerigk, Lars; Hansen, Andreas; Bauer, Christoph; Ehrlich, Stephan;
 Najibi, Asim; Grimme, Stefan. , 19 (48), (2017). 
 A look at the density functional theory zoo with the advanced GMTKN55 database
 for general main group thermochemistry, kinetics and noncovalent interactions.
 https://doi.org/10.1039/C7CP04913G

 Schuett, Ole; Messmer, Peter; Hutter, Juerg; VandeVondele, Joost. 
 Electronic Structure Calculations on Graphics Processing Units, John
 Wiley & Sons, Ltd, 173-190 (2016). 
 GPU-Accelerated Sparse Matrix-Matrix Multiplication for
 Linear Scaling Density Functional Theory.
 https://doi.org/10.1002/9781118670712.ch8

 Heinecke, A; Henry, G; Hutchinson, M; Pabst, H. 
 Proceedings of Intl. Supercomputing Conference, 981-991 (2016). 
 LIBXSMM: Accelerating Small Matrix Multiplications
 by Runtime Code Generation.
 https://doi.org/10.1109/SC.2016.83

 Borstnik, U; VandeVondele, J; Weber, V; Hutter, J. 
 PARALLEL COMPUTING, 40 (5-6), 47-58 (2014). 
 Sparse matrix multiplication: The distributed block-compressed sparse
 row library.
 https://doi.org/10.1016/j.parco.2014.03.012

 Hutter, J; Iannuzzi, M; Schiffmann, F; VandeVondele, J. 
 WIREs Comput Mol Sci., 4 (1), 15-25 (2014). 
 CP2K: atomistic simulations of condensed matter systems.
 https://doi.org/10.1002/wcms.1159

 Grimme, S; Ehrlich, S; Goerigk, L. 
 JOURNAL OF COMPUTATIONAL CHEMISTRY, 32, 1456 (2011). 
 Effect of the damping function in dispersion corrected density functional theory.
 https://doi.org/10.1002/jcc.21759

 Grimme, S; Antony, J; Ehrlich, S; Krieg, H. 
 JOURNAL OF CHEMICAL PHYSICS, 132 (15), 154104 (2010). 
 A consistent and accurate ab initio parametrization of density
 functional dispersion correction (DFT-D) for the 94 elements H-Pu.
 https://doi.org/10.1063/1.3382344

 VandeVondele, J; Hutter, J. 
 JOURNAL OF CHEMICAL PHYSICS, 127 (11), 114105 (2007). 
 Gaussian basis sets for accurate calculations on molecular systems in
 gas and condensed phases.
 https://doi.org/10.1063/1.2770708

 Krack, M. 
 THEORETICAL CHEMISTRY ACCOUNTS, 114 (1-3), 145-152 (2005). 
 Pseudopotentials for H to Kr optimized for gradient-corrected
 exchange-correlation functionals.
 https://doi.org/10.1007/s00214-005-0655-y

 VandeVondele, J; Krack, M; Mohamed, F; Parrinello, M; Chassaing, T;
 Hutter, J. COMPUTER PHYSICS COMMUNICATIONS, 167 (2), 103-128 (2005). 
 QUICKSTEP: Fast and accurate density functional calculations using a
 mixed Gaussian and plane waves approach.
 https://doi.org/10.1016/j.cpc.2004.12.014

 Frigo, M; Johnson, SG. 
 PROCEEDINGS OF THE IEEE, 93 (2), 216-231 (2005). 
 The design and implementation of FFTW3.
 https://doi.org/10.1109/JPROC.2004.840301

 VandeVondele, J; Hutter, J. 
 JOURNAL OF CHEMICAL PHYSICS, 118 (10), 4365-4369 (2003). 
 An efficient orbital transformation method for electronic structure
 calculations.
 https://doi.org/10.1063/1.1543154

 Hartwigsen, C; Goedecker, S; Hutter, J. 
 PHYSICAL REVIEW B, 58 (7), 3641-3662 (1998). 
 Relativistic separable dual-space Gaussian pseudopotentials from H to Rn.
 https://doi.org/10.1103/PhysRevB.58.3641

 Lippert, G; Hutter, J; Parrinello, M. 
 MOLECULAR PHYSICS, 92 (3), 477-487 (1997). 
 A hybrid Gaussian and plane wave density functional scheme.
 https://doi.org/10.1080/002689797170220

 Perdew, JP; Burke, K; Ernzerhof, M. 
 PHYSICAL REVIEW LETTERS, 77 (18), 3865-3868 (1996). 
 Generalized gradient approximation made simple.
 https://doi.org/10.1103/PhysRevLett.77.3865

 Goedecker, S; Teter, M; Hutter, J. 
 PHYSICAL REVIEW B, 54 (3), 1703-1710 (1996). 
 Separable dual-space Gaussian pseudopotentials.
 https://doi.org/10.1103/PhysRevB.54.1703


 -------------------------------------------------------------------------------
 -                                                                             -
 -                                T I M I N G                                  -
 -                                                                             -
 -------------------------------------------------------------------------------
 SUBROUTINE                       CALLS  ASD         SELF TIME        TOTAL TIME
                                MAXIMUM       AVERAGE  MAXIMUM  AVERAGE  MAXIMUM
 CP2K                                 1  1.0    0.173    0.186 2634.730 2634.734
 qs_forces                            1  2.0    0.001    0.001 2633.554 2633.558
 qs_energies                          1  3.0    0.000    0.000 2626.247 2626.250
 scf_env_do_scf                       1  4.0    0.000    0.001 2621.595 2621.599
 scf_env_do_scf_inner_loop          183  5.0    0.004    0.027 2613.893 2613.902
 rebuild_ks_matrix                  184  7.0    0.001    0.001 1357.043 1357.209
 qs_ks_build_kohn_sham_matrix       184  8.0    0.028    0.031 1357.042 1357.208
 qs_ks_update_qs_env                184  6.0    0.002    0.002 1350.301 1350.467
 pw_transfer                       6441 10.7    0.435    0.520  907.800 1030.985
 fft_wrap_pw1pw2                   6073 11.7    0.071    0.090  904.088 1028.004
 fft_wrap_pw1pw2_140               3865 12.9   42.232   54.417  856.400  972.822
 qs_vxc_create                      184  9.0    0.005    0.005  898.604  900.289
 xc_vxc_pw_create                   184 10.0   22.267   23.437  898.600  900.285
 qs_scf_new_mos                     183  6.0    0.001    0.001  816.751  817.133
 qs_scf_loop_do_ot                  183  7.0    0.001    0.002  816.750  817.132
 ot_scf_mini                        183  8.0    0.005    0.006  804.616  804.676
 fft3d_ps                          6073 13.7  275.789  288.817  595.105  744.532
 qs_ot_get_p                        368  9.0    0.002    0.003  605.367  605.745
 qs_ot_p2m_diag                     364 10.0    2.647    2.906  571.056  571.602
 cp_dbcsr_syevd                     364 11.0    0.019    0.025  553.446  553.615
 cp_fm_syevd                        364 12.0    0.003    0.004  542.588  542.754
 cp_fm_syevd_base                   364 13.0  542.367  542.535  542.367  542.535
 xc_rho_set_and_dset_create         184 11.0    5.808    6.828  478.813  527.313
 qs_rho_update_rho                  184  6.0    0.001    0.002  455.622  455.730
 calculate_rho_elec                 368  7.0    3.806    4.062  455.621  455.728
 mp_alltoall_z22v                  6073 15.7  233.029  404.758  233.029  404.758
 sum_up_and_integrate               184  9.0    1.887    2.475  388.558  388.598
 integrate_v_rspace                 368 10.0    0.011    0.012  386.670  387.277
 yz_to_x                           2945 14.1   44.604   49.094  180.928  317.238
 xc_functional_eval                 184 12.0    0.002    0.002  220.394  269.487
 pbe_lsd_eval                       184 13.0  220.392  269.485  220.392  269.485
 dbcsr_multiply_generic            8059 11.1    0.335    0.364  240.036  241.241
 density_rs2pw                      368  8.0    0.017    0.020  229.112  238.810
 grid_collocate_task_list           368  8.0  218.189  234.661  218.189  234.661
 grid_integrate_task_list           368 11.0  215.428  224.547  215.428  224.547
 pw_gather_p                       2945 13.1  148.712  187.486  148.712  187.486
 x_to_yz                           3128 15.3   41.572   53.699  138.276  167.478
 ot_mini                            183  9.0    0.002    0.002  165.842  166.200
 potential_pw2rs                    368 11.0    0.140    0.168  149.694  150.289
 multiply_cannon                   8059 12.1    0.470    0.596  142.372  149.423
 multiply_cannon_loop              8059 13.1    0.428    0.472  132.720  140.197
 qs_ot_get_derivative               366 10.0    0.003    0.003  137.090  137.329
 pw_scatter_p                      3128 14.3  116.691  120.663  116.691  120.663
 rs_pw_transfer                    2946 10.5    0.041    0.057   98.113  109.630
 qs_ot_get_derivative_diag          362 11.0    0.008    0.010  103.874  104.137
 multiply_cannon_multrec          96708 14.1   96.655  103.958   96.696  104.007
 mp_waitall_1                    491056 15.1   62.511   71.114   62.511   71.114
 mp_waitany                       26532 12.5   40.684   59.424   40.684   59.424
 make_m2s                         16118 12.1    0.269    0.290   52.392   53.555
 -------------------------------------------------------------------------------

 The number of warnings for this run is : 1
 
 -------------------------------------------------------------------------------
  **** **** ******  **  PROGRAM ENDED AT                 2023-12-04 04:31:53.173
 ***** ** ***  *** **   PROGRAM RAN ON               milan31.int.triton.aalto.fi
 **    ****   ******    PROGRAM RAN BY                                   huangj4
 ***** **    ** ** **   PROGRAM PROCESS ID                                 51976
  **** **  *******  **  PROGRAM STOPPED IN /scratch/phys/sin/Jie/Github/cp2kTest
                                           /ab_energy/Cluster_333
