# Projected DOS for atomic kind I at iteration step i = 0, E(Fermi) =    -0.144138 a.u.
#     MO Eigenvalue [a.u.]      Occupation                 s                py                pz                px
       1         -0.933235        1.000000        0.00001536        0.00009549        0.00000070        0.00003129
       2         -0.927486        1.000000        0.00007578        0.00010481        0.00012965        0.00012675
       3         -0.918328        1.000000        0.00004905        0.00019926        0.00000625        0.00007127
       4         -0.915292        1.000000        0.00000923        0.00004455        0.00002568        0.00000132
       5         -0.914672        1.000000        0.00001486        0.00000569        0.00007412        0.00005707
       6         -0.914622        1.000000        0.00011935        0.00022340        0.00032650        0.00007409
       7         -0.912474        1.000000        0.00051464        0.00038169        0.00067761        0.00002724
       8         -0.911113        1.000000        0.00003258        0.00000219        0.00008024        0.00008601
       9         -0.911000        1.000000        0.00034560        0.00010747        0.00051261        0.00056722
      10         -0.910432        1.000000        0.00003417        0.00008930        0.00004814        0.00010606
      11         -0.908659        1.000000        0.00003001        0.00003876        0.00016372        0.00000158
      12         -0.906363        1.000000        0.00003262        0.00003748        0.00000624        0.00017026
      13         -0.901797        1.000000        0.00046782        0.00023488        0.00046809        0.00019436
      14         -0.900407        1.000000        0.00019698        0.00046718        0.00038495        0.00023499
      15         -0.898744        1.000000        0.00016462        0.00046193        0.00014575        0.00021742
      16         -0.897061        1.000000        0.00003731        0.00002707        0.00004435        0.00016504
      17         -0.894699        1.000000        0.00015234        0.00019128        0.00017631        0.00031547
      18         -0.889951        1.000000        0.00002029        0.00005663        0.00008091        0.00002783
      19         -0.886765        1.000000        0.00000080        0.00000570        0.00000129        0.00000458
      20         -0.884450        1.000000        0.00003719        0.00003010        0.00023036        0.00000006
      21         -0.880053        1.000000        0.00005413        0.00002254        0.00011554        0.00023295
      22         -0.879398        1.000000        0.00169760        0.00009291        0.00241026        0.00144115
      23         -0.877932        1.000000        0.00268765        0.00133682        0.00223296        0.00032444
      24         -0.873004        1.000000        0.00006395        0.00011482        0.00010320        0.00011613
      25         -0.870949        1.000000        0.00001511        0.00004450        0.00004130        0.00002639
      26         -0.869857        1.000000        0.00000744        0.00001514        0.00000969        0.00004973
      27         -0.867209        1.000000        0.00001232        0.00008092        0.00008433        0.00003853
      28         -0.864927        1.000000        0.00000360        0.00000881        0.00003437        0.00000091
      29         -0.860863        1.000000        0.00039042        0.00118768        0.00020367        0.00005281
      30         -0.860719        1.000000        0.00005264        0.00008799        0.00008601        0.00008933
      31         -0.857646        1.000000        0.00008706        0.00009009        0.00025053        0.00006630
      32         -0.855446        1.000000        0.00031099        0.00002023        0.00110489        0.00005498
      33         -0.849928        1.000000        0.00000000        0.00000001        0.00000001        0.00000002
      34         -0.848803        1.000000        0.00005552        0.00010358        0.00007543        0.00004843
      35         -0.845145        1.000000        0.00000221        0.00000653        0.00000079        0.00001144
      36         -0.843897        1.000000        0.00000163        0.00000073        0.00000124        0.00000020
      37         -0.843894        1.000000        0.01313399        0.00540814        0.00863623        0.00032602
      38         -0.843787        1.000000        0.00004757        0.00000688        0.00002742        0.00023525
      39         -0.841308        1.000000        0.00003389        0.00005105        0.00005489        0.00008526
      40         -0.840216        1.000000        0.00010144        0.00025552        0.00008203        0.00010389
      41         -0.837542        1.000000        0.00005600        0.00004438        0.00000442        0.00027696
      42         -0.835820        1.000000        0.00014237        0.00009950        0.00044579        0.00007361
      43         -0.831510        1.000000        0.00009810        0.00007651        0.00004934        0.00021712
      44         -0.830998        1.000000        0.00006384        0.00011095        0.00011686        0.00004774
      45         -0.829165        1.000000        0.00000583        0.00000930        0.00004178        0.00000232
      46         -0.818072        1.000000        0.00002212        0.00001015        0.00008047        0.00000628
      47         -0.652338        1.000000        0.00103222        0.00023152        0.00023919        0.00007801
      48         -0.648067        1.000000        0.00138890        0.00026529        0.00021115        0.00014389
      49         -0.647174        1.000000        0.00259719        0.00049929        0.00056606        0.00038948
      50         -0.622393        1.000000        0.00103302        0.00006530        0.00027285        0.00005852
      51         -0.612288        1.000000        0.00146056        0.00021743        0.00028446        0.00010053
      52         -0.611095        1.000000        0.01785851        0.00047171        0.00037401        0.00052046
      53         -0.609943        1.000000        0.00197238        0.00034752        0.00012081        0.00031890
      54         -0.599361        1.000000        0.94950907        0.00095013        0.01479939        0.01622382
      55         -0.597035        1.000000        0.91761194        0.00547491        0.00621028        0.00047600
      56         -0.570757        1.000000        0.84479036        0.00675432        0.00589476        0.00617945
      57         -0.568331        1.000000        0.83874081        0.00616709        0.00625506        0.00450062
      58         -0.564542        1.000000        0.87206544        0.00439253        0.00715022        0.00487941
      59         -0.560707        1.000000        0.85786182        0.00627117        0.00493601        0.00219475
      60         -0.558764        1.000000        0.81891498        0.00280469        0.00290896        0.00354546
      61         -0.557644        1.000000        0.83748008        0.00351793        0.00437487        0.00455325
      62         -0.557446        1.000000        0.82185625        0.00354621        0.00444437        0.00299850
      63         -0.555277        1.000000        0.88619395        0.00245446        0.00638067        0.00364781
      64         -0.554459        1.000000        0.88586808        0.00225544        0.00446619        0.00342288
      65         -0.551288        1.000000        0.88872891        0.00194728        0.00329887        0.00289734
      66         -0.550474        1.000000        0.91555225        0.00109298        0.00220481        0.00130432
      67         -0.549410        1.000000        0.87104237        0.00385776        0.00409479        0.00317009
      68         -0.547077        1.000000        0.86455682        0.00305853        0.00344934        0.00305653
      69         -0.546932        1.000000        0.87100700        0.00212810        0.00190681        0.00288950
      70         -0.546531        1.000000        0.84207790        0.00260240        0.00282696        0.00348434
      71         -0.544984        1.000000        0.93660388        0.00022504        0.00184833        0.00045739
      72         -0.544276        1.000000        0.84857953        0.00205653        0.00166309        0.00171784
      73         -0.542701        1.000000        0.89145361        0.00174181        0.00136791        0.00159916
      74         -0.542212        1.000000        0.91927377        0.00101277        0.00151730        0.00110754
      75         -0.541682        1.000000        0.94969684        0.00195499        0.00260328        0.00035205
      76         -0.539268        1.000000        0.86926768        0.00134526        0.00083437        0.00104884
      77         -0.539144        1.000000        0.95194987        0.00027822        0.00073837        0.00058396
      78         -0.538607        1.000000        0.91759472        0.00100219        0.00091226        0.00050057
      79         -0.537411        1.000000        0.30384543        0.00079422        0.00056284        0.00115905
      80         -0.535586        1.000000        0.94570867        0.00063748        0.00032181        0.00116333
      81         -0.535208        1.000000        0.93108089        0.00084902        0.00076674        0.00155101
      82         -0.534945        1.000000        0.84559576        0.00214742        0.00105423        0.00186948
      83         -0.534229        1.000000        0.90241271        0.00150870        0.00082818        0.00129834
      84         -0.533757        1.000000        0.71404184        0.00081825        0.00088832        0.00036589
      85         -0.533266        1.000000        0.90225513        0.00146518        0.00062933        0.00041042
      86         -0.532334        1.000000        0.94665578        0.00055942        0.00084194        0.00061021
      87         -0.531972        1.000000        0.94648196        0.00042761        0.00062908        0.00062463
      88         -0.530298        1.000000        0.93055207        0.00099999        0.00058764        0.00196785
      89         -0.528398        1.000000        0.92800002        0.00023461        0.00049075        0.00091005
      90         -0.527939        1.000000        0.37945149        0.00127341        0.00261011        0.00108281
      91         -0.527320        1.000000        0.86353096        0.00024407        0.00214805        0.00068486
      92         -0.517591        1.000000        0.16681300        0.00469010        0.00020328        0.00099588
      93         -0.517123        1.000000        0.11305962        0.00135001        0.00216862        0.00113095
      94         -0.515801        1.000000        0.15993482        0.00123703        0.00070451        0.00121743
      95         -0.510507        1.000000        0.24401864        0.00384373        0.00077205        0.00207672
      96         -0.495989        1.000000        0.01173934        0.00160186        0.00016122        0.00033740
      97         -0.492596        1.000000        0.04212148        0.00107870        0.00082971        0.00237194
      98         -0.488452        1.000000        0.04466081        0.00110418        0.00353692        0.00128392
      99         -0.485800        1.000000        0.00497066        0.00115355        0.00024404        0.00011305
     100         -0.481925        1.000000        0.00876129        0.00155695        0.00109695        0.00054839
     101         -0.481809        1.000000        0.00367577        0.00165876        0.00028877        0.00078726
     102         -0.478823        1.000000        0.00641351        0.00200798        0.00070697        0.00022377
     103         -0.476800        1.000000        0.00674252        0.00097602        0.00042635        0.00205984
     104         -0.476437        1.000000        0.00349561        0.00002685        0.00092804        0.00081244
     105         -0.475873        1.000000        0.00646049        0.00243937        0.00018839        0.00076490
     106         -0.474074        1.000000        0.01582429        0.00304547        0.00130154        0.00125656
     107         -0.473238        1.000000        0.03674970        0.00063354        0.00032200        0.00575548
     108         -0.473214        1.000000        0.00764880        0.00023125        0.00183185        0.00218674
     109         -0.473166        1.000000        0.00318711        0.00131104        0.00029459        0.00042793
     110         -0.472401        1.000000        0.00294760        0.00084443        0.00086468        0.00022516
     111         -0.470432        1.000000        0.00473285        0.00200834        0.00064172        0.00065056
     112         -0.469953        1.000000        0.00402735        0.00107475        0.00028949        0.00123144
     113         -0.469896        1.000000        0.00392097        0.00072532        0.00028871        0.00276039
     114         -0.469290        1.000000        0.00099368        0.00050230        0.00024745        0.00005467
     115         -0.469220        1.000000        0.00683483        0.00154098        0.00057903        0.00257970
     116         -0.467022        1.000000        0.00055951        0.00003552        0.00009770        0.00003221
     117         -0.462347        1.000000        0.00363452        0.00048134        0.00204366        0.00031777
     118         -0.456538        1.000000        0.00316764        0.00030419        0.00007869        0.00175554
     119         -0.455749        1.000000        0.00545695        0.00207393        0.00016095        0.00173996
     120         -0.454742        1.000000        0.00052061        0.00007618        0.00019374        0.00375380
     121         -0.454710        1.000000        0.00064977        0.00047258        0.00009885        0.00016787
     122         -0.453869        1.000000        0.01258149        0.00348336        0.00214402        0.00279816
     123         -0.451767        1.000000        0.00074037        0.00000970        0.00009364        0.00055217
     124         -0.445483        1.000000        0.00011047        0.00013536        0.00003824        0.00004721
     125         -0.443415        1.000000        0.00052753        0.00013297        0.00023512        0.00057002
     126         -0.443002        1.000000        0.00015116        0.00004861        0.00025267        0.00011669
     127         -0.440650        1.000000        0.00035576        0.00012483        0.00058184        0.00040167
     128         -0.439480        1.000000        0.00016340        0.00006584        0.00017269        0.00011702
     129         -0.435181        1.000000        0.00125014        0.00080046        0.00035826        0.00055862
     130         -0.434150        1.000000        0.00023445        0.00012530        0.00006405        0.00042784
     131         -0.433505        1.000000        0.15217009        0.03962114        0.04113815        0.04051565
     132         -0.431609        1.000000        0.01601851        0.00387705        0.00430293        0.00465676
     133         -0.431454        1.000000        0.00512042        0.00311618        0.00099751        0.00235795
     134         -0.430242        1.000000        0.16514586        0.04758617        0.04185233        0.04315803
     135         -0.429021        1.000000        0.00098008        0.00065062        0.00064035        0.00020280
     136         -0.427806        1.000000        0.03928280        0.01214505        0.01250593        0.01209542
     137         -0.427483        1.000000        0.05416265        0.01274437        0.01614088        0.01536581
     138         -0.426921        1.000000        0.00936794        0.00277594        0.00163099        0.00271257
     139         -0.426205        1.000000        0.12447073        0.03498947        0.03377668        0.03057670
     140         -0.425523        1.000000        0.10227154        0.03179101        0.02959481        0.02518994
     141         -0.423444        1.000000        0.14878967        0.04776900        0.03337453        0.04096833
     142         -0.417334        1.000000        0.13895496        0.03328261        0.03893558        0.03874681
     143         -0.415020        1.000000        0.14026555        0.03265295        0.03416252        0.03639249
     144         -0.413252        1.000000        0.00008070        0.00007755        0.00002946        0.00001546
     145         -0.412644        1.000000        0.14486308        0.03321993        0.03324286        0.02775183
     146         -0.411531        1.000000        0.00162092        0.00032145        0.00036422        0.00027986
     147         -0.408616        1.000000        0.00000125        0.00000090        0.00000275        0.00000212
     148         -0.407171        1.000000        0.00187330        0.00172371        0.00019895        0.00017389
     149         -0.405189        1.000000        0.00032704        0.00006304        0.00005552        0.00005332
     150         -0.402841        1.000000        0.00000383        0.00001113        0.00000232        0.00001130
     151         -0.402527        1.000000        0.00023244        0.00028546        0.00002877        0.00039189
     152         -0.401580        1.000000        0.00356778        0.00068627        0.00220478        0.00070723
     153         -0.390412        1.000000        0.00072195        0.00076800        0.00091984        0.00045615
     154         -0.389268        1.000000        0.00267166        0.00812224        0.00495115        0.00380011
     155         -0.388154        1.000000        0.00262344        0.00144811        0.00116762        0.00482169
     156         -0.387583        1.000000        0.00126631        0.00048991        0.00115706        0.00026016
     157         -0.387096        1.000000        0.01157158        0.03872331        0.01613046        0.00370625
     158         -0.386870        1.000000        0.00174900        0.00216425        0.00092207        0.00087703
     159         -0.369068        1.000000        0.00093351        0.00195883        0.00196825        0.00051652
     160         -0.366836        1.000000        0.00080377        0.00193640        0.00212998        0.00036459
     161         -0.365696        1.000000        0.00138001        0.00539722        0.00236223        0.00116903
     162         -0.365465        1.000000        0.00115081        0.00263980        0.00017347        0.00099270
     163         -0.363608        1.000000        0.00048628        0.00126651        0.00030686        0.00091598
     164         -0.362761        1.000000        0.00093881        0.00172464        0.00157714        0.00376905
     165         -0.354355        1.000000        0.00017888        0.00102298        0.00065211        0.00038073
     166         -0.346674        1.000000        0.00076959        0.00162860        0.00210818        0.00054051
     167         -0.343276        1.000000        0.00044176        0.00090236        0.00237905        0.00047560
     168         -0.342703        1.000000        0.00056305        0.00136400        0.00090039        0.00243375
     169         -0.342190        1.000000        0.00031818        0.00067829        0.00098587        0.00276863
     170         -0.333889        1.000000        0.00047362        0.00463820        0.00371404        0.00268646
     171         -0.333444        1.000000        0.00071981        0.00335411        0.00336008        0.00094190
     172         -0.333276        1.000000        0.00387772        0.00248513        0.03115581        0.04357491
     173         -0.332672        1.000000        0.00080050        0.00268221        0.00217838        0.00351113
     174         -0.332534        1.000000        0.00256200        0.01597015        0.01503957        0.00744134
     175         -0.328639        1.000000        0.00012078        0.00061156        0.00083844        0.00030735
     176         -0.322318        1.000000        0.00033240        0.00060564        0.00090042        0.00250137
     177         -0.316135        1.000000        0.00038633        0.00027744        0.00248666        0.00495273
     178         -0.315146        1.000000        0.00008216        0.00025923        0.00162812        0.00133619
     179         -0.313380        1.000000        0.00001901        0.00001507        0.00014513        0.00090348
     180         -0.309884        1.000000        0.00031597        0.00334525        0.00208484        0.00108450
     181         -0.307536        1.000000        0.00989409        0.15879908        0.19810935        0.00954891
     182         -0.306609        1.000000        0.00077353        0.00335080        0.00276906        0.00389538
     183         -0.303845        1.000000        0.00005273        0.00131531        0.00087667        0.00041593
     184         -0.296212        1.000000        0.00000526        0.00041353        0.00012762        0.00096131
     185         -0.293174        1.000000        0.01474404        0.01049999        0.33311290        0.24104211
     186         -0.290755        1.000000        0.00027740        0.00120671        0.00250837        0.01520277
     187         -0.288050        1.000000        0.00015462        0.00470217        0.00134546        0.00015623
     188         -0.283955        1.000000        0.00025541        0.00055309        0.00181587        0.00669685
     189         -0.271099        1.000000        0.00121920        0.00794258        0.01145255        0.00969265
     190         -0.270224        1.000000        0.00060716        0.01057496        0.01377790        0.00660589
     191         -0.268551        1.000000        0.00014480        0.00066109        0.00498178        0.01097612
     192         -0.267324        1.000000        0.00001304        0.00135290        0.00033179        0.00023968
     193         -0.266304        1.000000        0.00012246        0.00349335        0.00171745        0.00037123
     194         -0.264292        1.000000        0.00031094        0.03332711        0.09183850        0.00523607
     195         -0.262429        1.000000        0.00003312        0.00039497        0.00274864        0.00143985
     196         -0.258928        1.000000        0.00068259        0.00563136        0.03650938        0.00501614
     197         -0.254445        1.000000        0.01228748        0.15862261        0.37435142        0.11847137
     198         -0.253837        1.000000        0.00004435        0.00100700        0.00095306        0.00191475
     199         -0.251896        1.000000        0.00726834        0.05413067        0.13093421        0.14734914
     200         -0.250838        1.000000        0.00713259        0.11773074        0.16837036        0.16565845
     201         -0.248713        1.000000        0.00818602        0.05573061        0.21601083        0.09282898
     202         -0.247637        1.000000        0.00626965        0.16229551        0.11452856        0.07226420
     203         -0.245868        1.000000        0.01289199        0.16359606        0.28464459        0.08103797
     204         -0.245305        1.000000        0.00507390        0.07027801        0.06421915        0.12297652
     205         -0.243717        1.000000        0.00972094        0.10614748        0.20547144        0.19090035
     206         -0.242499        1.000000        0.00595784        0.20980216        0.08177701        0.08280271
     207         -0.241990        1.000000        0.01114777        0.49030663        0.05267265        0.06667814
     208         -0.240311        1.000000        0.01097046        0.24958917        0.16279458        0.11990953
     209         -0.239560        1.000000        0.00193145        0.04602987        0.01633934        0.02903625
     210         -0.238218        1.000000        0.01173597        0.20299853        0.09040477        0.32918107
     211         -0.237330        1.000000        0.00919268        0.23593688        0.07023485        0.12901030
     212         -0.236826        1.000000        0.00440037        0.12702497        0.04518433        0.04468079
     213         -0.236517        1.000000        0.00550977        0.05327252        0.08292582        0.15041957
     214         -0.236412        1.000000        0.00231365        0.10329299        0.01828900        0.01422886
     215         -0.236132        1.000000        0.00307669        0.04782006        0.05833927        0.03577536
     216         -0.235662        1.000000        0.00132824        0.02002702        0.00787895        0.03545260
     217         -0.235106        1.000000        0.00427736        0.06899960        0.07169943        0.03858850
     218         -0.233997        1.000000        0.00837762        0.11376059        0.04979252        0.15746771
     219         -0.233512        1.000000        0.01093809        0.12658166        0.05135026        0.25534998
     220         -0.233056        1.000000        0.00188555        0.01680786        0.05142388        0.03041150
     221         -0.232690        1.000000        0.00259649        0.08929720        0.03007575        0.03105214
     222         -0.231043        1.000000        0.00822659        0.03864996        0.24893077        0.08728620
     223         -0.230536        1.000000        0.00208838        0.01110138        0.03123774        0.04457039
     224         -0.229966        1.000000        0.01142810        0.07561143        0.28886895        0.10673107
     225         -0.229510        1.000000        0.00402081        0.02280161        0.10365852        0.07474963
     226         -0.228090        1.000000        0.01412942        0.03488049        0.34398102        0.19584044
     227         -0.226978        1.000000        0.00709696        0.11785040        0.16381734        0.08726593
     228         -0.225776        1.000000        0.00529872        0.02813074        0.02784930        0.18019871
     229         -0.224411        1.000000        0.00657372        0.06834989        0.05357186        0.25734497
     230         -0.223234        1.000000        0.00740997        0.11252825        0.10035641        0.23804407
     231         -0.222310        1.000000        0.00201457        0.09586954        0.01742639        0.02726329
     232         -0.221523        1.000000        0.00001207        0.00030945        0.00043591        0.00017516
     233         -0.220919        1.000000        0.00703924        0.19605014        0.21190920        0.23354374
     234         -0.219539        1.000000        0.00161561        0.02056187        0.03724326        0.06495468
     235         -0.218723        1.000000        0.00719090        0.12417601        0.07518609        0.13872401
     236         -0.218005        1.000000        0.00821640        0.14247407        0.21525765        0.12448584
     237         -0.217386        1.000000        0.01398794        0.17687455        0.14809892        0.28265290
     238         -0.216450        1.000000        0.00417612        0.34159940        0.11973572        0.09727314
     239         -0.215963        1.000000        0.00947924        0.03584429        0.21272646        0.20203258
     240         -0.215505        1.000000        0.00403567        0.04429824        0.09787256        0.14417933
     241         -0.215351        1.000000        0.00016330        0.00450772        0.00453212        0.00422225
     242         -0.214903        1.000000        0.00476251        0.15262594        0.10674265        0.06640888
     243         -0.214359        1.000000        0.01389872        0.31976870        0.24844431        0.06526181
     244         -0.212108        1.000000        0.00988376        0.06738833        0.16035396        0.22424782
     245         -0.211535        1.000000        0.00842707        0.04159377        0.11035370        0.27373356
     246         -0.210952        1.000000        0.00080566        0.01343228        0.00817943        0.01101127
     247         -0.209490        1.000000        0.01096551        0.37568767        0.16121142        0.07844071
     248         -0.208598        1.000000        0.00591340        0.14467298        0.10097927        0.08670196
     249         -0.207889        1.000000        0.00649128        0.20642987        0.17082711        0.15930672
     250         -0.207148        1.000000        0.00760663        0.22215919        0.13507187        0.12503411
     251         -0.206507        1.000000        0.00526008        0.10189057        0.10893673        0.06790879
     252         -0.205786        1.000000        0.00201032        0.16766065        0.11637193        0.19341953
     253         -0.205257        1.000000        0.00880313        0.31168369        0.13316704        0.08215499
     254         -0.204845        1.000000        0.00512190        0.11699781        0.11584109        0.25982872
     255         -0.204181        1.000000        0.00217178        0.06130815        0.02745167        0.06317541
     256         -0.203944        1.000000        0.00212192        0.07347977        0.02655132        0.08534281
     257         -0.202801        1.000000        0.00334974        0.10142035        0.03403214        0.05004351
     258         -0.201034        1.000000        0.00467396        0.48283980        0.27225430        0.09139517
     259         -0.200326        1.000000        0.00690447        0.18872951        0.14257429        0.21571198