# Projected DOS for atomic kind N at iteration step i = 0, E(Fermi) =    -0.147857 a.u.
#     MO Eigenvalue [a.u.]      Occupation                 s                py                pz                px
       1         -0.933210        1.000000        0.00034386        0.00002432        0.00000789        0.00000581
       2         -0.927480        1.000000        0.00000005        0.00000000        0.00000000        0.00000000
       3         -0.918407        1.000000        0.00000000        0.00000000        0.00000000        0.00000000
       4         -0.915289        1.000000        0.00032409        0.00002454        0.00000033        0.00000536
       5         -0.914663        1.000000        0.00007080        0.00000023        0.00000052        0.00000019
       6         -0.914597        1.000000        0.61291474        0.00000030        0.00007142        0.00025001
       7         -0.912466        1.000000        0.00000000        0.00000000        0.00000000        0.00000000
       8         -0.911133        1.000000        0.00125874        0.00000016        0.00000003        0.00000296
       9         -0.910969        1.000000        0.00000024        0.00000000        0.00000000        0.00000000
      10         -0.910401        1.000000        0.00003741        0.00000120        0.00000026        0.00000098
      11         -0.908647        1.000000        0.00000001        0.00000000        0.00000000        0.00000000
      12         -0.906332        1.000000        0.00000195        0.00000008        0.00000033        0.00000012
      13         -0.901773        1.000000        0.00000000        0.00000000        0.00000000        0.00000000
      14         -0.900397        1.000000        0.61111928        0.00000177        0.00010585        0.00000604
      15         -0.898737        1.000000        0.61111072        0.00000193        0.00014776        0.00001920
      16         -0.897086        1.000000        0.00000004        0.00000000        0.00000000        0.00000000
      17         -0.894686        1.000000        0.00011205        0.00000220        0.00000331        0.00000005
      18         -0.889914        1.000000        0.05367989        0.00034600        0.00009534        0.00015665
      19         -0.886748        1.000000        0.00146337        0.00003660        0.00000502        0.00000029
      20         -0.884074        1.000000        0.00000000        0.00000000        0.00000000        0.00000000
      21         -0.879924        1.000000        0.02121528        0.00007423        0.00002239        0.00010704
      22         -0.879380        1.000000        0.00000022        0.00000002        0.00000001        0.00000000
      23         -0.877922        1.000000        0.00000000        0.00000000        0.00000000        0.00000000
      24         -0.873064        1.000000        0.00000005        0.00000001        0.00000000        0.00000000
      25         -0.870941        1.000000        0.08268507        0.00030693        0.00001584        0.00005916
      26         -0.869833        1.000000        0.00007317        0.00000075        0.00000001        0.00000758
      27         -0.867188        1.000000        0.03726625        0.00007809        0.00010781        0.00000368
      28         -0.864884        1.000000        0.00000186        0.00000000        0.00000000        0.00000001
      29         -0.864728        1.000000        0.00004208        0.00000021        0.00000410        0.00000010
      30         -0.860576        1.000000        0.19181411        0.00006925        0.00000052        0.00001465
      31         -0.857628        1.000000        0.54857357        0.00247098        0.00043350        0.00007467
      32         -0.855406        1.000000        0.00000023        0.00000000        0.00000000        0.00000000
      33         -0.849923        1.000000        0.00000000        0.00000000        0.00000000        0.00000000
      34         -0.848779        1.000000        0.23056856        0.00003168        0.00020602        0.00000130
      35         -0.845158        1.000000        0.00000000        0.00000000        0.00000000        0.00000000
      36         -0.843940        1.000000        0.00000001        0.00000000        0.00000000        0.00000000
      37         -0.843860        1.000000        0.00000000        0.00000000        0.00000000        0.00000000
      38         -0.842321        1.000000        0.00272315        0.00003492        0.00000575        0.00000707
      39         -0.841171        1.000000        0.38424628        0.00380507        0.00057819        0.00128763
      40         -0.840185        1.000000        0.51118638        0.00447755        0.00006123        0.00075088
      41         -0.838879        1.000000        0.00000060        0.00000000        0.00000001        0.00000002
      42         -0.837238        1.000000        0.00000000        0.00000016        0.00000018        0.00000001
      43         -0.833572        1.000000        0.00000004        0.00000001        0.00000000        0.00000002
      44         -0.830972        1.000000        0.32627094        0.00148949        0.00440381        0.00001916
      45         -0.825578        1.000000        0.00000484        0.00000047        0.00000247        0.00000025
      46         -0.822145        1.000000        0.00000000        0.00000000        0.00000000        0.00000000
      47         -0.652310        1.000000        0.01533479        0.01387456        0.01813577        0.16933827
      48         -0.648047        1.000000        0.01871490        0.00001026        0.07830889        0.11194889
      49         -0.647158        1.000000        0.01759979        0.00000896        0.04832272        0.14349557
      50         -0.622363        1.000000        0.02343942        0.00018088        0.00183754        0.16777396
      51         -0.612261        1.000000        0.02528537        0.02734729        0.01498033        0.12278372
      52         -0.611039        1.000000        0.02711213        0.00318195        0.07879148        0.07819988
      53         -0.609915        1.000000        0.02934520        0.00197695        0.00337684        0.15420947
      54         -0.599358        1.000000        0.00014973        0.00402081        0.00010772        0.00023901
      55         -0.596124        1.000000        0.00035838        0.00010244        0.00144809        0.00127055
      56         -0.569681        1.000000        0.00021899        0.00584182        0.01062595        0.00319014
      57         -0.567384        1.000000        0.00003842        0.00055291        0.00344267        0.00118422
      58         -0.564819        1.000000        0.00001841        0.00041168        0.00938937        0.00109212
      59         -0.559375        1.000000        0.00016353        0.01383092        0.02867341        0.00882740
      60         -0.558057        1.000000        0.00046698        0.02990511        0.00872815        0.00261778
      61         -0.557231        1.000000        0.00063337        0.00379783        0.00233856        0.00026423
      62         -0.556732        1.000000        0.00033051        0.02224210        0.01201826        0.00588471
      63         -0.555653        1.000000        0.00028686        0.00615216        0.00936125        0.00089358
      64         -0.553950        1.000000        0.00029933        0.00616344        0.01208113        0.00312367
      65         -0.551248        1.000000        0.00018733        0.01766085        0.00657089        0.00048853
      66         -0.549237        1.000000        0.00017970        0.01457437        0.00228106        0.00096819
      67         -0.548284        1.000000        0.00013737        0.00368487        0.00191366        0.00037678
      68         -0.547662        1.000000        0.00010999        0.01529358        0.00256428        0.00023804
      69         -0.547290        1.000000        0.00014095        0.00593362        0.00274415        0.00065126
      70         -0.546296        1.000000        0.00002703        0.03985968        0.00594432        0.00204619
      71         -0.545809        1.000000        0.00003868        0.02312641        0.00316201        0.00132163
      72         -0.544172        1.000000        0.00032438        0.02276117        0.01937238        0.00587639
      73         -0.542457        1.000000        0.00000555        0.00026152        0.00011157        0.00011229
      74         -0.541672        1.000000        0.00052214        0.00502312        0.00262465        0.00089406
      75         -0.541372        1.000000        0.00035093        0.02904551        0.00187167        0.00060099
      76         -0.538969        1.000000        0.00006067        0.00317923        0.01302361        0.00584068
      77         -0.538405        1.000000        0.00011202        0.00540116        0.02517535        0.01417115
      78         -0.536842        1.000000        0.00010877        0.33772469        0.17902151        0.00047815
      79         -0.535455        1.000000        0.00021179        0.02610353        0.02075236        0.00882533
      80         -0.535246        1.000000        0.00015645        0.01431288        0.02404411        0.00621349
      81         -0.534645        1.000000        0.00013347        0.00330934        0.00302303        0.00063966
      82         -0.534216        1.000000        0.00012358        0.00118473        0.00072544        0.00046222
      83         -0.533366        1.000000        0.00004456        0.00461680        0.00151434        0.00047878
      84         -0.531588        1.000000        0.00007107        0.00590033        0.01331637        0.00902569
      85         -0.531166        1.000000        0.00032966        0.00506237        0.00357495        0.00084683
      86         -0.530799        1.000000        0.00013202        0.00180715        0.00783101        0.00100494
      87         -0.529468        1.000000        0.00000420        0.02559425        0.00514476        0.00123771
      88         -0.529108        1.000000        0.00049320        0.00033167        0.01001761        0.00079132
      89         -0.527824        1.000000        0.00056554        0.10420900        0.19138273        0.06623554
      90         -0.526711        1.000000        0.00002424        0.00090697        0.00112307        0.00076586
      91         -0.526491        1.000000        0.00013729        0.01219867        0.04150028        0.01345983
      92         -0.517561        1.000000        0.00007026        0.48572502        0.01199393        0.00320059
      93         -0.517003        1.000000        0.00041733        0.01348166        0.36667978        0.14418647
      94         -0.515682        1.000000        0.00046783        0.00499122        0.33388807        0.15657880
      95         -0.510532        1.000000        0.00002146        0.43827152        0.00699858        0.00618200
      96         -0.495939        1.000000        0.00000455        0.00066005        0.00046292        0.00000016
      97         -0.492347        1.000000        0.00000046        0.00005295        0.00009319        0.00001436
      98         -0.488464        1.000000        0.00000562        0.01006551        0.51523635        0.00553478
      99         -0.485771        1.000000        0.00066417        0.49372505        0.00277807        0.00204683
     100         -0.481873        1.000000        0.00005748        0.00159147        0.48824321        0.08066458
     101         -0.481853        1.000000        0.00000003        0.00000198        0.00011915        0.00002028
     102         -0.478791        1.000000        0.00000159        0.01010312        0.04947250        0.04401222
     103         -0.476727        1.000000        0.00000005        0.00000831        0.00000492        0.00000301
     104         -0.476429        1.000000        0.00000039        0.00000576        0.00004448        0.00001243
     105         -0.475834        1.000000        0.00001573        0.01311314        0.22736841        0.20572961
     106         -0.474018        1.000000        0.00002231        0.48560017        0.05906745        0.00316100
     107         -0.473222        1.000000        0.00001988        0.00083294        0.00033150        0.00203859
     108         -0.473153        1.000000        0.00000010        0.00009153        0.00003514        0.00000471
     109         -0.473144        1.000000        0.00000009        0.00000121        0.00000447        0.00000313
     110         -0.472368        1.000000        0.00147977        0.40227112        0.01106020        0.03944753
     111         -0.470384        1.000000        0.00135726        0.39878858        0.01216326        0.01766694
     112         -0.469901        1.000000        0.00001289        0.00239817        0.00008570        0.00017348
     113         -0.469845        1.000000        0.00000419        0.00192265        0.00146928        0.00001094
     114         -0.469278        1.000000        0.00000130        0.00064458        0.00002768        0.00000882
     115         -0.469153        1.000000        0.00000068        0.00014250        0.00001470        0.00001422
     116         -0.466985        1.000000        0.00000839        0.00254220        0.01231955        0.00044937
     117         -0.462309        1.000000        0.00183720        0.02742091        0.38853497        0.03747664
     118         -0.456511        1.000000        0.00000084        0.00003307        0.00001298        0.00001243
     119         -0.455715        1.000000        0.00000003        0.00000025        0.00001136        0.00000237
     120         -0.454708        1.000000        0.00000253        0.00031325        0.00002697        0.00004166
     121         -0.454685        1.000000        0.00032430        0.04113309        0.00413650        0.00337679
     122         -0.453834        1.000000        0.00000910        0.00003019        0.00320974        0.00020468
     123         -0.451728        1.000000        0.00002140        0.00082844        0.00014584        0.00000071
     124         -0.445444        1.000000        0.00005474        0.00547185        0.00028321        0.00031248
     125         -0.443410        1.000000        0.00094090        0.00586653        0.00409359        0.04708805
     126         -0.442887        1.000000        0.00000007        0.00000036        0.00000084        0.00000376
     127         -0.440594        1.000000        0.00057090        0.00984011        0.00121802        0.00079336
     128         -0.439488        1.000000        0.00010684        0.00004845        0.00365531        0.00237590
     129         -0.435293        1.000000        0.00000077        0.00001311        0.00000583        0.00006412
     130         -0.435159        1.000000        0.00001476        0.00189059        0.00003035        0.00023967
     131         -0.433244        1.000000        0.00107340        0.00196261        0.00223800        0.03029616
     132         -0.431732        1.000000        0.00400709        0.01600993        0.02671347        0.15811928
     133         -0.431450        1.000000        0.00030774        0.00032601        0.00348669        0.00625616
     134         -0.431223        1.000000        0.00276298        0.01013185        0.01659874        0.10945769
     135         -0.429001        1.000000        0.00002516        0.00254767        0.00047177        0.00007048
     136         -0.427590        1.000000        0.00758863        0.00045570        0.13860418        0.25502765
     137         -0.427205        1.000000        0.00630880        0.00031786        0.07721577        0.24449265
     138         -0.426868        1.000000        0.00003326        0.00001625        0.00055846        0.00148238
     139         -0.425713        1.000000        0.00147902        0.00027071        0.01588985        0.05123141
     140         -0.424632        1.000000        0.00107718        0.00035872        0.01295197        0.04577323
     141         -0.422239        1.000000        0.00010878        0.00054097        0.00245409        0.00533368
     142         -0.416783        1.000000        0.00010495        0.00030735        0.00133678        0.00299609
     143         -0.415147        1.000000        0.00008514        0.00009041        0.00123146        0.00502297
     144         -0.412728        1.000000        0.00001070        0.00000028        0.00013762        0.00004850
     145         -0.412116        1.000000        0.00017156        0.00011165        0.00100311        0.00453699
     146         -0.411427        1.000000        0.00011263        0.00042932        0.00272581        0.00310634
     147         -0.408607        1.000000        0.00000000        0.00000000        0.00000003        0.00000005
     148         -0.408036        1.000000        0.00000882        0.00005802        0.00001271        0.00006385
     149         -0.404541        1.000000        0.00000724        0.00000009        0.00002631        0.00187581
     150         -0.402796        1.000000        0.00000000        0.00000001        0.00000000        0.00000012
     151         -0.402536        1.000000        0.00000019        0.00000005        0.00000022        0.00000794
     152         -0.401556        1.000000        0.00968899        0.00000978        0.00771131        0.41108326
     153         -0.390389        1.000000        0.00885242        0.06618247        0.04766629        0.30206149
     154         -0.389239        1.000000        0.00700435        0.00343262        0.17737489        0.18524525
     155         -0.389089        1.000000        0.00001770        0.00008602        0.00010134        0.00058530
     156         -0.388133        1.000000        0.00001272        0.00007901        0.00005496        0.00043311
     157         -0.387104        1.000000        0.00105226        0.00046534        0.02516104        0.02551220
     158         -0.386843        1.000000        0.00762515        0.00689020        0.01644664        0.39623329
     159         -0.369031        1.000000        0.00002734        0.00007449        0.02891212        0.00523977
     160         -0.366825        1.000000        0.00000085        0.03106396        0.00060469        0.00181360
     161         -0.365662        1.000000        0.00000063        0.04097146        0.00013645        0.00008544
     162         -0.365435        1.000000        0.00000507        0.03857781        0.00464544        0.00194898
     163         -0.363581        1.000000        0.00001310        0.00587115        0.02178885        0.01399926
     164         -0.362747        1.000000        0.00000668        0.00016237        0.03195551        0.01038413
     165         -0.354303        1.000000        0.00125223        0.00013078        0.00006456        0.01499594
     166         -0.346624        1.000000        0.00090588        0.00299104        0.00116711        0.01502977
     167         -0.343264        1.000000        0.00000342        0.01153645        0.03781448        0.00068465
     168         -0.342671        1.000000        0.00071862        0.00038066        0.00081272        0.01604624
     169         -0.342163        1.000000        0.00066346        0.00303826        0.00672308        0.00767707
     170         -0.333861        1.000000        0.00000190        0.00146689        0.02965697        0.02153081
     171         -0.333412        1.000000        0.00002324        0.00014194        0.04280589        0.00545971
     172         -0.333247        1.000000        0.00000211        0.00107556        0.00045649        0.00001543
     173         -0.332645        1.000000        0.00000469        0.03803575        0.01603599        0.00040765
     174         -0.332501        1.000000        0.00000209        0.00011637        0.00128057        0.00135910
     175         -0.328601        1.000000        0.00112981        0.04288933        0.01070894        0.00154536
     176         -0.322271        1.000000        0.00062814        0.02356612        0.00094368        0.00598204
     177         -0.316175        1.000000        0.00000010        0.00000008        0.00001983        0.00000144
     178         -0.315056        1.000000        0.00000002        0.00000037        0.00000205        0.00000130
     179         -0.313997        1.000000        0.00000050        0.00001416        0.00000510        0.00001781
     180         -0.309872        1.000000        0.00097718        0.02902321        0.00020603        0.00472394
     181         -0.307402        1.000000        0.00000811        0.00011139        0.00003641        0.00044565
     182         -0.306586        1.000000        0.00140703        0.01088920        0.02921116        0.00008464
     183         -0.303819        1.000000        0.00000005        0.00000157        0.00000149        0.00000036
     184         -0.296003        1.000000        0.00000016        0.00000049        0.00000147        0.00000035
     185         -0.293157        1.000000        0.00002307        0.00011201        0.00001244        0.00004777
     186         -0.290720        1.000000        0.00000123        0.00000057        0.00000289        0.00000420
     187         -0.288486        1.000000        0.00000888        0.00002409        0.00002283        0.00002025
     188         -0.283885        1.000000        0.00573250        0.06089711        0.00796353        0.02764591
     189         -0.271068        1.000000        0.00597494        0.02180705        0.06950446        0.00000833
     190         -0.270646        1.000000        0.00023116        0.00104476        0.00030184        0.00024696
     191         -0.268533        1.000000        0.00002031        0.00001637        0.00001803        0.00007448
     192         -0.267295        1.000000        0.00003280        0.00056909        0.00002347        0.00006638
     193         -0.266277        1.000000        0.01118650        0.09998885        0.01931785        0.01144473
     194         -0.264134        1.000000        0.00001393        0.00003003        0.00000726        0.00002326
     195         -0.261932        1.000000        0.00000060        0.00000326        0.00000958        0.00000042
     196         -0.258603        1.000000        0.00000043        0.00000150        0.00000594        0.00000140
     197         -0.253815        1.000000        0.00098049        0.00691790        0.00136379        0.00094300
     198         -0.253180        1.000000        0.00066910        0.00251490        0.00035711        0.00041401
     199         -0.251846        1.000000        0.00180981        0.00851280        0.00089506        0.00201988
     200         -0.250790        1.000000        0.00090577        0.00473905        0.00056834        0.00133915
     201         -0.248438        1.000000        0.00000628        0.00009758        0.00004480        0.00005237
     202         -0.247757        1.000000        0.00422581        0.03173961        0.00099612        0.00630262
     203         -0.245818        1.000000        0.00001502        0.00024529        0.00011828        0.00004155
     204         -0.245130        1.000000        0.00638944        0.06344472        0.00080316        0.00961208
     205         -0.244923        1.000000        0.00370671        0.03694371        0.00093644        0.00610249
     206         -0.241962        1.000000        0.00031275        0.00397525        0.00011488        0.00065765
     207         -0.240518        1.000000        0.00013363        0.00218391        0.00037190        0.00045659
     208         -0.240420        1.000000        0.00007115        0.00336810        0.00008730        0.00020814
     209         -0.239952        1.000000        0.00000786        0.00014647        0.00006637        0.00002827
     210         -0.237520        1.000000        0.00011781        0.00119800        0.00064892        0.00029409
     211         -0.237115        1.000000        0.00107322        0.00503997        0.00236561        0.00163011
     212         -0.236829        1.000000        0.00268223        0.01495706        0.00272018        0.00753914
     213         -0.236560        1.000000        0.00019535        0.00088873        0.00020772        0.00045918
     214         -0.236259        1.000000        0.00013642        0.00063413        0.00019986        0.00036225
     215         -0.236043        1.000000        0.00032943        0.00094095        0.00065481        0.00027772
     216         -0.235533        1.000000        0.00119233        0.00902039        0.00039227        0.00192444
     217         -0.235090        1.000000        0.00006937        0.00042303        0.00013191        0.00007643
     218         -0.233900        1.000000        0.00002721        0.00030269        0.00007784        0.00003394
     219         -0.233276        1.000000        0.00017581        0.00063689        0.00083241        0.00016425
     220         -0.232827        1.000000        0.00016262        0.00086513        0.00033050        0.00033087
     221         -0.231853        1.000000        0.00018905        0.00220845        0.00026924        0.00031083
     222         -0.231551        1.000000        0.00014267        0.00032576        0.00197125        0.00002780
     223         -0.230437        1.000000        0.00052979        0.00137288        0.00629466        0.00010107
     224         -0.230191        1.000000        0.00011975        0.00051460        0.00036443        0.00016780
     225         -0.229598        1.000000        0.00470666        0.01113083        0.03162708        0.00008081
     226         -0.228202        1.000000        0.00005566        0.00039867        0.00041830        0.00007177
     227         -0.227566        1.000000        0.00052391        0.00107840        0.00284508        0.00007231
     228         -0.225378        1.000000        0.00782765        0.04086385        0.00650505        0.02049275
     229         -0.223679        1.000000        0.00041759        0.00297098        0.00089344        0.00166133
     230         -0.222533        1.000000        0.00027512        0.00157717        0.00048030        0.00088681
     231         -0.221935        1.000000        0.00090548        0.00348304        0.00149510        0.00134035
     232         -0.221612        1.000000        0.00044554        0.00173541        0.00052381        0.00096430
     233         -0.221513        1.000000        0.00000176        0.00000450        0.00000099        0.00000317
     234         -0.219732        1.000000        0.00003421        0.00017732        0.00011480        0.00004671
     235         -0.218474        1.000000        0.00043882        0.00097195        0.00062746        0.00040091
     236         -0.218277        1.000000        0.00015114        0.00036396        0.00023390        0.00012592
     237         -0.216704        1.000000        0.00051948        0.00130326        0.00228481        0.00033843
     238         -0.216358        1.000000        0.00028303        0.00029185        0.00030239        0.00028037
     239         -0.216154        1.000000        0.00058025        0.00147387        0.00240289        0.00035535
     240         -0.215904        1.000000        0.00025476        0.00036413        0.00147583        0.00012500
     241         -0.215303        1.000000        0.00000716        0.00001546        0.00002138        0.00001009
     242         -0.214886        1.000000        0.00017676        0.00020285        0.00012703        0.00019064
     243         -0.213807        1.000000        0.00016390        0.00020899        0.00070851        0.00040930
     244         -0.212654        1.000000        0.00011668        0.00011433        0.00020629        0.00010512
     245         -0.211146        1.000000        0.00037139        0.00183512        0.00041166        0.00046512
     246         -0.210241        1.000000        0.00004542        0.00017278        0.00013006        0.00002057
     247         -0.208730        1.000000        0.00024226        0.00113443        0.00046123        0.00021042
     248         -0.208500        1.000000        0.00444943        0.00736610        0.02104173        0.00038453
     249         -0.207161        1.000000        0.00152384        0.00232300        0.00816601        0.00016474
     250         -0.206147        1.000000        0.00018312        0.00109966        0.00079274        0.00007137
     251         -0.206054        1.000000        0.00037878        0.00095587        0.00079069        0.00073950
     252         -0.204956        1.000000        0.00017995        0.00136350        0.00014465        0.00007132
     253         -0.204359        1.000000        0.00015348        0.00089627        0.00061045        0.00007849
     254         -0.204125        1.000000        0.00010815        0.00065434        0.00030857        0.00007919
     255         -0.203892        1.000000        0.00005529        0.00067696        0.00031165        0.00012370
     256         -0.203453        1.000000        0.00013329        0.00017035        0.00012334        0.00015562
     257         -0.202584        1.000000        0.00072733        0.00318580        0.00121179        0.00053936
     258         -0.200762        1.000000        0.00566305        0.00527154        0.00236813        0.00323222
     259         -0.200337        1.000000        0.00029507        0.00015816        0.00080235        0.00021169