# Projected DOS for atomic kind H at iteration step i = 0, E(Fermi) =    -0.144138 a.u.
#     MO Eigenvalue [a.u.]      Occupation                 s
       1         -0.933235        1.000000        0.25528779
       2         -0.927486        1.000000        0.26078511
       3         -0.918328        1.000000        0.25451727
       4         -0.915292        1.000000        0.25452754
       5         -0.914672        1.000000        0.25375400
       6         -0.914622        1.000000        0.28279061
       7         -0.912474        1.000000        0.25342846
       8         -0.911113        1.000000        0.25437861
       9         -0.911000        1.000000        0.25658468
      10         -0.910432        1.000000        0.25700083
      11         -0.908659        1.000000        0.25386129
      12         -0.906363        1.000000        0.25389305
      13         -0.901797        1.000000        0.25469221
      14         -0.900407        1.000000        0.28066163
      15         -0.898744        1.000000        0.27841662
      16         -0.897061        1.000000        0.25390150
      17         -0.894699        1.000000        0.26026770
      18         -0.889951        1.000000        0.25090564
      19         -0.886765        1.000000        0.25604304
      20         -0.884450        1.000000        0.25524365
      21         -0.880053        1.000000        0.26078474
      22         -0.879398        1.000000        0.21704956
      23         -0.877932        1.000000        0.21541892
      24         -0.873004        1.000000        0.25495718
      25         -0.870949        1.000000        0.25254424
      26         -0.869857        1.000000        0.24988507
      27         -0.867209        1.000000        0.26259298
      28         -0.864927        1.000000        0.25057703
      29         -0.860863        1.000000        0.23674937
      30         -0.860719        1.000000        0.24829874
      31         -0.857646        1.000000        0.26190041
      32         -0.855446        1.000000        0.23559307
      33         -0.849928        1.000000        0.25787324
      34         -0.848803        1.000000        0.24885584
      35         -0.845145        1.000000        0.25742571
      36         -0.843897        1.000000        0.25767307
      37         -0.843894        1.000000        0.14975853
      38         -0.843787        1.000000        0.24492992
      39         -0.841308        1.000000        0.23826469
      40         -0.840216        1.000000        0.25326130
      41         -0.837542        1.000000        0.23443391
      42         -0.835820        1.000000        0.23146942
      43         -0.831510        1.000000        0.25646443
      44         -0.830998        1.000000        0.23006192
      45         -0.829165        1.000000        0.23607041
      46         -0.818072        1.000000        0.23987357
      47         -0.652338        1.000000        0.33996888
      48         -0.648067        1.000000        0.34874411
      49         -0.647174        1.000000        0.34763588
      50         -0.622393        1.000000        0.36203505
      51         -0.612288        1.000000        0.36552231
      52         -0.611095        1.000000        0.36262775
      53         -0.609943        1.000000        0.37129885
      54         -0.599361        1.000000        0.00440765
      55         -0.597035        1.000000        0.01063987
      56         -0.570757        1.000000        0.00908416
      57         -0.568331        1.000000        0.01608380
      58         -0.564542        1.000000        0.00209090
      59         -0.560707        1.000000        0.01203198
      60         -0.558764        1.000000        0.04080275
      61         -0.557644        1.000000        0.01231464
      62         -0.557446        1.000000        0.03511956
      63         -0.555277        1.000000        0.01389465
      64         -0.554459        1.000000        0.01419498
      65         -0.551288        1.000000        0.01931695
      66         -0.550474        1.000000        0.01024071
      67         -0.549410        1.000000        0.00715184
      68         -0.547077        1.000000        0.01620655
      69         -0.546932        1.000000        0.02652657
      70         -0.546531        1.000000        0.02932161
      71         -0.544984        1.000000        0.00395199
      72         -0.544276        1.000000        0.03475079
      73         -0.542701        1.000000        0.02087034
      74         -0.542212        1.000000        0.01335272
      75         -0.541682        1.000000        0.00255517
      76         -0.539268        1.000000        0.03254159
      77         -0.539144        1.000000        0.00498927
      78         -0.538607        1.000000        0.01919148
      79         -0.537411        1.000000        0.22551881
      80         -0.535586        1.000000        0.00755592
      81         -0.535208        1.000000        0.00928564
      82         -0.534945        1.000000        0.03825353
      83         -0.534229        1.000000        0.02254485
      84         -0.533757        1.000000        0.09068975
      85         -0.533266        1.000000        0.02428436
      86         -0.532334        1.000000        0.00850050
      87         -0.531972        1.000000        0.01016695
      88         -0.530298        1.000000        0.01041890
      89         -0.528398        1.000000        0.01597025
      90         -0.527939        1.000000        0.18897119
      91         -0.527320        1.000000        0.03318618
      92         -0.517591        1.000000        0.26313382
      93         -0.517123        1.000000        0.28209626
      94         -0.515801        1.000000        0.26638536
      95         -0.510507        1.000000        0.22836867
      96         -0.495989        1.000000        0.34986919
      97         -0.492596        1.000000        0.33358527
      98         -0.488452        1.000000        0.31366753
      99         -0.485800        1.000000        0.32342223
     100         -0.481925        1.000000        0.33535540
     101         -0.481809        1.000000        0.35632645
     102         -0.478823        1.000000        0.34725187
     103         -0.476800        1.000000        0.34186850
     104         -0.476437        1.000000        0.35570917
     105         -0.475873        1.000000        0.33834365
     106         -0.474074        1.000000        0.32971310
     107         -0.473238        1.000000        0.33481575
     108         -0.473214        1.000000        0.35200717
     109         -0.473166        1.000000        0.35084650
     110         -0.472401        1.000000        0.32233383
     111         -0.470432        1.000000        0.32030858
     112         -0.469953        1.000000        0.35162670
     113         -0.469896        1.000000        0.35770974
     114         -0.469290        1.000000        0.35709146
     115         -0.469220        1.000000        0.33018998
     116         -0.467022        1.000000        0.34606152
     117         -0.462347        1.000000        0.31988733
     118         -0.456538        1.000000        0.35663178
     119         -0.455749        1.000000        0.34175775
     120         -0.454742        1.000000        0.32824508
     121         -0.454710        1.000000        0.34931898
     122         -0.453869        1.000000        0.34560038
     123         -0.451767        1.000000        0.34660822
     124         -0.445483        1.000000        0.36270328
     125         -0.443415        1.000000        0.32636917
     126         -0.443002        1.000000        0.36790442
     127         -0.440650        1.000000        0.34188466
     128         -0.439480        1.000000        0.34637311
     129         -0.435181        1.000000        0.34310832
     130         -0.434150        1.000000        0.35062648
     131         -0.433505        1.000000        0.02469378
     132         -0.431609        1.000000        0.18976953
     133         -0.431454        1.000000        0.35139863
     134         -0.430242        1.000000        0.00414470
     135         -0.429021        1.000000        0.34778438
     136         -0.427806        1.000000        0.13680939
     137         -0.427483        1.000000        0.12210872
     138         -0.426921        1.000000        0.33236084
     139         -0.426205        1.000000        0.04580259
     140         -0.425523        1.000000        0.06384957
     141         -0.423444        1.000000        0.00918651
     142         -0.417334        1.000000        0.00327723
     143         -0.415020        1.000000        0.00419547
     144         -0.413252        1.000000        0.35402252
     145         -0.412644        1.000000        0.00719900
     146         -0.411531        1.000000        0.35084220
     147         -0.408616        1.000000        0.37132865
     148         -0.407171        1.000000        0.34595927
     149         -0.405189        1.000000        0.35441908
     150         -0.402841        1.000000        0.37139925
     151         -0.402527        1.000000        0.36979213
     152         -0.401580        1.000000        0.17430443
     153         -0.390412        1.000000        0.17693066
     154         -0.389268        1.000000        0.17240640
     155         -0.388154        1.000000        0.36439909
     156         -0.387583        1.000000        0.35084822
     157         -0.387096        1.000000        0.17098498
     158         -0.386870        1.000000        0.17514458
     159         -0.369068        1.000000        0.41971066
     160         -0.366836        1.000000        0.41839188
     161         -0.365696        1.000000        0.42409658
     162         -0.365465        1.000000        0.42569457
     163         -0.363608        1.000000        0.42275994
     164         -0.362761        1.000000        0.42245872
     165         -0.354355        1.000000        0.31329493
     166         -0.346674        1.000000        0.33940445
     167         -0.343276        1.000000        0.42912029
     168         -0.342703        1.000000        0.36859417
     169         -0.342190        1.000000        0.36054562
     170         -0.333889        1.000000        0.41523826
     171         -0.333444        1.000000        0.42626039
     172         -0.333276        1.000000        0.12103793
     173         -0.332672        1.000000        0.42284961
     174         -0.332534        1.000000        0.13120747
     175         -0.328639        1.000000        0.18896248
     176         -0.322318        1.000000        0.16877864
     177         -0.316135        1.000000        0.11485273
     178         -0.315146        1.000000        0.11494803
     179         -0.313380        1.000000        0.10543767
     180         -0.309884        1.000000        0.13258093
     181         -0.307536        1.000000        0.03018636
     182         -0.306609        1.000000        0.15019550
     183         -0.303845        1.000000        0.10642102
     184         -0.296212        1.000000        0.10156648
     185         -0.293174        1.000000        0.01719937
     186         -0.290755        1.000000        0.07512361
     187         -0.288050        1.000000        0.10820427
     188         -0.283955        1.000000        0.11492897
     189         -0.271099        1.000000        0.10568093
     190         -0.270224        1.000000        0.10809397
     191         -0.268551        1.000000        0.08877581
     192         -0.267324        1.000000        0.08053367
     193         -0.266304        1.000000        0.07702269
     194         -0.264292        1.000000        0.04350135
     195         -0.262429        1.000000        0.08960188
     196         -0.258928        1.000000        0.06943923
     197         -0.254445        1.000000        0.00604448
     198         -0.253837        1.000000        0.00257213
     199         -0.251896        1.000000        0.02907123
     200         -0.250838        1.000000        0.01770026
     201         -0.248713        1.000000        0.01370111
     202         -0.247637        1.000000        0.00623487
     203         -0.245868        1.000000        0.00662169
     204         -0.245305        1.000000        0.04872473
     205         -0.243717        1.000000        0.00415660
     206         -0.242499        1.000000        0.00622860
     207         -0.241990        1.000000        0.00456855
     208         -0.240311        1.000000        0.00130462
     209         -0.239560        1.000000        0.01702248
     210         -0.238218        1.000000        0.00265719
     211         -0.237330        1.000000        0.01057316
     212         -0.236826        1.000000        0.01901317
     213         -0.236517        1.000000        0.00856741
     214         -0.236412        1.000000        0.02224425
     215         -0.236132        1.000000        0.00424376
     216         -0.235662        1.000000        0.00313918
     217         -0.235106        1.000000        0.00532919
     218         -0.233997        1.000000        0.00640547
     219         -0.233512        1.000000        0.00546977
     220         -0.233056        1.000000        0.00772481
     221         -0.232690        1.000000        0.02467107
     222         -0.231043        1.000000        0.01491543
     223         -0.230536        1.000000        0.01383008
     224         -0.229966        1.000000        0.01115466
     225         -0.229510        1.000000        0.02975054
     226         -0.228090        1.000000        0.00394382
     227         -0.226978        1.000000        0.01604674
     228         -0.225776        1.000000        0.01844167
     229         -0.224411        1.000000        0.01150993
     230         -0.223234        1.000000        0.00289012
     231         -0.222310        1.000000        0.00262972
     232         -0.221523        1.000000        0.07933913
     233         -0.220919        1.000000        0.01099677
     234         -0.219539        1.000000        0.06809256
     235         -0.218723        1.000000        0.01699679
     236         -0.218005        1.000000        0.01960756
     237         -0.217386        1.000000        0.00543633
     238         -0.216450        1.000000        0.00543619
     239         -0.215963        1.000000        0.02215485
     240         -0.215505        1.000000        0.03040772
     241         -0.215351        1.000000        0.07752501
     242         -0.214903        1.000000        0.02207483
     243         -0.214359        1.000000        0.00523717
     244         -0.212108        1.000000        0.01357740
     245         -0.211535        1.000000        0.01196664
     246         -0.210952        1.000000        0.04929496
     247         -0.209490        1.000000        0.00499873
     248         -0.208598        1.000000        0.01004519
     249         -0.207889        1.000000        0.00716378
     250         -0.207148        1.000000        0.00610506
     251         -0.206507        1.000000        0.02427844
     252         -0.205786        1.000000        0.00391517
     253         -0.205257        1.000000        0.00679168
     254         -0.204845        1.000000        0.00543350
     255         -0.204181        1.000000        0.00183624
     256         -0.203944        1.000000        0.00172904
     257         -0.202801        1.000000        0.00329452
     258         -0.201034        1.000000        0.00383229
     259         -0.200326        1.000000        0.00610263
     260         -0.199099        1.000000        0.02463133
     261         -0.197553        1.000000        0.00564546
     262         -0.196252        1.000000        0.03076206
     263         -0.195175        1.000000        0.00159261
     264         -0.194762        1.000000        0.01445381
     265         -0.194582        1.000000        0.00526939
     266         -0.193551        1.000000        0.00191726
     267         -0.193135        1.000000        0.00306410
     268         -0.192119        1.000000        0.00156198
     269         -0.190990        1.000000        0.00593560
     270         -0.190597        1.000000        0.00308939
     271         -0.190177        1.000000        0.00255154
     272         -0.188824        1.000000        0.00257513
     273         -0.188256        1.000000        0.00222274
     274         -0.187365        1.000000        0.00180790
     275         -0.187223        1.000000        0.00167482
     276         -0.186242        1.000000        0.00199812
     277         -0.184804        1.000000        0.00190874
     278         -0.184175        1.000000        0.00207834
     279         -0.182666        1.000000        0.00191541
     280         -0.181619        1.000000        0.00125347
     281         -0.180985        1.000000        0.00272399
     282         -0.180152        1.000000        0.00081761
     283         -0.179404        1.000000        0.00457900
     284         -0.179205        1.000000        0.00220575
     285         -0.179060        1.000000        0.01397242
     286         -0.178522        1.000000        0.00287302
     287         -0.177707        1.000000        0.00154041
     288         -0.177222        1.000000        0.00101007
     289         -0.176316        1.000000        0.00128008
     290         -0.175984        1.000000        0.00103935
     291         -0.175599        1.000000        0.00118329
     292         -0.174791        1.000000        0.00126107
     293         -0.174478        1.000000        0.00134490
     294         -0.173975        1.000000        0.00137362
     295         -0.173602        1.000000        0.00124635
     296         -0.172959        1.000000        0.00089821
     297         -0.172467        1.000000        0.00085023
     298         -0.171827        1.000000        0.00102131
     299         -0.171163        1.000000        0.00107911
     300         -0.170608        1.000000        0.00114749
     301         -0.170266        1.000000        0.00134173
     302         -0.169756        1.000000        0.00120825
     303         -0.169375        1.000000        0.00083135
     304         -0.168679        1.000000        0.00120766
     305         -0.168609        1.000000        0.00100851
     306         -0.168442        1.000000        0.00078436
     307         -0.167829        1.000000        0.00105517
     308         -0.166788        1.000000        0.00089797
     309         -0.166487        1.000000        0.00115727
     310         -0.166201        1.000000        0.00095326
     311         -0.165862        1.000000        0.00149945
     312         -0.165295        1.000000        0.00073516
     313         -0.165105        1.000000        0.00110361
     314         -0.164891        1.000000        0.00117060
     315         -0.164567        1.000000        0.00132767
     316         -0.163597        1.000000        0.00115970
     317         -0.163242        1.000000        0.00105148
     318         -0.162989        1.000000        0.00127107
     319         -0.162774        1.000000        0.00003332
     320         -0.162519        1.000000        0.00102430
     321         -0.161971        1.000000        0.00073154
     322         -0.161096        1.000000        0.00058434
     323         -0.160907        1.000000        0.00070569
     324         -0.160444        1.000000        0.00069862
     325         -0.160045        1.000000        0.00049473
     326         -0.159736        1.000000        0.00037404
     327         -0.159616        1.000000        0.00024020
     328         -0.158834        1.000000        0.00046543
     329         -0.158723        1.000000        0.00070696
     330         -0.158643        1.000000        0.00027210
     331         -0.158392        1.000000        0.00075884
     332         -0.158370        1.000000        0.00069329
     333         -0.157122        1.000000        0.00012272
     334         -0.156626        1.000000        0.00075812
     335         -0.156581        1.000000        0.00076098
     336         -0.156018        1.000000        0.00070848
     337         -0.155664        1.000000        0.00059283
     338         -0.155055        1.000000        0.00083998
     339         -0.154278        1.000000        0.00071564
     340         -0.153888        1.000000        0.00031447
     341         -0.153340        1.000000        0.00044188
     342         -0.152298        1.000000        0.00054536
     343         -0.151926        1.000000        0.00097705
     344         -0.150816        1.000000        0.00055613
     345         -0.150723        1.000000        0.00020214
     346         -0.150493        1.000000        0.00039084
     347         -0.149646        1.000000        0.00020822
     348         -0.148312        1.000000        0.00035007
     349         -0.145322        1.000000        0.00011438
     350         -0.144669        1.000000        0.00034253
     351         -0.144138        1.000000        0.00032346
     352         -0.143979        0.000000        0.00029429
     353         -0.142974        0.000000        0.00037735
     354         -0.140845        0.000000        0.00040701
     355         -0.137106        0.000000        0.00059805
     356         -0.107313        0.000000        0.00222024
     357         -0.097771        0.000000        0.00514176
     358         -0.035421        0.000000        0.00048936
     359         -0.027901        0.000000        0.00040889
     360         -0.024766        0.000000        0.00079699
     361         -0.018907        0.000000        0.00065445
     362         -0.018755        0.000000        0.00049893
     363         -0.016524        0.000000        0.00040217
     364         -0.013160        0.000000        0.00053173
     365         -0.009972        0.000000        0.00042439
     366         -0.009027        0.000000        0.00055904
     367         -0.007568        0.000000        0.00082816
     368         -0.005914        0.000000        0.00046409
     369         -0.003637        0.000000        0.00060431
     370         -0.001659        0.000000        0.00052910
     371         -0.000513        0.000000        0.00075983
     372          0.005157        0.000000        0.00065529
     373          0.005809        0.000000        0.00044367
     374          0.010945        0.000000        0.00101925
     375          0.012104        0.000000        0.00046428
     376          0.014242        0.000000        0.00049970
     377          0.017377        0.000000        0.00146190
     378          0.019246        0.000000        0.00029068
     379          0.023306        0.000000        0.00061427
     380          0.025064        0.000000        0.00085166
     381          0.026244        0.000000        0.00042205
     382          0.133380        0.000000        0.00496112
     383          0.144753        0.000000        0.00492925
     384          0.147058        0.000000        0.00430628
     385          0.176122        0.000000        0.00524539
     386          0.188101        0.000000        0.00594228
     387          0.197852        0.000000        0.00651126
     388          0.201200        0.000000        0.00603908
     389          0.283183        0.000000        0.68378133
     390          0.287553        0.000000        0.68806695
     391          0.295780        0.000000        0.68747080
     392          0.299082        0.000000        0.68158075
     393          0.299959        0.000000        0.67898009
     394          0.300177        0.000000        0.68072073
     395          0.301925        0.000000        0.68157171
     396          0.302543        0.000000        0.68211622
     397          0.303136        0.000000        0.68911642
     398          0.308788        0.000000        0.68021453
     399          0.311393        0.000000        0.67519582
     400          0.321575        0.000000        0.65903771
     401          0.324353        0.000000        0.67934952
     402          0.326776        0.000000        0.66680402
     403          0.327056        0.000000        0.67759512
     404          0.330901        0.000000        0.68361732
     405          0.332532        0.000000        0.66845801
     406          0.333498        0.000000        0.66403079
     407          0.334299        0.000000        0.66425511
     408          0.337031        0.000000        0.66679352
     409          0.341123        0.000000        0.66346527
     410          0.343242        0.000000        0.66587058
     411          0.346015        0.000000        0.66605166
     412          0.347475        0.000000        0.67409731
     413          0.354051        0.000000        0.67017342
     414          0.356885        0.000000        0.63429342
     415          0.360099        0.000000        0.65954241
     416          0.360629        0.000000        0.66852747
     417          0.365322        0.000000        0.66382248
     418          0.367821        0.000000        0.66488162
     419          0.368769        0.000000        0.66155020
     420          0.370008        0.000000        0.64887815
     421          0.372489        0.000000        0.65341492
     422          0.373703        0.000000        0.65663024
     423          0.378876        0.000000        0.66259202
     424          0.380084        0.000000        0.64867266
     425          0.380723        0.000000        0.65802172
     426          0.381182        0.000000        0.65758148
     427          0.381386        0.000000        0.63437108
     428          0.381804        0.000000        0.64189413
     429          0.382412        0.000000        0.65551082
     430          0.384705        0.000000        0.66312947
     431          0.384778        0.000000        0.66030960
     432          0.385937        0.000000        0.65250067
     433          0.386123        0.000000        0.64355297
     434          0.387835        0.000000        0.64240693
     435          0.389024        0.000000        0.63999771
     436          0.390475        0.000000        0.65992915
     437          0.390818        0.000000        0.64646515
     438          0.391472        0.000000        0.64753048
     439          0.391724        0.000000        0.64542259
     440          0.391865        0.000000        0.65522558
     441          0.393251        0.000000        0.64417815
     442          0.393829        0.000000        0.65824173
     443          0.395952        0.000000        0.64042274
     444          0.396433        0.000000        0.64639249
     445          0.397179        0.000000        0.65044864
     446          0.398620        0.000000        0.65372661
     447          0.402392        0.000000        0.64488065
     448          0.404442        0.000000        0.65318715
     449          0.405317        0.000000        0.64936934
     450          0.406286        0.000000        0.64610261
     451          0.407036        0.000000        0.64506875
     452          0.411090        0.000000        0.64278753
     453          0.411570        0.000000        0.63165694
     454          0.414152        0.000000        0.64794852
     455          0.416951        0.000000        0.64523072
     456          0.418977        0.000000        0.64692243
     457          0.419462        0.000000        0.64091309
     458          0.421890        0.000000        0.65065569
     459          0.428827        0.000000        0.64156493
     460          0.429286        0.000000        0.66393352
     461          0.440286        0.000000        0.64789030
     462          0.444158        0.000000        0.62867777
     463          0.444415        0.000000        0.64484533
     464          0.445415        0.000000        0.62999357
     465          0.449665        0.000000        0.64345064
     466          0.449908        0.000000        0.65950364
     467          0.450911        0.000000        0.62862785
     468          0.452241        0.000000        0.64875615
     469          0.456311        0.000000        0.65216801
     470          0.458305        0.000000        0.66406558
     471          0.460404        0.000000        0.63309141
     472          0.463794        0.000000        0.65010955
     473          0.464602        0.000000        0.65226079
     474          0.465774        0.000000        0.65610871
     475          0.465807        0.000000        0.65097124
     476          0.468660        0.000000        0.65448460
     477          0.469526        0.000000        0.65664064
     478          0.471013        0.000000        0.65299062
     479          0.476300        0.000000        0.64466242
     480          0.476935        0.000000        0.64672685
     481          0.485843        0.000000        0.66733249
     482          0.492927        0.000000        0.65169298
     483          0.494970        0.000000        0.65184635
     484          0.498419        0.000000        0.58534463
     485          0.501702        0.000000        0.64700800
     486          0.502730        0.000000        0.57959784
     487          0.503467        0.000000        0.58301784
     488          0.505594        0.000000        0.58214741
     489          0.508467        0.000000        0.66066917