# Projected DOS for atomic kind Pb at iteration step i = 0, E(Fermi) =    -0.147857 a.u.
#     MO Eigenvalue [a.u.]      Occupation                 s                py                pz                px
       1         -0.933210        1.000000        0.00000006        0.00000025        0.00000000        0.00000002
       2         -0.927480        1.000000        0.00000017        0.00000020        0.00000016        0.00000138
       3         -0.918407        1.000000        0.00000029        0.00000108        0.00000017        0.00000001
       4         -0.915289        1.000000        0.00000003        0.00000011        0.00000000        0.00000001
       5         -0.914663        1.000000        0.00000008        0.00000000        0.00000030        0.00000001
       6         -0.914597        1.000000        0.00000032        0.00000407        0.00000638        0.00000355
       7         -0.912466        1.000000        0.00000022        0.00000220        0.00000077        0.00000001
       8         -0.911133        1.000000        0.00000008        0.00000004        0.00000001        0.00000037
       9         -0.910969        1.000000        0.00000081        0.00000539        0.00000003        0.00001162
      10         -0.910401        1.000000        0.00000023        0.00000075        0.00000040        0.00000265
      11         -0.908647        1.000000        0.00000022        0.00000009        0.00000073        0.00000002
      12         -0.906332        1.000000        0.00000021        0.00000000        0.00000003        0.00000069
      13         -0.901773        1.000000        0.00000011        0.00000163        0.00000049        0.00000046
      14         -0.900397        1.000000        0.00000030        0.00000320        0.00000316        0.00000193
      15         -0.898737        1.000000        0.00000035        0.00000384        0.00000456        0.00000217
      16         -0.897086        1.000000        0.00000028        0.00000658        0.00000043        0.00000219
      17         -0.894686        1.000000        0.00000085        0.00000225        0.00000939        0.00000552
      18         -0.889914        1.000000        0.00000009        0.00000062        0.00000007        0.00000001
      19         -0.886748        1.000000        0.00000000        0.00000001        0.00000000        0.00000000
      20         -0.884074        1.000000        0.00000035        0.00000001        0.00000116        0.00000002
      21         -0.879924        1.000000        0.00000035        0.00000038        0.00000001        0.00000079
      22         -0.879380        1.000000        0.00000029        0.00000016        0.00000087        0.00001279
      23         -0.877922        1.000000        0.00000002        0.00000063        0.00000270        0.00000035
      24         -0.873064        1.000000        0.00000285        0.00002026        0.00003538        0.00000720
      25         -0.870941        1.000000        0.00000004        0.00000019        0.00000010        0.00000009
      26         -0.869833        1.000000        0.00000003        0.00000000        0.00000001        0.00000010
      27         -0.867188        1.000000        0.00000003        0.00000082        0.00000028        0.00000034
      28         -0.864884        1.000000        0.00000294        0.00000788        0.00000094        0.00000003
      29         -0.864728        1.000000        0.00000003        0.00000000        0.00000009        0.00000001
      30         -0.860576        1.000000        0.00000038        0.00000011        0.00000018        0.00000162
      31         -0.857628        1.000000        0.00000016        0.00000245        0.00000122        0.00000031
      32         -0.855406        1.000000        0.00000248        0.00000053        0.00000691        0.00000011
      33         -0.849923        1.000000        0.00000000        0.00000000        0.00000000        0.00000000
      34         -0.848779        1.000000        0.00000036        0.00000143        0.00000365        0.00000106
      35         -0.845158        1.000000        0.00000004        0.00000055        0.00000105        0.00000062
      36         -0.843940        1.000000        0.00000128        0.00001223        0.00000046        0.00000020
      37         -0.843860        1.000000        0.00000000        0.00000000        0.00000000        0.00000000
      38         -0.842321        1.000000        0.00000045        0.00000001        0.00000003        0.00000135
      39         -0.841171        1.000000        0.00000020        0.00000025        0.00000028        0.00000090
      40         -0.840185        1.000000        0.00000019        0.00000037        0.00000106        0.00000080
      41         -0.838879        1.000000        0.00000051        0.00000537        0.00000160        0.00000001
      42         -0.837238        1.000000        0.00000043        0.00000007        0.00000005        0.00000142
      43         -0.833572        1.000000        0.00000040        0.00000034        0.00000293        0.00000172
      44         -0.830972        1.000000        0.00000037        0.00000377        0.00000366        0.00000107
      45         -0.825578        1.000000        0.00000006        0.00000000        0.00000020        0.00000000
      46         -0.822145        1.000000        0.00000002        0.00000062        0.00000038        0.00000024
      47         -0.652310        1.000000        0.00001569        0.00000809        0.00001049        0.00001807
      48         -0.648047        1.000000        0.00003092        0.00002636        0.00002654        0.00000793
      49         -0.647158        1.000000        0.00004307        0.00004491        0.00002441        0.00002105
      50         -0.622363        1.000000        0.00001599        0.00001736        0.00000340        0.00000308
      51         -0.612261        1.000000        0.00006919        0.00002851        0.00002219        0.00004699
      52         -0.611039        1.000000        0.00014129        0.00007095        0.00007596        0.00001092
      53         -0.609915        1.000000        0.00010083        0.00004663        0.00005553        0.00003285
      54         -0.599358        1.000000        0.00125294        0.00003611        0.00143833        0.00082600
      55         -0.596124        1.000000        0.00646219        0.00300078        0.00199848        0.00001470
      56         -0.569681        1.000000        0.13265643        0.00033239        0.00200005        0.00015289
      57         -0.567384        1.000000        0.11416296        0.00497430        0.00110411        0.00167355
      58         -0.564819        1.000000        0.07555792        0.00536788        0.00423702        0.00034415
      59         -0.559375        1.000000        0.02430404        0.01135439        0.00740093        0.01171077
      60         -0.558057        1.000000        0.03719814        0.00802247        0.00545407        0.01370643
      61         -0.557231        1.000000        0.07936682        0.00490985        0.00698258        0.00335886
      62         -0.556732        1.000000        0.04554317        0.00592610        0.01190495        0.00338053
      63         -0.555653        1.000000        0.06722150        0.00492295        0.00354543        0.00417060
      64         -0.553950        1.000000        0.06166376        0.00361407        0.01339489        0.00303302
      65         -0.551248        1.000000        0.03093216        0.00234893        0.00576999        0.00980343
      66         -0.549237        1.000000        0.04796606        0.00759389        0.00822805        0.00577837
      67         -0.548284        1.000000        0.05412444        0.00944825        0.01575849        0.00385629
      68         -0.547662        1.000000        0.03571517        0.00400751        0.01948148        0.00569817
      69         -0.547290        1.000000        0.01587234        0.01107372        0.01859831        0.00380727
      70         -0.546296        1.000000        0.04471736        0.00514170        0.01246014        0.00994459
      71         -0.545809        1.000000        0.06853532        0.00287642        0.00974121        0.01666042
      72         -0.544172        1.000000        0.02318031        0.00867359        0.01489805        0.00489156
      73         -0.542457        1.000000        0.00246644        0.00429795        0.00740073        0.02004541
      74         -0.541672        1.000000        0.01464648        0.02398818        0.00708941        0.01155502
      75         -0.541372        1.000000        0.00224718        0.01317607        0.01061111        0.01366620
      76         -0.538969        1.000000        0.00525516        0.03139258        0.00439160        0.00249124
      77         -0.538405        1.000000        0.00695730        0.02026709        0.00557993        0.00498228
      78         -0.536842        1.000000        0.00035995        0.00046488        0.00002716        0.00255074
      79         -0.535455        1.000000        0.01539240        0.00753358        0.00480314        0.01078509
      80         -0.535246        1.000000        0.01152130        0.00840187        0.00392646        0.00730249
      81         -0.534645        1.000000        0.00645802        0.00612379        0.00377673        0.01769459
      82         -0.534216        1.000000        0.01038729        0.00321147        0.01472281        0.01670027
      83         -0.533366        1.000000        0.01485858        0.00538689        0.01569778        0.00563891
      84         -0.531588        1.000000        0.00635982        0.02050610        0.00273432        0.00455092
      85         -0.531166        1.000000        0.00102512        0.00532234        0.01754964        0.00769868
      86         -0.530799        1.000000        0.00083699        0.01148201        0.00761583        0.00595137
      87         -0.529468        1.000000        0.00542951        0.00015310        0.00096459        0.02318688
      88         -0.529108        1.000000        0.00059353        0.01208427        0.00010543        0.01536394
      89         -0.527824        1.000000        0.00520378        0.00209600        0.00036965        0.00562254
      90         -0.526711        1.000000        0.00658562        0.01481665        0.01287152        0.00248368
      91         -0.526491        1.000000        0.00986482        0.00303678        0.00164421        0.01577262
      92         -0.517561        1.000000        0.00115859        0.00013000        0.00270425        0.00061099
      93         -0.517003        1.000000        0.00279670        0.00102049        0.00041305        0.00090573
      94         -0.515682        1.000000        0.00099369        0.00096616        0.00364405        0.00084614
      95         -0.510532        1.000000        0.00626706        0.00030145        0.00574595        0.00089510
      96         -0.495939        1.000000        0.00079175        0.00047491        0.00001613        0.00000186
      97         -0.492347        1.000000        0.00120660        0.00000610        0.00036027        0.00132441
      98         -0.488464        1.000000        0.00268660        0.00131678        0.00001070        0.00003025
      99         -0.485771        1.000000        0.00036399        0.00001422        0.00004514        0.00000873
     100         -0.481873        1.000000        0.00161292        0.00000156        0.00002432        0.00041815
     101         -0.481853        1.000000        0.00148042        0.00019035        0.00005165        0.00000085
     102         -0.478791        1.000000        0.00192752        0.00026007        0.00003964        0.00003462
     103         -0.476727        1.000000        0.00318906        0.00001083        0.00017423        0.00017619
     104         -0.476429        1.000000        0.00050886        0.00000443        0.00012979        0.00002277
     105         -0.475834        1.000000        0.00070684        0.00002001        0.00011672        0.00005480
     106         -0.474018        1.000000        0.00206277        0.00006339        0.00052353        0.00001313
     107         -0.473222        1.000000        0.00295528        0.00006597        0.00000517        0.00039216
     108         -0.473153        1.000000        0.00475789        0.00112187        0.00003550        0.00002570
     109         -0.473144        1.000000        0.00022445        0.00000006        0.00011287        0.00000254
     110         -0.472368        1.000000        0.00069545        0.00000697        0.00001182        0.00012862
     111         -0.470384        1.000000        0.00115199        0.00003150        0.00009075        0.00009670
     112         -0.469901        1.000000        0.00188157        0.00000291        0.00000888        0.00009310
     113         -0.469845        1.000000        0.00216610        0.00000736        0.00001907        0.00029305
     114         -0.469278        1.000000        0.00033745        0.00001822        0.00004642        0.00000065
     115         -0.469153        1.000000        0.00470796        0.00000328        0.00005638        0.00032913
     116         -0.466985        1.000000        0.00011641        0.00001863        0.00000009        0.00000047
     117         -0.462309        1.000000        0.00085631        0.00003254        0.00001716        0.00000522
     118         -0.456511        1.000000        0.00032233        0.00004838        0.00000449        0.00003204
     119         -0.455715        1.000000        0.00103749        0.00024040        0.00001050        0.00001893
     120         -0.454708        1.000000        0.00033941        0.00000141        0.00000205        0.00003174
     121         -0.454685        1.000000        0.00058987        0.00001069        0.00001190        0.00000596
     122         -0.453834        1.000000        0.00482492        0.00003742        0.00046363        0.00004113
     123         -0.451728        1.000000        0.00000282        0.00001785        0.00000138        0.00002125
     124         -0.445444        1.000000        0.00031721        0.00000227        0.00000220        0.00000065
     125         -0.443410        1.000000        0.00128724        0.00000273        0.00000381        0.00001325
     126         -0.442887        1.000000        0.00046942        0.00000121        0.00000565        0.00000054
     127         -0.440594        1.000000        0.00127814        0.00000546        0.00000327        0.00001635
     128         -0.439488        1.000000        0.00114053        0.00000119        0.00000412        0.00000054
     129         -0.435293        1.000000        0.00166569        0.00000042        0.00000092        0.00000058
     130         -0.435159        1.000000        0.00214855        0.00001656        0.00004102        0.00000551
     131         -0.433244        1.000000        0.60894533        0.00060962        0.00048191        0.00018445
     132         -0.431732        1.000000        0.32339333        0.00033864        0.00018830        0.00009475
     133         -0.431450        1.000000        0.00213735        0.00010108        0.00003891        0.00003376
     134         -0.431223        1.000000        0.43033256        0.00042940        0.00018377        0.00023274
     135         -0.429001        1.000000        0.00114152        0.00000835        0.00000530        0.00002495
     136         -0.427590        1.000000        0.04970496        0.00005231        0.00004009        0.00001410
     137         -0.427205        1.000000        0.17754360        0.00006039        0.00007802        0.00007557
     138         -0.426868        1.000000        0.02960479        0.00004160        0.00012650        0.00003044
     139         -0.425713        1.000000        0.58584343        0.00083976        0.00043267        0.00062643
     140         -0.424632        1.000000        0.60763191        0.00098762        0.00067123        0.00095785
     141         -0.422239        1.000000        0.69570340        0.00103244        0.00023601        0.00113515
     142         -0.416783        1.000000        0.73282317        0.00066111        0.00045075        0.00045897
     143         -0.415147        1.000000        0.73545902        0.00055240        0.00029784        0.00035902
     144         -0.412728        1.000000        0.00027997        0.00000015        0.00000011        0.00000083
     145         -0.412116        1.000000        0.71994266        0.00037668        0.00012050        0.00039520
     146         -0.411427        1.000000        0.01465988        0.00000881        0.00000186        0.00001386
     147         -0.408607        1.000000        0.00000065        0.00000000        0.00000002        0.00000007
     148         -0.408036        1.000000        0.00541127        0.00001768        0.00002069        0.00000176
     149         -0.404541        1.000000        0.00070388        0.00000026        0.00001013        0.00000013
     150         -0.402796        1.000000        0.00000266        0.00000007        0.00000004        0.00000016
     151         -0.402536        1.000000        0.00010841        0.00000046        0.00000631        0.00000230
     152         -0.401556        1.000000        0.00586303        0.00005160        0.00000089        0.00000668
     153         -0.390389        1.000000        0.00061310        0.00002224        0.00003732        0.00002913
     154         -0.389239        1.000000        0.00076657        0.00005664        0.00003264        0.00001633
     155         -0.389089        1.000000        0.00146754        0.00000511        0.00037345        0.00002061
     156         -0.388133        1.000000        0.00098792        0.00000541        0.00000488        0.00003190
     157         -0.387104        1.000000        0.00158956        0.00036995        0.00002057        0.00002272
     158         -0.386843        1.000000        0.00091258        0.00002643        0.00001965        0.00004765
     159         -0.369031        1.000000        0.00016079        0.00000831        0.00003984        0.00005366
     160         -0.366825        1.000000        0.00019080        0.00000352        0.00002509        0.00008341
     161         -0.365662        1.000000        0.00026340        0.00008069        0.00008917        0.00008996
     162         -0.365435        1.000000        0.00008403        0.00004140        0.00005576        0.00000974
     163         -0.363581        1.000000        0.00004135        0.00002851        0.00004761        0.00002641
     164         -0.362747        1.000000        0.00010501        0.00007809        0.00004966        0.00001919
     165         -0.354303        1.000000        0.00004456        0.00002502        0.00000990        0.00001168
     166         -0.346624        1.000000        0.00009634        0.00012921        0.00012693        0.00002764
     167         -0.343264        1.000000        0.00010567        0.00007199        0.00001208        0.00002913
     168         -0.342671        1.000000        0.00007712        0.00009009        0.00006709        0.00013951
     169         -0.342163        1.000000        0.00002428        0.00000771        0.00000534        0.00000894
     170         -0.333861        1.000000        0.00001389        0.00005274        0.00010614        0.00008616
     171         -0.333412        1.000000        0.00010850        0.00009291        0.00013467        0.00010833
     172         -0.333247        1.000000        0.00064297        0.00027525        0.00011455        0.00024597
     173         -0.332645        1.000000        0.00031079        0.00026206        0.00006661        0.00027298
     174         -0.332501        1.000000        0.00001922        0.00014983        0.00019678        0.00031717
     175         -0.328601        1.000000        0.00001689        0.00002080        0.00000350        0.00000695
     176         -0.322271        1.000000        0.00007774        0.00004172        0.00004172        0.00002487
     177         -0.316175        1.000000        0.00026967        0.00006182        0.00000978        0.00054899
     178         -0.315056        1.000000        0.00014587        0.00000209        0.00024887        0.00000113
     179         -0.313997        1.000000        0.00001086        0.00001088        0.00000146        0.00001095
     180         -0.309872        1.000000        0.00009935        0.00015105        0.00000330        0.00002626
     181         -0.307402        1.000000        0.00026732        0.00308460        0.00070454        0.00009993
     182         -0.306586        1.000000        0.00004851        0.00020695        0.00014546        0.00013484
     183         -0.303819        1.000000        0.00011605        0.00000763        0.00015522        0.00001386
     184         -0.296003        1.000000        0.00004714        0.00000549        0.00000096        0.00009250
     185         -0.293157        1.000000        0.00041492        0.00084292        0.00356307        0.00067021
     186         -0.290720        1.000000        0.00014106        0.00003309        0.00002495        0.00050661
     187         -0.288486        1.000000        0.00000095        0.00004734        0.00000469        0.00000039
     188         -0.283885        1.000000        0.00005653        0.00013017        0.00019990        0.00053272
     189         -0.271068        1.000000        0.00004375        0.00060193        0.00133456        0.00027246
     190         -0.270646        1.000000        0.00022127        0.00087574        0.00069567        0.00096922
     191         -0.268533        1.000000        0.00010292        0.00033185        0.00009414        0.00270447
     192         -0.267295        1.000000        0.00001092        0.00012481        0.00006292        0.00001443
     193         -0.266277        1.000000        0.00001916        0.00041751        0.00005505        0.00002792
     194         -0.264134        1.000000        0.00001167        0.00007534        0.00282846        0.00003004
     195         -0.261932        1.000000        0.00005145        0.00002181        0.00098682        0.00004525
     196         -0.258603        1.000000        0.00008392        0.00048759        0.00463933        0.00004809
     197         -0.253815        1.000000        0.00001656        0.00062295        0.00010703        0.00030406
     198         -0.253180        1.000000        0.00050775        0.07538671        0.05587081        0.02272932
     199         -0.251846        1.000000        0.00129956        0.01010281        0.06549127        0.04175246
     200         -0.250790        1.000000        0.00104340        0.06435656        0.01514233        0.02313705
     201         -0.248438        1.000000        0.00149280        0.03614647        0.01086050        0.00525174
     202         -0.247757        1.000000        0.00179115        0.02819480        0.06790987        0.04655157
     203         -0.245818        1.000000        0.00298445        0.03874185        0.09096640        0.04515132
     204         -0.245130        1.000000        0.00036785        0.00953189        0.02949290        0.03450360
     205         -0.244923        1.000000        0.00127513        0.04912168        0.03399430        0.05590107
     206         -0.241962        1.000000        0.00031283        0.04168128        0.08399851        0.00847268
     207         -0.240518        1.000000        0.00110535        0.08432162        0.06660939        0.06308882
     208         -0.240420        1.000000        0.00089438        0.17076219        0.01981976        0.02930177
     209         -0.239952        1.000000        0.00016448        0.01496077        0.00339952        0.00853158
     210         -0.237520        1.000000        0.00179672        0.11921510        0.01774060        0.09598744
     211         -0.237115        1.000000        0.00291345        0.02358504        0.03524051        0.13967338
     212         -0.236829        1.000000        0.00016180        0.01488352        0.00644018        0.02291961
     213         -0.236560        1.000000        0.00014095        0.00961745        0.02397967        0.00607222
     214         -0.236259        1.000000        0.00043871        0.01500407        0.00348379        0.00242737
     215         -0.236043        1.000000        0.00058958        0.07159559        0.01916215        0.00722171
     216         -0.235533        1.000000        0.00015558        0.02131034        0.00604829        0.00818616
     217         -0.235090        1.000000        0.00052791        0.03538254        0.00952345        0.00492248
     218         -0.233900        1.000000        0.00079033        0.03247950        0.00818160        0.00481525
     219         -0.233276        1.000000        0.00039112        0.01655326        0.02407654        0.01110151
     220         -0.232827        1.000000        0.00043416        0.03079818        0.01153981        0.00762242
     221         -0.231853        1.000000        0.00053189        0.04328881        0.02327598        0.13816549
     222         -0.231551        1.000000        0.00028812        0.01121277        0.07430489        0.01817419
     223         -0.230437        1.000000        0.00032605        0.00509645        0.09470059        0.07375246
     224         -0.230191        1.000000        0.00008361        0.00680706        0.00330021        0.04620570
     225         -0.229598        1.000000        0.00072547        0.01661933        0.02163088        0.01918865
     226         -0.228202        1.000000        0.00127156        0.03554880        0.08553845        0.02265006
     227         -0.227566        1.000000        0.00105303        0.02804434        0.13421729        0.02182008
     228         -0.225378        1.000000        0.00018098        0.00244193        0.00220208        0.01630577
     229         -0.223679        1.000000        0.00065049        0.01499427        0.00812434        0.03045422
     230         -0.222533        1.000000        0.00080836        0.01772896        0.04548915        0.06667160
     231         -0.221935        1.000000        0.00090353        0.02756284        0.01277112        0.00395508
     232         -0.221612        1.000000        0.00134929        0.01792935        0.03050963        0.09339738
     233         -0.221513        1.000000        0.00000899        0.00007158        0.00011035        0.00014959
     234         -0.219732        1.000000        0.00027107        0.00198630        0.01357919        0.02009694
     235         -0.218474        1.000000        0.00131452        0.00409617        0.05370528        0.03098023
     236         -0.218277        1.000000        0.00188137        0.01136433        0.04095297        0.01233301
     237         -0.216704        1.000000        0.00146997        0.01609843        0.02499840        0.01947189
     238         -0.216358        1.000000        0.00115382        0.00561904        0.02496121        0.01948925
     239         -0.216154        1.000000        0.00061111        0.01470457        0.01536662        0.03515571
     240         -0.215904        1.000000        0.00015623        0.02499034        0.04451778        0.08311695
     241         -0.215303        1.000000        0.00000160        0.00097940        0.00125209        0.00168705
     242         -0.214886        1.000000        0.00049523        0.01183046        0.01271877        0.01397492
     243         -0.213807        1.000000        0.00043550        0.10656605        0.07736053        0.00508132
     244         -0.212654        1.000000        0.00186244        0.02071283        0.02500308        0.08813981
     245         -0.211146        1.000000        0.00604483        0.03494817        0.02191892        0.03817892
     246         -0.210241        1.000000        0.00021289        0.00487127        0.00381256        0.00221891
     247         -0.208730        1.000000        0.00124441        0.05297126        0.03059001        0.02312254
     248         -0.208500        1.000000        0.00193966        0.02788408        0.01134002        0.01022902
     249         -0.207161        1.000000        0.00350616        0.02614068        0.06358922        0.01864105
     250         -0.206147        1.000000        0.00540668        0.01551587        0.02176695        0.01426645
     251         -0.206054        1.000000        0.00158621        0.03040498        0.00084308        0.02074538
     252         -0.204956        1.000000        0.00198486        0.05976703        0.00302988        0.01524358
     253         -0.204359        1.000000        0.00282445        0.01465049        0.00487867        0.01720005
     254         -0.204125        1.000000        0.00404998        0.00573018        0.00494379        0.00511141
     255         -0.203892        1.000000        0.00670115        0.01520553        0.00223876        0.00297811
     256         -0.203453        1.000000        0.00256669        0.03423057        0.00266909        0.00944276
     257         -0.202584        1.000000        0.00208016        0.05397372        0.00455573        0.01300585
     258         -0.200762        1.000000        0.00459195        0.00735946        0.00929738        0.01294946
     259         -0.200337        1.000000        0.00561565        0.03044429        0.01373089        0.01844484