# Projected DOS for atomic kind Pb at iteration step i = 0, E(Fermi) =    -0.144138 a.u.
#     MO Eigenvalue [a.u.]      Occupation                 s                py                pz                px
       1         -0.933235        1.000000        0.00000006        0.00000025        0.00000000        0.00000002
       2         -0.927486        1.000000        0.00000017        0.00000020        0.00000016        0.00000139
       3         -0.918328        1.000000        0.00000027        0.00000102        0.00000016        0.00000001
       4         -0.915292        1.000000        0.00000003        0.00000012        0.00000000        0.00000001
       5         -0.914672        1.000000        0.00000008        0.00000000        0.00000030        0.00000001
       6         -0.914622        1.000000        0.00000032        0.00000407        0.00000639        0.00000356
       7         -0.912474        1.000000        0.00000022        0.00000220        0.00000077        0.00000001
       8         -0.911113        1.000000        0.00000009        0.00000006        0.00000001        0.00000041
       9         -0.911000        1.000000        0.00000081        0.00000538        0.00000003        0.00001158
      10         -0.910432        1.000000        0.00000023        0.00000075        0.00000040        0.00000265
      11         -0.908659        1.000000        0.00000022        0.00000009        0.00000073        0.00000002
      12         -0.906363        1.000000        0.00000021        0.00000000        0.00000004        0.00000070
      13         -0.901797        1.000000        0.00000011        0.00000163        0.00000049        0.00000046
      14         -0.900407        1.000000        0.00000031        0.00000321        0.00000317        0.00000194
      15         -0.898744        1.000000        0.00000035        0.00000384        0.00000457        0.00000217
      16         -0.897061        1.000000        0.00000028        0.00000651        0.00000042        0.00000219
      17         -0.894699        1.000000        0.00000086        0.00000225        0.00000939        0.00000553
      18         -0.889951        1.000000        0.00000009        0.00000062        0.00000007        0.00000001
      19         -0.886765        1.000000        0.00000000        0.00000001        0.00000000        0.00000000
      20         -0.884450        1.000000        0.00000036        0.00000001        0.00000117        0.00000002
      21         -0.880053        1.000000        0.00000036        0.00000038        0.00000001        0.00000081
      22         -0.879398        1.000000        0.00000029        0.00000016        0.00000087        0.00001279
      23         -0.877932        1.000000        0.00000002        0.00000063        0.00000272        0.00000035
      24         -0.873004        1.000000        0.00000284        0.00002030        0.00003539        0.00000719
      25         -0.870949        1.000000        0.00000004        0.00000019        0.00000010        0.00000009
      26         -0.869857        1.000000        0.00000003        0.00000000        0.00000001        0.00000010
      27         -0.867209        1.000000        0.00000003        0.00000082        0.00000028        0.00000034
      28         -0.864927        1.000000        0.00000003        0.00000000        0.00000009        0.00000001
      29         -0.860863        1.000000        0.00000297        0.00000796        0.00000095        0.00000003
      30         -0.860719        1.000000        0.00000038        0.00000011        0.00000018        0.00000161
      31         -0.857646        1.000000        0.00000015        0.00000245        0.00000122        0.00000031
      32         -0.855446        1.000000        0.00000248        0.00000053        0.00000692        0.00000011
      33         -0.849928        1.000000        0.00000000        0.00000000        0.00000000        0.00000000
      34         -0.848803        1.000000        0.00000037        0.00000143        0.00000366        0.00000106
      35         -0.845145        1.000000        0.00000003        0.00000055        0.00000105        0.00000061
      36         -0.843897        1.000000        0.00000000        0.00000000        0.00000000        0.00000000
      37         -0.843894        1.000000        0.00000129        0.00001228        0.00000046        0.00000020
      38         -0.843787        1.000000        0.00000044        0.00000001        0.00000002        0.00000131
      39         -0.841308        1.000000        0.00000021        0.00000026        0.00000028        0.00000094
      40         -0.840216        1.000000        0.00000019        0.00000037        0.00000107        0.00000080
      41         -0.837542        1.000000        0.00000043        0.00000007        0.00000005        0.00000141
      42         -0.835820        1.000000        0.00000054        0.00000560        0.00000167        0.00000001
      43         -0.831510        1.000000        0.00000043        0.00000034        0.00000300        0.00000176
      44         -0.830998        1.000000        0.00000037        0.00000379        0.00000367        0.00000107
      45         -0.829165        1.000000        0.00000006        0.00000000        0.00000020        0.00000000
      46         -0.818072        1.000000        0.00000001        0.00000055        0.00000029        0.00000031
      47         -0.652338        1.000000        0.00001581        0.00000810        0.00001063        0.00001822
      48         -0.648067        1.000000        0.00003144        0.00002653        0.00002684        0.00000797
      49         -0.647174        1.000000        0.00004475        0.00004632        0.00002461        0.00002122
      50         -0.622393        1.000000        0.00001555        0.00001732        0.00000333        0.00000297
      51         -0.612288        1.000000        0.00007105        0.00002877        0.00002230        0.00004772
      52         -0.611095        1.000000        0.00018218        0.00008417        0.00009604        0.00001130
      53         -0.609943        1.000000        0.00010205        0.00004670        0.00005606        0.00003293
      54         -0.599361        1.000000        0.00119832        0.00003842        0.00142968        0.00082274
      55         -0.597035        1.000000        0.00769248        0.00310654        0.00248070        0.00001577
      56         -0.570757        1.000000        0.10628669        0.00040305        0.00237886        0.00012733
      57         -0.568331        1.000000        0.09024345        0.00336305        0.00375136        0.00036353
      58         -0.564542        1.000000        0.09279762        0.00506682        0.00317076        0.00199303
      59         -0.560707        1.000000        0.06905057        0.01586710        0.00727346        0.00279419
      60         -0.558764        1.000000        0.04190541        0.00316404        0.00294941        0.01909215
      61         -0.557644        1.000000        0.10666679        0.00464807        0.00375532        0.00295510
      62         -0.557446        1.000000        0.05786950        0.00304477        0.01186738        0.00355627
      63         -0.555277        1.000000        0.04482052        0.00758520        0.00389286        0.00624473
      64         -0.554459        1.000000        0.04215877        0.00342327        0.01619158        0.00226276
      65         -0.551288        1.000000        0.03080341        0.00562213        0.01000070        0.00630010
      66         -0.550474        1.000000        0.01924308        0.01259000        0.02033350        0.00350914
      67         -0.549410        1.000000        0.07968374        0.00689243        0.00516995        0.00728538
      68         -0.547077        1.000000        0.05919506        0.00660556        0.00603122        0.01430400
      69         -0.546932        1.000000        0.03046504        0.00545109        0.00515075        0.01091811
      70         -0.546531        1.000000        0.04389039        0.00294265        0.01274435        0.01418731
      71         -0.544984        1.000000        0.01033537        0.00869091        0.02997382        0.00073750
      72         -0.544276        1.000000        0.02741396        0.01446798        0.01152029        0.00434942
      73         -0.542701        1.000000        0.01250320        0.01373987        0.00848055        0.01450427
      74         -0.542212        1.000000        0.00472707        0.00982661        0.01596437        0.01136539
      75         -0.541682        1.000000        0.00252082        0.02686450        0.00357607        0.00553605
      76         -0.539268        1.000000        0.01160944        0.01837620        0.00775224        0.00229272
      77         -0.539144        1.000000        0.00350756        0.00484998        0.00542059        0.02190254
      78         -0.538607        1.000000        0.00541777        0.01726361        0.00115059        0.00339863
      79         -0.537411        1.000000        0.00022411        0.00035835        0.00018248        0.00860217
      80         -0.535586        1.000000        0.00466110        0.00700664        0.00525715        0.01690257
      81         -0.535208        1.000000        0.01001035        0.00434050        0.01373368        0.01633963
      82         -0.534945        1.000000        0.02051187        0.01019062        0.00632597        0.01210400
      83         -0.534229        1.000000        0.01284923        0.00643398        0.01133579        0.00724617
      84         -0.533757        1.000000        0.00505536        0.00062043        0.00095392        0.01664174
      85         -0.533266        1.000000        0.00633826        0.01749244        0.00214943        0.00423895
      86         -0.532334        1.000000        0.00121832        0.00735752        0.01586789        0.00639680
      87         -0.531972        1.000000        0.00100957        0.00943292        0.01071000        0.00470269
      88         -0.530298        1.000000        0.01198799        0.00220637        0.00063329        0.01907507
      89         -0.528398        1.000000        0.00094570        0.01084279        0.00005303        0.01693007
      90         -0.527939        1.000000        0.00445264        0.00414943        0.00174721        0.00558074
      91         -0.527320        1.000000        0.00651525        0.01244873        0.01461904        0.00121972
      92         -0.517591        1.000000        0.00121477        0.00011763        0.00276690        0.00059954
      93         -0.517123        1.000000        0.00274193        0.00086773        0.00042087        0.00073584
      94         -0.515801        1.000000        0.00073360        0.00093563        0.00359604        0.00051452
      95         -0.510507        1.000000        0.00626617        0.00027335        0.00577226        0.00097966
      96         -0.495989        1.000000        0.00078196        0.00044591        0.00001558        0.00000175
      97         -0.492596        1.000000        0.00096964        0.00000485        0.00031065        0.00104672
      98         -0.488452        1.000000        0.00266065        0.00133607        0.00001051        0.00003152
      99         -0.485800        1.000000        0.00036583        0.00001471        0.00004627        0.00000913
     100         -0.481925        1.000000        0.00161124        0.00000139        0.00002341        0.00039850
     101         -0.481809        1.000000        0.00141993        0.00021202        0.00005409        0.00000065
     102         -0.478823        1.000000        0.00196385        0.00024401        0.00003989        0.00003423
     103         -0.476800        1.000000        0.00325472        0.00001090        0.00016383        0.00014890
     104         -0.476437        1.000000        0.00050268        0.00000451        0.00013371        0.00002332
     105         -0.475873        1.000000        0.00070706        0.00002041        0.00011573        0.00005436
     106         -0.474074        1.000000        0.00208756        0.00006049        0.00050409        0.00001295
     107         -0.473238        1.000000        0.00455134        0.00105973        0.00003385        0.00002723
     108         -0.473214        1.000000        0.00276683        0.00007360        0.00000503        0.00042330
     109         -0.473166        1.000000        0.00024714        0.00000003        0.00010161        0.00000176
     110         -0.472401        1.000000        0.00071039        0.00000675        0.00001125        0.00012319
     111         -0.470432        1.000000        0.00117963        0.00003092        0.00009122        0.00009643
     112         -0.469953        1.000000        0.00190470        0.00000293        0.00000865        0.00008630
     113         -0.469896        1.000000        0.00225747        0.00000736        0.00001909        0.00028355
     114         -0.469290        1.000000        0.00034296        0.00001739        0.00004602        0.00000065
     115         -0.469220        1.000000        0.00478829        0.00000309        0.00005288        0.00028258
     116         -0.467022        1.000000        0.00011570        0.00001873        0.00000009        0.00000047
     117         -0.462347        1.000000        0.00086323        0.00002969        0.00001703        0.00000492
     118         -0.456538        1.000000        0.00034867        0.00004793        0.00000459        0.00003267
     119         -0.455749        1.000000        0.00099427        0.00023192        0.00001018        0.00001950
     120         -0.454742        1.000000        0.00035593        0.00000126        0.00000191        0.00002857
     121         -0.454710        1.000000        0.00063769        0.00001015        0.00001207        0.00000584
     122         -0.453869        1.000000        0.00506667        0.00003801        0.00045268        0.00003879
     123         -0.451767        1.000000        0.00000332        0.00001720        0.00000142        0.00002118
     124         -0.445483        1.000000        0.00033879        0.00000221        0.00000226        0.00000072
     125         -0.443415        1.000000        0.00104102        0.00000191        0.00000393        0.00001405
     126         -0.443002        1.000000        0.00063587        0.00000150        0.00000523        0.00000065
     127         -0.440650        1.000000        0.00145153        0.00000580        0.00000363        0.00001495
     128         -0.439480        1.000000        0.00071937        0.00000073        0.00000464        0.00000041
     129         -0.435181        1.000000        0.00253285        0.00001786        0.00003983        0.00000466
     130         -0.434150        1.000000        0.00106702        0.00000101        0.00000072        0.00000041
     131         -0.433505        1.000000        0.62837439        0.00061486        0.00052813        0.00020040
     132         -0.431609        1.000000        0.05237460        0.00006345        0.00010859        0.00004269
     133         -0.431454        1.000000        0.00147880        0.00010262        0.00004160        0.00002998
     134         -0.430242        1.000000        0.68433859        0.00064120        0.00037805        0.00032130
     135         -0.429021        1.000000        0.00164255        0.00000855        0.00000521        0.00002955
     136         -0.427806        1.000000        0.18737736        0.00018498        0.00012307        0.00013612
     137         -0.427483        1.000000        0.23278520        0.00004839        0.00006706        0.00013052
     138         -0.426921        1.000000        0.03708189        0.00004778        0.00012942        0.00004737
     139         -0.426205        1.000000        0.54620927        0.00077177        0.00036995        0.00060347
     140         -0.425523        1.000000        0.45814943        0.00077949        0.00051949        0.00080788
     141         -0.423444        1.000000        0.68338331        0.00101931        0.00024885        0.00119339
     142         -0.417334        1.000000        0.73522359        0.00079771        0.00045840        0.00050454
     143         -0.415020        1.000000        0.73529922        0.00044020        0.00037165        0.00036094
     144         -0.413252        1.000000        0.00026000        0.00000012        0.00000017        0.00000082
     145         -0.412644        1.000000        0.73228675        0.00040179        0.00009900        0.00041943
     146         -0.411531        1.000000        0.00673699        0.00000473        0.00000077        0.00001137
     147         -0.408616        1.000000        0.00000052        0.00000000        0.00000002        0.00000007
     148         -0.407171        1.000000        0.00275534        0.00001542        0.00001873        0.00000095
     149         -0.405189        1.000000        0.00075099        0.00000027        0.00001030        0.00000012
     150         -0.402841        1.000000        0.00000258        0.00000007        0.00000004        0.00000016
     151         -0.402527        1.000000        0.00013406        0.00000056        0.00000640        0.00000230
     152         -0.401580        1.000000        0.00606026        0.00005223        0.00000104        0.00000645
     153         -0.390412        1.000000        0.00055005        0.00002247        0.00003587        0.00002930
     154         -0.389268        1.000000        0.00071692        0.00005671        0.00003162        0.00001625
     155         -0.388154        1.000000        0.00126618        0.00000492        0.00037872        0.00002072
     156         -0.387583        1.000000        0.00102009        0.00000556        0.00000501        0.00003184
     157         -0.387096        1.000000        0.00147377        0.00037653        0.00001855        0.00002276
     158         -0.386870        1.000000        0.00084041        0.00002671        0.00002068        0.00004809
     159         -0.369068        1.000000        0.00015801        0.00000806        0.00004051        0.00005406
     160         -0.366836        1.000000        0.00018003        0.00000358        0.00002545        0.00008234
     161         -0.365696        1.000000        0.00026572        0.00008245        0.00008993        0.00008955
     162         -0.365465        1.000000        0.00008101        0.00004115        0.00005643        0.00001003
     163         -0.363608        1.000000        0.00004116        0.00002861        0.00004843        0.00002707
     164         -0.362761        1.000000        0.00010163        0.00007849        0.00005004        0.00001941
     165         -0.354355        1.000000        0.00004518        0.00002481        0.00000991        0.00001128
     166         -0.346674        1.000000        0.00009469        0.00013033        0.00012794        0.00002860
     167         -0.343276        1.000000        0.00010704        0.00007123        0.00001210        0.00002913
     168         -0.342703        1.000000        0.00007715        0.00009125        0.00006780        0.00014062
     169         -0.342190        1.000000        0.00002330        0.00000810        0.00000539        0.00000946
     170         -0.333889        1.000000        0.00001427        0.00005359        0.00011313        0.00008941
     171         -0.333444        1.000000        0.00010686        0.00009371        0.00013522        0.00011068
     172         -0.333276        1.000000        0.00064218        0.00027349        0.00011294        0.00024455
     173         -0.332672        1.000000        0.00030701        0.00026377        0.00006742        0.00027396
     174         -0.332534        1.000000        0.00002070        0.00015595        0.00019171        0.00032308
     175         -0.328639        1.000000        0.00001704        0.00002042        0.00000346        0.00000659
     176         -0.322318        1.000000        0.00007748        0.00004243        0.00004229        0.00002564
     177         -0.316135        1.000000        0.00026862        0.00005827        0.00000979        0.00051203
     178         -0.315146        1.000000        0.00015111        0.00000188        0.00023139        0.00000121
     179         -0.313380        1.000000        0.00000885        0.00000775        0.00000137        0.00001039
     180         -0.309884        1.000000        0.00009821        0.00016112        0.00000354        0.00002688
     181         -0.307536        1.000000        0.00029118        0.00327241        0.00081263        0.00010423
     182         -0.306609        1.000000        0.00004753        0.00021201        0.00014597        0.00013545
     183         -0.303845        1.000000        0.00011625        0.00000769        0.00015683        0.00001398
     184         -0.296212        1.000000        0.00004927        0.00000579        0.00000108        0.00010221
     185         -0.293174        1.000000        0.00041313        0.00085151        0.00344382        0.00064825
     186         -0.290755        1.000000        0.00013956        0.00003467        0.00002911        0.00053558
     187         -0.288050        1.000000        0.00000090        0.00004786        0.00000433        0.00000031
     188         -0.283955        1.000000        0.00005700        0.00013625        0.00020460        0.00056003
     189         -0.271099        1.000000        0.00004600        0.00063682        0.00134867        0.00026830
     190         -0.270224        1.000000        0.00021647        0.00090595        0.00072601        0.00095476
     191         -0.268551        1.000000        0.00010715        0.00026115        0.00008603        0.00247238
     192         -0.267324        1.000000        0.00001184        0.00013559        0.00008943        0.00001642
     193         -0.266304        1.000000        0.00001869        0.00043954        0.00005420        0.00002634
     194         -0.264292        1.000000        0.00001253        0.00009193        0.00381932        0.00003120
     195         -0.262429        1.000000        0.00005570        0.00002466        0.00077326        0.00003606
     196         -0.258928        1.000000        0.00006051        0.00017229        0.00915228        0.00004820
     197         -0.254445        1.000000        0.00033437        0.06006236        0.09193439        0.01401418
     198         -0.253837        1.000000        0.00001610        0.00011366        0.00025120        0.00023722
     199         -0.251896        1.000000        0.00108380        0.01530904        0.03522729        0.02705875
     200         -0.250838        1.000000        0.00059143        0.03481475        0.02816031        0.04990914
     201         -0.248713        1.000000        0.00122051        0.01545267        0.05724116        0.03507558
     202         -0.247637        1.000000        0.00169420        0.06124879        0.03520030        0.01517678
     203         -0.245868        1.000000        0.00114810        0.07374081        0.08703362        0.01199583
     204         -0.245305        1.000000        0.00063864        0.03185517        0.01463931        0.04128913
     205         -0.243717        1.000000        0.00163710        0.02177610        0.08293625        0.05801117
     206         -0.242499        1.000000        0.00171009        0.06423155        0.02569563        0.02306974
     207         -0.241990        1.000000        0.00092176        0.17754247        0.01236656        0.05166075
     208         -0.240311        1.000000        0.00158385        0.07843280        0.06088149        0.04506517
     209         -0.239560        1.000000        0.00025503        0.01688564        0.00490280        0.01038450
     210         -0.238218        1.000000        0.00291391        0.10193243        0.01633214        0.13125957
     211         -0.237330        1.000000        0.00137043        0.05486195        0.04867985        0.05798330
     212         -0.236826        1.000000        0.00037831        0.03484591        0.02284683        0.01404147
     213         -0.236517        1.000000        0.00048035        0.01660883        0.02296334        0.06008984
     214         -0.236412        1.000000        0.00022958        0.03722457        0.00657811        0.00191155
     215         -0.236132        1.000000        0.00050405        0.01217862        0.00877829        0.01287448
     216         -0.235662        1.000000        0.00008397        0.00681180        0.00137377        0.01303554
     217         -0.235106        1.000000        0.00077025        0.02527746        0.00535587        0.00366533
     218         -0.233997        1.000000        0.00043058        0.05069552        0.01842396        0.04650689
     219         -0.233512        1.000000        0.00079759        0.03901858        0.01346341        0.10720737
     220         -0.233056        1.000000        0.00017958        0.00541957        0.01643218        0.00810696
     221         -0.232690        1.000000        0.00067542        0.02808661        0.00888138        0.00853171
     222         -0.231043        1.000000        0.00051563        0.00429172        0.10108078        0.01894538
     223         -0.230536        1.000000        0.00010183        0.00412644        0.01140003        0.01296756
     224         -0.229966        1.000000        0.00099311        0.03245896        0.10279773        0.04058375
     225         -0.229510        1.000000        0.00041954        0.00283107        0.02400822        0.03205893
     226         -0.228090        1.000000        0.00047407        0.01062926        0.13011365        0.08543674
     227         -0.226978        1.000000        0.00108537        0.03531112        0.03095202        0.00662852
     228         -0.225776        1.000000        0.00047121        0.00673648        0.00612723        0.05577233
     229         -0.224411        1.000000        0.00049495        0.01462602        0.01077270        0.06285096
     230         -0.223234        1.000000        0.00028365        0.00970737        0.01421301        0.06075299
     231         -0.222310        1.000000        0.00099854        0.02682666        0.00236329        0.00361587
     232         -0.221523        1.000000        0.00000481        0.00007236        0.00010199        0.00000778
     233         -0.220919        1.000000        0.00174216        0.02972587        0.05658681        0.02911711
     234         -0.219539        1.000000        0.00012210        0.00185308        0.01011837        0.01488418
     235         -0.218723        1.000000        0.00219084        0.01427309        0.02226123        0.04234065
     236         -0.218005        1.000000        0.00130879        0.00935518        0.08004218        0.02230723
     237         -0.217386        1.000000        0.00014437        0.03761516        0.05182084        0.09077391
     238         -0.216450        1.000000        0.00163060        0.00553579        0.02396015        0.00883777
     239         -0.215963        1.000000        0.00203687        0.01451037        0.03856785        0.01567277
     240         -0.215505        1.000000        0.00051111        0.00656117        0.00817049        0.01966137
     241         -0.215351        1.000000        0.00001143        0.00035826        0.00101056        0.00068847
     242         -0.214903        1.000000        0.00061189        0.01099529        0.01742165        0.00353685
     243         -0.214359        1.000000        0.00041466        0.10296910        0.08106848        0.00652250
     244         -0.212108        1.000000        0.00327279        0.03098658        0.03313099        0.06193711
     245         -0.211535        1.000000        0.00490829        0.01479017        0.01044573        0.07594791
     246         -0.210952        1.000000        0.00019179        0.00390758        0.00254005        0.00246976
     247         -0.209490        1.000000        0.00116082        0.04256434        0.01468927        0.01540839
     248         -0.208598        1.000000        0.00249967        0.03853911        0.02799851        0.01421677
     249         -0.207889        1.000000        0.00269303        0.01272662        0.02953420        0.01990837
     250         -0.207148        1.000000        0.00388917        0.05344445        0.03276830        0.01396286
     251         -0.206507        1.000000        0.00555494        0.02295218        0.02250904        0.01858028
     252         -0.205786        1.000000        0.01003728        0.01714094        0.00403268        0.00676436
     253         -0.205257        1.000000        0.00513179        0.07817848        0.00461216        0.01876818
     254         -0.204845        1.000000        0.00251707        0.01650961        0.00749922        0.02188479
     255         -0.204181        1.000000        0.00060200        0.00995470        0.00508540        0.00750057
     256         -0.203944        1.000000        0.00049152        0.02063772        0.00072545        0.00299323
     257         -0.202801        1.000000        0.00130951        0.03685854        0.00198292        0.00695144
     258         -0.201034        1.000000        0.00603647        0.00894760        0.01123523        0.01685402
     259         -0.200326        1.000000        0.00797737        0.04245106        0.02271233        0.03372019