# Projected DOS for atomic kind C at iteration step i = 0, E(Fermi) =    -0.144138 a.u.
#     MO Eigenvalue [a.u.]      Occupation                 s                py                pz                px
       1         -0.933235        1.000000        0.00002521        0.00000297        0.00000028        0.00002788
       2         -0.927486        1.000000        0.00000000        0.00000000        0.00000001        0.00000000
       3         -0.918328        1.000000        0.00000001        0.00000010        0.00000014        0.00000007
       4         -0.915292        1.000000        0.00002695        0.00000160        0.00001178        0.00001770
       5         -0.914672        1.000000        0.00001876        0.00002086        0.00000375        0.00000456
       6         -0.914622        1.000000        0.05816030        0.00309502        0.00447908        0.03592862
       7         -0.912474        1.000000        0.00000000        0.00000000        0.00000001        0.00000003
       8         -0.911113        1.000000        0.00005604        0.00007169        0.00000799        0.00020636
       9         -0.911000        1.000000        0.00000003        0.00000020        0.00000003        0.00000060
      10         -0.910432        1.000000        0.00000309        0.00000001        0.00000048        0.00000277
      11         -0.908659        1.000000        0.00000003        0.00000004        0.00000018        0.00000025
      12         -0.906363        1.000000        0.00000021        0.00000008        0.00000006        0.00000039
      13         -0.901797        1.000000        0.00000000        0.00000000        0.00000001        0.00000003
      14         -0.900407        1.000000        0.06239712        0.00000265        0.01072985        0.03369374
      15         -0.898744        1.000000        0.06427406        0.00000733        0.01756016        0.02731904
      16         -0.897061        1.000000        0.00000000        0.00000000        0.00000000        0.00000000
      17         -0.894699        1.000000        0.00001049        0.00000112        0.00000161        0.00000764
      18         -0.889951        1.000000        0.00504229        0.00011682        0.00000593        0.00396223
      19         -0.886765        1.000000        0.00014881        0.00000584        0.00007741        0.00005669
      20         -0.884450        1.000000        0.00000000        0.00000000        0.00000000        0.00000000
      21         -0.880053        1.000000        0.00205615        0.00008328        0.00020489        0.00137341
      22         -0.879398        1.000000        0.00000000        0.00000008        0.00000006        0.00000005
      23         -0.877932        1.000000        0.00000001        0.00000000        0.00000004        0.00000012
      24         -0.873004        1.000000        0.00000000        0.00000000        0.00000000        0.00000000
      25         -0.870949        1.000000        0.00885265        0.00001935        0.00310972        0.00352146
      26         -0.869857        1.000000        0.00001489        0.00002426        0.00005644        0.00010709
      27         -0.867209        1.000000        0.00408180        0.00013211        0.00031609        0.00258904
      28         -0.864927        1.000000        0.00000041        0.00000095        0.00002112        0.00000233
      29         -0.860863        1.000000        0.00000217        0.00000083        0.00000033        0.00000002
      30         -0.860719        1.000000        0.02080447        0.00119552        0.00166939        0.01149116
      31         -0.857646        1.000000        0.06676329        0.00029705        0.00028753        0.04109769
      32         -0.855446        1.000000        0.00000001        0.00000008        0.00000001        0.00000006
      33         -0.849928        1.000000        0.00000000        0.00000000        0.00000000        0.00000000
      34         -0.848803        1.000000        0.02896828        0.00052544        0.00135736        0.01654741
      35         -0.845145        1.000000        0.00000000        0.00000000        0.00000000        0.00000000
      36         -0.843897        1.000000        0.00000000        0.00000000        0.00000000        0.00000000
      37         -0.843894        1.000000        0.00000005        0.00000000        0.00000013        0.00000045
      38         -0.843787        1.000000        0.00006921        0.00000585        0.00000410        0.00003312
      39         -0.841308        1.000000        0.05108437        0.00355425        0.00326596        0.02335612
      40         -0.840216        1.000000        0.06900943        0.00009960        0.01980656        0.02061714
      41         -0.837542        1.000000        0.00000057        0.00000637        0.00000054        0.00000002
      42         -0.835820        1.000000        0.00000001        0.00000000        0.00000000        0.00000000
      43         -0.831510        1.000000        0.00000010        0.00000000        0.00000001        0.00000003
      44         -0.830998        1.000000        0.04772151        0.00050391        0.00130477        0.02439304
      45         -0.829165        1.000000        0.00000001        0.00000184        0.00000521        0.00000167
      46         -0.818072        1.000000        0.00000000        0.00000000        0.00000000        0.00000000
      47         -0.652338        1.000000        0.43993566        0.00006941        0.00010235        0.00061861
      48         -0.648067        1.000000        0.43806527        0.00001567        0.00067806        0.00124663
      49         -0.647174        1.000000        0.43708944        0.00000024        0.00031677        0.00134458
      50         -0.622393        1.000000        0.43634191        0.00000294        0.00007867        0.00463642
      51         -0.612288        1.000000        0.43368475        0.00078649        0.00054278        0.00442100
      52         -0.611095        1.000000        0.42175156        0.00012739        0.00307171        0.00377305
      53         -0.609943        1.000000        0.42694126        0.00017911        0.00011397        0.00756270
      54         -0.599361        1.000000        0.00008422        0.00051497        0.00001376        0.00000956
      55         -0.597035        1.000000        0.00754900        0.00003728        0.00001662        0.00003951
      56         -0.570757        1.000000        0.00024236        0.00053741        0.00024270        0.00042405
      57         -0.568331        1.000000        0.00039032        0.00016284        0.00181372        0.00027283
      58         -0.564542        1.000000        0.00024584        0.00038973        0.00017180        0.00008986
      59         -0.560707        1.000000        0.00017496        0.00032483        0.00127683        0.00028151
      60         -0.558764        1.000000        0.00036517        0.00272533        0.00155207        0.00098143
      61         -0.557644        1.000000        0.00054213        0.00078753        0.00077384        0.00037173
      62         -0.557446        1.000000        0.00018331        0.00252373        0.00152274        0.00064453
      63         -0.555277        1.000000        0.00030850        0.00110713        0.00107215        0.00018487
      64         -0.554459        1.000000        0.00035446        0.00099303        0.00107176        0.00051498
      65         -0.551288        1.000000        0.00016219        0.00154772        0.00081420        0.00006974
      66         -0.550474        1.000000        0.00002675        0.00032790        0.00016878        0.00020575
      67         -0.549410        1.000000        0.00021138        0.00072958        0.00029652        0.00006478
      68         -0.547077        1.000000        0.00016658        0.00098354        0.00041805        0.00013748
      69         -0.546932        1.000000        0.00017321        0.00277965        0.00082210        0.00024847
      70         -0.546531        1.000000        0.00014373        0.00248293        0.00076636        0.00020029
      71         -0.544984        1.000000        0.00001665        0.00045041        0.00005729        0.00000970
      72         -0.544276        1.000000        0.00015221        0.00329855        0.00090637        0.00030037
      73         -0.542701        1.000000        0.00037128        0.00237788        0.00050866        0.00016122
      74         -0.542212        1.000000        0.00062784        0.00147022        0.00046985        0.00029138
      75         -0.541682        1.000000        0.00014854        0.00011944        0.00028459        0.00004952
      76         -0.539268        1.000000        0.00007675        0.00036656        0.00313609        0.00145102
      77         -0.539144        1.000000        0.00004869        0.00016987        0.00021012        0.00001277
      78         -0.538607        1.000000        0.00009979        0.00035463        0.00184303        0.00078759
      79         -0.537411        1.000000        0.00001419        0.02641875        0.01658305        0.00011143
      80         -0.535586        1.000000        0.00007547        0.00020226        0.00043278        0.00015481
      81         -0.535208        1.000000        0.00031040        0.00028855        0.00011177        0.00003995
      82         -0.534945        1.000000        0.00013166        0.00376016        0.00147255        0.00023418
      83         -0.534229        1.000000        0.00011644        0.00185275        0.00023742        0.00016369
      84         -0.533757        1.000000        0.00011385        0.00659685        0.00309834        0.00004065
      85         -0.533266        1.000000        0.00015489        0.00017653        0.00239418        0.00096304
      86         -0.532334        1.000000        0.00011622        0.00045217        0.00035327        0.00012008
      87         -0.531972        1.000000        0.00024080        0.00038662        0.00045407        0.00017486
      88         -0.530298        1.000000        0.00003663        0.00126673        0.00048624        0.00034834
      89         -0.528398        1.000000        0.00025694        0.00037947        0.00166853        0.00035916
      90         -0.527939        1.000000        0.00022359        0.01159479        0.02243022        0.00469821
      91         -0.527320        1.000000        0.00025526        0.00188065        0.00308636        0.00076219
      92         -0.517591        1.000000        0.00005110        0.05694224        0.00079247        0.00050540
      93         -0.517123        1.000000        0.00014600        0.00109771        0.03975252        0.02126051
      94         -0.515801        1.000000        0.00010143        0.00017285        0.03611179        0.02294242
      95         -0.510507        1.000000        0.00007882        0.05671826        0.00094961        0.00022961
      96         -0.495989        1.000000        0.00001713        0.00006009        0.00007723        0.00003464
      97         -0.492596        1.000000        0.00000314        0.00000237        0.00000459        0.00000690
      98         -0.488452        1.000000        0.00000795        0.00145466        0.07098857        0.00031893
      99         -0.485800        1.000000        0.00000750        0.06841394        0.00035016        0.00083837
     100         -0.481925        1.000000        0.00004627        0.00032099        0.06643499        0.00881138
     101         -0.481809        1.000000        0.00000012        0.00000045        0.00000068        0.00000063
     102         -0.478823        1.000000        0.00000298        0.00150043        0.00722754        0.00659029
     103         -0.476800        1.000000        0.00000026        0.00000233        0.00000167        0.00000246
     104         -0.476437        1.000000        0.00001318        0.00008764        0.00001445        0.00000281
     105         -0.475873        1.000000        0.00000540        0.00209219        0.03312984        0.03143474
     106         -0.474074        1.000000        0.00000330        0.07440723        0.00918490        0.00036961
     107         -0.473238        1.000000        0.00000041        0.00002198        0.00000890        0.00001649
     108         -0.473214        1.000000        0.00000080        0.00107956        0.00016651        0.00161062
     109         -0.473166        1.000000        0.00000002        0.00000051        0.00000070        0.00000280
     110         -0.472401        1.000000        0.00001088        0.06133147        0.00173970        0.00603251
     111         -0.470432        1.000000        0.00015479        0.06387833        0.00105476        0.00425127
     112         -0.469953        1.000000        0.00000063        0.00032492        0.00000818        0.00004287
     113         -0.469896        1.000000        0.00000060        0.00034022        0.00020493        0.00000534
     114         -0.469290        1.000000        0.00000382        0.00006045        0.00003074        0.00002526
     115         -0.469220        1.000000        0.00000037        0.00001764        0.00000394        0.00000492
     116         -0.467022        1.000000        0.00008077        0.00017483        0.00200534        0.00011199
     117         -0.462347        1.000000        0.00028747        0.00547388        0.07569778        0.00374051
     118         -0.456538        1.000000        0.00000083        0.00000603        0.00000610        0.00000126
     119         -0.455749        1.000000        0.00000007        0.00000013        0.00000190        0.00000123
     120         -0.454742        1.000000        0.00000001        0.00003063        0.00001023        0.00000101
     121         -0.454710        1.000000        0.00003799        0.00804251        0.00136202        0.00027726
     122         -0.453869        1.000000        0.00000185        0.00000243        0.00076599        0.00002674
     123         -0.451767        1.000000        0.00000884        0.00014232        0.00006929        0.00005795
     124         -0.445483        1.000000        0.00000020        0.00092289        0.00008420        0.00000151
     125         -0.443415        1.000000        0.00201391        0.00610437        0.00101957        0.04035490
     126         -0.443002        1.000000        0.00000021        0.00000103        0.00000146        0.00000396
     127         -0.440650        1.000000        0.00046314        0.00172234        0.00179620        0.00256888
     128         -0.439480        1.000000        0.00007287        0.00013088        0.00401239        0.00108038
     129         -0.435181        1.000000        0.00008646        0.00014327        0.00025613        0.00030176
     130         -0.434150        1.000000        0.00000222        0.00000997        0.00000940        0.00005226
     131         -0.433505        1.000000        0.00164927        0.00147190        0.00399592        0.01377355
     132         -0.431609        1.000000        0.02297546        0.01545555        0.03255273        0.21824004
     133         -0.431454        1.000000        0.00046581        0.00009449        0.00220461        0.00436234
     134         -0.430242        1.000000        0.00012947        0.00026852        0.00042820        0.00131433
     135         -0.429021        1.000000        0.00001093        0.00047537        0.00005821        0.00010773
     136         -0.427806        1.000000        0.01614681        0.00034261        0.08453576        0.16176949
     137         -0.427483        1.000000        0.01484215        0.00031734        0.07123604        0.15533276
     138         -0.426921        1.000000        0.00013742        0.00000720        0.00087504        0.00132510
     139         -0.426205        1.000000        0.00488744        0.00011768        0.01896524        0.04981065
     140         -0.425523        1.000000        0.00816829        0.00018191        0.02812872        0.09037187
     141         -0.423444        1.000000        0.00069573        0.00025902        0.00467310        0.00643982
     142         -0.417334        1.000000        0.00011479        0.00016490        0.00066974        0.00165413
     143         -0.415020        1.000000        0.00026620        0.00010657        0.00174552        0.00316704
     144         -0.413252        1.000000        0.00000589        0.00001660        0.00000839        0.00009452
     145         -0.412644        1.000000        0.00022801        0.00015979        0.00081936        0.00365073
     146         -0.411531        1.000000        0.00089088        0.00018980        0.00838190        0.00120963
     147         -0.408616        1.000000        0.00000000        0.00000001        0.00000004        0.00000001
     148         -0.407171        1.000000        0.00000310        0.00000955        0.00000984        0.00005980
     149         -0.405189        1.000000        0.00022813        0.00000371        0.00077721        0.00386267
     150         -0.402841        1.000000        0.00000000        0.00000002        0.00000001        0.00000008
     151         -0.402527        1.000000        0.00000041        0.00000080        0.00000023        0.00000884
     152         -0.401580        1.000000        0.01486653        0.01511754        0.00014659        0.32571158
     153         -0.390412        1.000000        0.01302755        0.00948053        0.04168864        0.28966937
     154         -0.389268        1.000000        0.01061906        0.00234220        0.13370139        0.16771770
     155         -0.388154        1.000000        0.00001711        0.00002946        0.00006008        0.00036629
     156         -0.387583        1.000000        0.00001531        0.00005456        0.00003678        0.00029188
     157         -0.387096        1.000000        0.00167274        0.00044078        0.01854528        0.02173620
     158         -0.386870        1.000000        0.01101325        0.01965690        0.03921320        0.28761866
     159         -0.369068        1.000000        0.00004607        0.00193909        0.44999222        0.07016798
     160         -0.366836        1.000000        0.00000028        0.49697144        0.01159203        0.02884670
     161         -0.365696        1.000000        0.00000227        0.52169475        0.00136949        0.00067916
     162         -0.365465        1.000000        0.00004022        0.44365455        0.05002010        0.02880425
     163         -0.363608        1.000000        0.00001851        0.07941596        0.27878194        0.16668687
     164         -0.362761        1.000000        0.00001732        0.00250244        0.39994925        0.12403993
     165         -0.354355        1.000000        0.00006020        0.28554248        0.07977346        0.01844712
     166         -0.346674        1.000000        0.00014640        0.39792713        0.01078321        0.00220385
     167         -0.343276        1.000000        0.00000512        0.10220253        0.40601367        0.00716995
     168         -0.342703        1.000000        0.00002207        0.06254857        0.29724760        0.08446540
     169         -0.342190        1.000000        0.00005955        0.43159486        0.01685038        0.00008885
     170         -0.333889        1.000000        0.00003843        0.01046143        0.25346988        0.21442603
     171         -0.333444        1.000000        0.00000030        0.00537741        0.43577561        0.07166233
     172         -0.333276        1.000000        0.00000194        0.01059740        0.00285516        0.00009445
     173         -0.332672        1.000000        0.00002663        0.39121636        0.09657664        0.00176634
     174         -0.332534        1.000000        0.00000180        0.00073048        0.01320682        0.01223391
     175         -0.328639        1.000000        0.00001858        0.09750413        0.02784688        0.00000696
     176         -0.322318        1.000000        0.00000288        0.06254561        0.00046257        0.00775714
     177         -0.316135        1.000000        0.00000713        0.00001750        0.00036013        0.00008880
     178         -0.315146        1.000000        0.00000036        0.00000952        0.00001328        0.00000489
     179         -0.313380        1.000000        0.00000587        0.00026039        0.00009048        0.00002885
     180         -0.309884        1.000000        0.00000285        0.04395746        0.00000678        0.00271757
     181         -0.307536        1.000000        0.00006924        0.00028004        0.00024325        0.00096966
     182         -0.306609        1.000000        0.00000896        0.01019941        0.02486256        0.00112044
     183         -0.303845        1.000000        0.00000043        0.00002926        0.00001295        0.00000062
     184         -0.296212        1.000000        0.00000018        0.00000034        0.00000718        0.00000011
     185         -0.293174        1.000000        0.00003026        0.00031838        0.00010439        0.00009994
     186         -0.290755        1.000000        0.00000410        0.00000455        0.00000291        0.00000473
     187         -0.288050        1.000000        0.00000007        0.00000766        0.00001255        0.00001016
     188         -0.283955        1.000000        0.00000065        0.02308274        0.00227534        0.00880220
     189         -0.271099        1.000000        0.00000456        0.00557291        0.01759764        0.00000317
     190         -0.270224        1.000000        0.00000173        0.00024637        0.00002764        0.00011265
     191         -0.268551        1.000000        0.00004463        0.00016552        0.00054079        0.00005522
     192         -0.267324        1.000000        0.00000150        0.00030467        0.00002190        0.00000014
     193         -0.266304        1.000000        0.00000048        0.01869386        0.00386292        0.00374116
     194         -0.264292        1.000000        0.00001724        0.00001883        0.00004121        0.00008900
     195         -0.262429        1.000000        0.00000697        0.00003917        0.00005579        0.00001206
     196         -0.258928        1.000000        0.00000120        0.00000450        0.00000663        0.00000187
     197         -0.254445        1.000000        0.00005134        0.00067702        0.00047558        0.00001814
     198         -0.253837        1.000000        0.00000012        0.00101861        0.00011728        0.00038894
     199         -0.251896        1.000000        0.00001623        0.00082681        0.00026457        0.00035093
     200         -0.250838        1.000000        0.00003706        0.00201629        0.00022517        0.00142170
     201         -0.248713        1.000000        0.00002384        0.00269737        0.00024846        0.00104530
     202         -0.247637        1.000000        0.00002055        0.00028427        0.00003469        0.00008909
     203         -0.245868        1.000000        0.00005725        0.00147505        0.00028151        0.00019313
     204         -0.245305        1.000000        0.00001784        0.01351430        0.00076825        0.00350572
     205         -0.243717        1.000000        0.00004477        0.00050989        0.00015910        0.00009688
     206         -0.242499        1.000000        0.00003333        0.00037185        0.00006838        0.00014871
     207         -0.241990        1.000000        0.00004979        0.00047027        0.00026473        0.00021532
     208         -0.240311        1.000000        0.00003425        0.00011841        0.00005350        0.00008628
     209         -0.239560        1.000000        0.00000628        0.00003335        0.00000943        0.00001838
     210         -0.238218        1.000000        0.00000227        0.00016366        0.00012631        0.00009370
     211         -0.237330        1.000000        0.00002500        0.00081007        0.00022385        0.00086018
     212         -0.236826        1.000000        0.00003257        0.00096135        0.00035158        0.00084075
     213         -0.236517        1.000000        0.00005408        0.00058474        0.00015810        0.00057408
     214         -0.236412        1.000000        0.00003143        0.00026128        0.00008583        0.00011386
     215         -0.236132        1.000000        0.00014017        0.00045685        0.00012071        0.00003856
     216         -0.235662        1.000000        0.00001669        0.00082126        0.00015213        0.00046255
     217         -0.235106        1.000000        0.00001024        0.00022434        0.00005645        0.00003871
     218         -0.233997        1.000000        0.00003606        0.00069980        0.00006982        0.00009654
     219         -0.233512        1.000000        0.00005589        0.00062717        0.00006286        0.00016422
     220         -0.233056        1.000000        0.00003481        0.00003017        0.00008786        0.00005024
     221         -0.232690        1.000000        0.00001468        0.00010918        0.00006770        0.00008504
     222         -0.231043        1.000000        0.00002796        0.00036550        0.00036744        0.00009097
     223         -0.230536        1.000000        0.00001071        0.00014530        0.00014048        0.00006529
     224         -0.229966        1.000000        0.00002309        0.00082313        0.00119725        0.00012131
     225         -0.229510        1.000000        0.00002380        0.00120388        0.00323335        0.00018012
     226         -0.228090        1.000000        0.00002048        0.00008582        0.00016168        0.00006342
     227         -0.226978        1.000000        0.00007072        0.00009615        0.00028827        0.00008136
     228         -0.225776        1.000000        0.00010773        0.00142139        0.00051809        0.00287476
     229         -0.224411        1.000000        0.00013599        0.00183574        0.00060811        0.00187470
     230         -0.223234        1.000000        0.00006955        0.00032612        0.00020717        0.00028122
     231         -0.222310        1.000000        0.00003662        0.00067725        0.00009039        0.00088991
     232         -0.221523        1.000000        0.00000015        0.00000014        0.00000043        0.00000068
     233         -0.220919        1.000000        0.00011079        0.00032389        0.00020106        0.00025178
     234         -0.219539        1.000000        0.00002230        0.00003504        0.00001593        0.00001761
     235         -0.218723        1.000000        0.00011819        0.00005898        0.00024454        0.00015335
     236         -0.218005        1.000000        0.00009973        0.00017696        0.00009471        0.00014018
     237         -0.217386        1.000000        0.00004537        0.00034426        0.00018023        0.00019479
     238         -0.216450        1.000000        0.00006647        0.00021885        0.00019332        0.00020439
     239         -0.215963        1.000000        0.00009215        0.00037607        0.00016774        0.00016726
     240         -0.215505        1.000000        0.00005690        0.00010761        0.00035146        0.00007829
     241         -0.215351        1.000000        0.00000245        0.00000184        0.00001402        0.00000625
     242         -0.214903        1.000000        0.00003273        0.00009994        0.00008688        0.00017207
     243         -0.214359        1.000000        0.00002722        0.00011227        0.00021424        0.00014476
     244         -0.212108        1.000000        0.00002228        0.00002394        0.00009902        0.00007497
     245         -0.211535        1.000000        0.00004966        0.00009093        0.00005856        0.00008558
     246         -0.210952        1.000000        0.00000841        0.00002868        0.00001839        0.00001172
     247         -0.209490        1.000000        0.00027305        0.00022223        0.00008153        0.00030609
     248         -0.208598        1.000000        0.00000659        0.00054723        0.00147330        0.00062964
     249         -0.207889        1.000000        0.00029056        0.00060435        0.00075348        0.00041012
     250         -0.207148        1.000000        0.00022514        0.00061964        0.00061743        0.00012427
     251         -0.206507        1.000000        0.00015431        0.00023351        0.00092512        0.00016405
     252         -0.205786        1.000000        0.00038378        0.00062479        0.00029655        0.00013199
     253         -0.205257        1.000000        0.00014353        0.00022830        0.00014498        0.00007109
     254         -0.204845        1.000000        0.00016868        0.00018187        0.00031649        0.00023946
     255         -0.204181        1.000000        0.00003894        0.00008634        0.00002832        0.00005292
     256         -0.203944        1.000000        0.00002627        0.00042206        0.00008782        0.00006334
     257         -0.202801        1.000000        0.00002943        0.00014058        0.00020323        0.00011700
     258         -0.201034        1.000000        0.00017869        0.00023384        0.00075868        0.00253676
     259         -0.200326        1.000000        0.00023572        0.00008037        0.00027093        0.00045980