# Projected DOS for atomic kind C at iteration step i = 0, E(Fermi) =    -0.147857 a.u.
#     MO Eigenvalue [a.u.]      Occupation                 s                py                pz                px
       1         -0.933210        1.000000        0.00002519        0.00000296        0.00000028        0.00002785
       2         -0.927480        1.000000        0.00000000        0.00000000        0.00000001        0.00000000
       3         -0.918407        1.000000        0.00000001        0.00000010        0.00000015        0.00000008
       4         -0.915289        1.000000        0.00002692        0.00000160        0.00001177        0.00001768
       5         -0.914663        1.000000        0.00001856        0.00002086        0.00000374        0.00000443
       6         -0.914597        1.000000        0.05815901        0.00309541        0.00447638        0.03592760
       7         -0.912466        1.000000        0.00000000        0.00000000        0.00000001        0.00000003
       8         -0.911133        1.000000        0.00005815        0.00007235        0.00000822        0.00020980
       9         -0.910969        1.000000        0.00000000        0.00000006        0.00000001        0.00000019
      10         -0.910401        1.000000        0.00000305        0.00000001        0.00000047        0.00000273
      11         -0.908647        1.000000        0.00000003        0.00000004        0.00000018        0.00000025
      12         -0.906332        1.000000        0.00000020        0.00000008        0.00000006        0.00000039
      13         -0.901773        1.000000        0.00000000        0.00000000        0.00000001        0.00000003
      14         -0.900397        1.000000        0.06239281        0.00000256        0.01072926        0.03369326
      15         -0.898737        1.000000        0.06426485        0.00000741        0.01756195        0.02731523
      16         -0.897086        1.000000        0.00000000        0.00000000        0.00000000        0.00000000
      17         -0.894686        1.000000        0.00001047        0.00000112        0.00000161        0.00000762
      18         -0.889914        1.000000        0.00504896        0.00011693        0.00000595        0.00396723
      19         -0.886748        1.000000        0.00014881        0.00000585        0.00007740        0.00005670
      20         -0.884074        1.000000        0.00000000        0.00000000        0.00000000        0.00000000
      21         -0.879924        1.000000        0.00203365        0.00008244        0.00020241        0.00135731
      22         -0.879380        1.000000        0.00000000        0.00000008        0.00000006        0.00000005
      23         -0.877922        1.000000        0.00000001        0.00000000        0.00000004        0.00000012
      24         -0.873064        1.000000        0.00000000        0.00000000        0.00000000        0.00000000
      25         -0.870941        1.000000        0.00883178        0.00001939        0.00310272        0.00351370
      26         -0.869833        1.000000        0.00001490        0.00002432        0.00005642        0.00010711
      27         -0.867188        1.000000        0.00407890        0.00013206        0.00031597        0.00258725
      28         -0.864884        1.000000        0.00000074        0.00000074        0.00000028        0.00000035
      29         -0.864728        1.000000        0.00000037        0.00000100        0.00002062        0.00000230
      30         -0.860576        1.000000        0.02126982        0.00122367        0.00170424        0.01173593
      31         -0.857628        1.000000        0.06674601        0.00029729        0.00028767        0.04109009
      32         -0.855406        1.000000        0.00000001        0.00000008        0.00000001        0.00000006
      33         -0.849923        1.000000        0.00000000        0.00000000        0.00000000        0.00000000
      34         -0.848779        1.000000        0.02896077        0.00052544        0.00135751        0.01654311
      35         -0.845158        1.000000        0.00000000        0.00000000        0.00000000        0.00000000
      36         -0.843940        1.000000        0.00000005        0.00000000        0.00000013        0.00000045
      37         -0.843860        1.000000        0.00000000        0.00000000        0.00000000        0.00000000
      38         -0.842321        1.000000        0.00035246        0.00002683        0.00002175        0.00016439
      39         -0.841171        1.000000        0.05035409        0.00350588        0.00321481        0.02299561
      40         -0.840185        1.000000        0.06904033        0.00009950        0.01981478        0.02062472
      41         -0.838879        1.000000        0.00000008        0.00000000        0.00000002        0.00000002
      42         -0.837238        1.000000        0.00000055        0.00000631        0.00000057        0.00000001
      43         -0.833572        1.000000        0.00000001        0.00000000        0.00000000        0.00000000
      44         -0.830972        1.000000        0.04773007        0.00050414        0.00130558        0.02439705
      45         -0.825578        1.000000        0.00000002        0.00000179        0.00000569        0.00000188
      46         -0.822145        1.000000        0.00000000        0.00000000        0.00000000        0.00000000
      47         -0.652310        1.000000        0.43993793        0.00006777        0.00010348        0.00061844
      48         -0.648047        1.000000        0.43807597        0.00001576        0.00067688        0.00124555
      49         -0.647158        1.000000        0.43712543        0.00000022        0.00031752        0.00134485
      50         -0.622363        1.000000        0.43634803        0.00000272        0.00007929        0.00463264
      51         -0.612261        1.000000        0.43370511        0.00078577        0.00054455        0.00442271
      52         -0.611039        1.000000        0.42314535        0.00012963        0.00308004        0.00376505
      53         -0.609915        1.000000        0.42695773        0.00017932        0.00011343        0.00756687
      54         -0.599358        1.000000        0.00008462        0.00051494        0.00001373        0.00000955
      55         -0.596124        1.000000        0.00615160        0.00002911        0.00001038        0.00004260
      56         -0.569681        1.000000        0.00023402        0.00062535        0.00078991        0.00054967
      57         -0.567384        1.000000        0.00024738        0.00026939        0.00067981        0.00011994
      58         -0.564819        1.000000        0.00028060        0.00019774        0.00089123        0.00012377
      59         -0.559375        1.000000        0.00027810        0.00103649        0.00266870        0.00096149
      60         -0.558057        1.000000        0.00022390        0.00377469        0.00066043        0.00043972
      61         -0.557231        1.000000        0.00039655        0.00054892        0.00043741        0.00007376
      62         -0.556732        1.000000        0.00030040        0.00195752        0.00124244        0.00066516
      63         -0.555653        1.000000        0.00040293        0.00036173        0.00089857        0.00019741
      64         -0.553950        1.000000        0.00037302        0.00077249        0.00167120        0.00072450
      65         -0.551248        1.000000        0.00016050        0.00171338        0.00048568        0.00006621
      66         -0.549237        1.000000        0.00013809        0.00099969        0.00013389        0.00018311
      67         -0.548284        1.000000        0.00014291        0.00033393        0.00033834        0.00003921
      68         -0.547662        1.000000        0.00011899        0.00154944        0.00013698        0.00005041
      69         -0.547290        1.000000        0.00007097        0.00064571        0.00052094        0.00002283
      70         -0.546296        1.000000        0.00007380        0.00337135        0.00066211        0.00024267
      71         -0.545809        1.000000        0.00018235        0.00213293        0.00043153        0.00012543
      72         -0.544172        1.000000        0.00020163        0.00229690        0.00206363        0.00038330
      73         -0.542457        1.000000        0.00006568        0.00007155        0.00010476        0.00000470
      74         -0.541672        1.000000        0.00056529        0.00050454        0.00041795        0.00034372
      75         -0.541372        1.000000        0.00054562        0.00292453        0.00035464        0.00048659
      76         -0.538969        1.000000        0.00007575        0.00035863        0.00138105        0.00040323
      77         -0.538405        1.000000        0.00008638        0.00051098        0.00277528        0.00143648
      78         -0.536842        1.000000        0.00000894        0.03284260        0.01860777        0.00013269
      79         -0.535455        1.000000        0.00011559        0.00286075        0.00245321        0.00060909
      80         -0.535246        1.000000        0.00007722        0.00151166        0.00250432        0.00045409
      81         -0.534645        1.000000        0.00008317        0.00031909        0.00036496        0.00015940
      82         -0.534216        1.000000        0.00040348        0.00024028        0.00013434        0.00004976
      83         -0.533366        1.000000        0.00003338        0.00053320        0.00017361        0.00013444
      84         -0.531588        1.000000        0.00013845        0.00056574        0.00172868        0.00078687
      85         -0.531166        1.000000        0.00009654        0.00054142        0.00045844        0.00017123
      86         -0.530799        1.000000        0.00017586        0.00027038        0.00072973        0.00013982
      87         -0.529468        1.000000        0.00008207        0.00142264        0.00006024        0.00003907
      88         -0.529108        1.000000        0.00032831        0.00013151        0.00092415        0.00033220
      89         -0.527824        1.000000        0.00021503        0.01208254        0.02134728        0.00456784
      90         -0.526711        1.000000        0.00024340        0.00033520        0.00015042        0.00019830
      91         -0.526491        1.000000        0.00005094        0.00152708        0.00467078        0.00131464
      92         -0.517561        1.000000        0.00004996        0.05639441        0.00112733        0.00066825
      93         -0.517003        1.000000        0.00014861        0.00164098        0.03907458        0.02049258
      94         -0.515682        1.000000        0.00011122        0.00052329        0.03504008        0.02254079
      95         -0.510532        1.000000        0.00006082        0.05654642        0.00134479        0.00048511
      96         -0.495939        1.000000        0.00001760        0.00005726        0.00006920        0.00003482
      97         -0.492347        1.000000        0.00000381        0.00000323        0.00000605        0.00000841
      98         -0.488464        1.000000        0.00000730        0.00142281        0.07102970        0.00032307
      99         -0.485771        1.000000        0.00000726        0.06843202        0.00033539        0.00084041
     100         -0.481873        1.000000        0.00004640        0.00031501        0.06642058        0.00878268
     101         -0.481853        1.000000        0.00000014        0.00000052        0.00001613        0.00000269
     102         -0.478791        1.000000        0.00000298        0.00147945        0.00708855        0.00646547
     103         -0.476727        1.000000        0.00000029        0.00000266        0.00000193        0.00000264
     104         -0.476429        1.000000        0.00001299        0.00008510        0.00001440        0.00000257
     105         -0.475834        1.000000        0.00000542        0.00208869        0.03327185        0.03158318
     106         -0.474018        1.000000        0.00000344        0.07439622        0.00915589        0.00037228
     107         -0.473222        1.000000        0.00000087        0.00109360        0.00017025        0.00162464
     108         -0.473153        1.000000        0.00000041        0.00001156        0.00000754        0.00000346
     109         -0.473144        1.000000        0.00000003        0.00000039        0.00000059        0.00000190
     110         -0.472368        1.000000        0.00001065        0.06134417        0.00172113        0.00604176
     111         -0.470384        1.000000        0.00015430        0.06388521        0.00104577        0.00423001
     112         -0.469901        1.000000        0.00000065        0.00032574        0.00000811        0.00004322
     113         -0.469845        1.000000        0.00000060        0.00032769        0.00020190        0.00000537
     114         -0.469278        1.000000        0.00000380        0.00006164        0.00003011        0.00002521
     115         -0.469153        1.000000        0.00000042        0.00001881        0.00000448        0.00000536
     116         -0.466985        1.000000        0.00008048        0.00017422        0.00199731        0.00011169
     117         -0.462309        1.000000        0.00028798        0.00544963        0.07567943        0.00374253
     118         -0.456511        1.000000        0.00000084        0.00000605        0.00000610        0.00000127
     119         -0.455715        1.000000        0.00000007        0.00000013        0.00000192        0.00000123
     120         -0.454708        1.000000        0.00000001        0.00006137        0.00001706        0.00000142
     121         -0.454685        1.000000        0.00003806        0.00804883        0.00136016        0.00027877
     122         -0.453834        1.000000        0.00000182        0.00000272        0.00076935        0.00002695
     123         -0.451728        1.000000        0.00000883        0.00014163        0.00006903        0.00005780
     124         -0.445444        1.000000        0.00000020        0.00092120        0.00008373        0.00000152
     125         -0.443410        1.000000        0.00199890        0.00607042        0.00100390        0.04014502
     126         -0.442887        1.000000        0.00000014        0.00000069        0.00000135        0.00000272
     127         -0.440594        1.000000        0.00046275        0.00172300        0.00179553        0.00257389
     128         -0.439488        1.000000        0.00007218        0.00012999        0.00400187        0.00107136
     129         -0.435293        1.000000        0.00000185        0.00000909        0.00000868        0.00004703
     130         -0.435159        1.000000        0.00008642        0.00014202        0.00025491        0.00030135
     131         -0.433244        1.000000        0.00230054        0.00198217        0.00516981        0.01964971
     132         -0.431732        1.000000        0.01325853        0.00954138        0.01863228        0.12684943
     133         -0.431450        1.000000        0.00059192        0.00018779        0.00232566        0.00555086
     134         -0.431223        1.000000        0.00917829        0.00551775        0.01299681        0.08679785
     135         -0.429001        1.000000        0.00000951        0.00047280        0.00005167        0.00009163
     136         -0.427590        1.000000        0.02052535        0.00017151        0.11742310        0.19485421
     137         -0.427205        1.000000        0.01671793        0.00034908        0.06464225        0.18981806
     138         -0.426868        1.000000        0.00010252        0.00000742        0.00047206        0.00114110
     139         -0.425713        1.000000        0.00390110        0.00022523        0.01253805        0.04004935
     140         -0.424632        1.000000        0.00318168        0.00024977        0.01066892        0.03495868
     141         -0.422239        1.000000        0.00036108        0.00027033        0.00251836        0.00333113
     142         -0.416783        1.000000        0.00016357        0.00015766        0.00127225        0.00182547
     143         -0.415147        1.000000        0.00024822        0.00009491        0.00156521        0.00305263
     144         -0.412728        1.000000        0.00000620        0.00001726        0.00000775        0.00009987
     145         -0.412116        1.000000        0.00022073        0.00015887        0.00081294        0.00357263
     146         -0.411427        1.000000        0.00088210        0.00018585        0.00830838        0.00122634
     147         -0.408607        1.000000        0.00000000        0.00000001        0.00000004        0.00000001
     148         -0.408036        1.000000        0.00000395        0.00001128        0.00001282        0.00007454
     149         -0.404541        1.000000        0.00022122        0.00000415        0.00085626        0.00386336
     150         -0.402796        1.000000        0.00000000        0.00000002        0.00000001        0.00000008
     151         -0.402536        1.000000        0.00000030        0.00000065        0.00000024        0.00000633
     152         -0.401556        1.000000        0.01488331        0.01506027        0.00015426        0.32584657
     153         -0.390389        1.000000        0.01300115        0.00947082        0.04162800        0.28922629
     154         -0.389239        1.000000        0.01057482        0.00233816        0.13317117        0.16706909
     155         -0.389089        1.000000        0.00002714        0.00002465        0.00010116        0.00052762
     156         -0.388133        1.000000        0.00002205        0.00005345        0.00005120        0.00042919
     157         -0.387104        1.000000        0.00171224        0.00045068        0.01903616        0.02230257
     158         -0.386843        1.000000        0.01101761        0.01968102        0.03920748        0.28776845
     159         -0.369031        1.000000        0.00004618        0.00150793        0.45106760        0.06949486
     160         -0.366825        1.000000        0.00000025        0.49743661        0.01053844        0.02945538
     161         -0.365662        1.000000        0.00000256        0.52158996        0.00146388        0.00070014
     162         -0.365435        1.000000        0.00004028        0.44552259        0.04881459        0.02812504
     163         -0.363581        1.000000        0.00001897        0.07759317        0.27997678        0.16726295
     164         -0.362747        1.000000        0.00001691        0.00261706        0.39978960        0.12412028
     165         -0.354303        1.000000        0.00005813        0.28568519        0.07947081        0.01838800
     166         -0.346624        1.000000        0.00014651        0.39821145        0.01075220        0.00222694
     167         -0.343264        1.000000        0.00000511        0.10198561        0.40621889        0.00715957
     168         -0.342671        1.000000        0.00002161        0.06248340        0.29734627        0.08443377
     169         -0.342163        1.000000        0.00005960        0.43157562        0.01681412        0.00008907
     170         -0.333861        1.000000        0.00003821        0.01041054        0.25387314        0.21477409
     171         -0.333412        1.000000        0.00000028        0.00535954        0.43578930        0.07168673
     172         -0.333247        1.000000        0.00000194        0.01073771        0.00290024        0.00009730
     173         -0.332645        1.000000        0.00002682        0.39113272        0.09647020        0.00177615
     174         -0.332501        1.000000        0.00000180        0.00070921        0.01287363        0.01193837
     175         -0.328601        1.000000        0.00001919        0.09762563        0.02797232        0.00000719
     176         -0.322271        1.000000        0.00000287        0.06234013        0.00046656        0.00772494
     177         -0.316175        1.000000        0.00000711        0.00001743        0.00035848        0.00008847
     178         -0.315056        1.000000        0.00000040        0.00000966        0.00001457        0.00000538
     179         -0.313997        1.000000        0.00000600        0.00027892        0.00009475        0.00003018
     180         -0.309872        1.000000        0.00000265        0.04406447        0.00000782        0.00274592
     181         -0.307402        1.000000        0.00006893        0.00023564        0.00024505        0.00094972
     182         -0.306586        1.000000        0.00000901        0.01021253        0.02488373        0.00112252
     183         -0.303819        1.000000        0.00000043        0.00002906        0.00001308        0.00000063
     184         -0.296003        1.000000        0.00000017        0.00000030        0.00000696        0.00000010
     185         -0.293157        1.000000        0.00002975        0.00031465        0.00010577        0.00010001
     186         -0.290720        1.000000        0.00000408        0.00000453        0.00000293        0.00000477
     187         -0.288486        1.000000        0.00000007        0.00000743        0.00001200        0.00000983
     188         -0.283885        1.000000        0.00000066        0.02302676        0.00227201        0.00878220
     189         -0.271068        1.000000        0.00000457        0.00555489        0.01754759        0.00000284
     190         -0.270646        1.000000        0.00000175        0.00022671        0.00008244        0.00010103
     191         -0.268533        1.000000        0.00004471        0.00016519        0.00054449        0.00005603
     192         -0.267295        1.000000        0.00000140        0.00030488        0.00002100        0.00000019
     193         -0.266277        1.000000        0.00000044        0.01874410        0.00387197        0.00375869
     194         -0.264134        1.000000        0.00001557        0.00001756        0.00003657        0.00007921
     195         -0.261932        1.000000        0.00000719        0.00003957        0.00005642        0.00001191
     196         -0.258603        1.000000        0.00000063        0.00000368        0.00000283        0.00000123
     197         -0.253815        1.000000        0.00000010        0.00095249        0.00010875        0.00038384
     198         -0.253180        1.000000        0.00003077        0.00093979        0.00036529        0.00006801
     199         -0.251846        1.000000        0.00001794        0.00175676        0.00049861        0.00059080
     200         -0.250790        1.000000        0.00002680        0.00097364        0.00011095        0.00062339
     201         -0.248438        1.000000        0.00002754        0.00013820        0.00001745        0.00007189
     202         -0.247757        1.000000        0.00002540        0.00492138        0.00044433        0.00206076
     203         -0.245818        1.000000        0.00003004        0.00023834        0.00006457        0.00004492
     204         -0.245130        1.000000        0.00005515        0.00853867        0.00056686        0.00169779
     205         -0.244923        1.000000        0.00006658        0.00482192        0.00031590        0.00159114
     206         -0.241962        1.000000        0.00002751        0.00049365        0.00007420        0.00009022
     207         -0.240518        1.000000        0.00003320        0.00022793        0.00021504        0.00025961
     208         -0.240420        1.000000        0.00004818        0.00008774        0.00007785        0.00003923
     209         -0.239952        1.000000        0.00000544        0.00002688        0.00002031        0.00002573
     210         -0.237520        1.000000        0.00000670        0.00042711        0.00014745        0.00019201
     211         -0.237115        1.000000        0.00001724        0.00059173        0.00017312        0.00036665
     212         -0.236829        1.000000        0.00003085        0.00132261        0.00034657        0.00168296
     213         -0.236560        1.000000        0.00003342        0.00012595        0.00007597        0.00009733
     214         -0.236259        1.000000        0.00014317        0.00045127        0.00016507        0.00006716
     215         -0.236043        1.000000        0.00004995        0.00042152        0.00016907        0.00008889
     216         -0.235533        1.000000        0.00001119        0.00094160        0.00015171        0.00052455
     217         -0.235090        1.000000        0.00001557        0.00016778        0.00007809        0.00003772
     218         -0.233900        1.000000        0.00001714        0.00011251        0.00003303        0.00002405
     219         -0.233276        1.000000        0.00002152        0.00012501        0.00014912        0.00007130
     220         -0.232827        1.000000        0.00002498        0.00019618        0.00007588        0.00007562
     221         -0.231853        1.000000        0.00008423        0.00070842        0.00003407        0.00014696
     222         -0.231551        1.000000        0.00002709        0.00020142        0.00024598        0.00004698
     223         -0.230437        1.000000        0.00001661        0.00021962        0.00053391        0.00012992
     224         -0.230191        1.000000        0.00001761        0.00019295        0.00003470        0.00007159
     225         -0.229598        1.000000        0.00001334        0.00198903        0.00395362        0.00021284
     226         -0.228202        1.000000        0.00003068        0.00008197        0.00009998        0.00001873
     227         -0.227566        1.000000        0.00005019        0.00008794        0.00048745        0.00010210
     228         -0.225378        1.000000        0.00004405        0.00249107        0.00086587        0.00422951
     229         -0.223679        1.000000        0.00016576        0.00051195        0.00017651        0.00043785
     230         -0.222533        1.000000        0.00018210        0.00035186        0.00034195        0.00036102
     231         -0.221935        1.000000        0.00006243        0.00060549        0.00014226        0.00079322
     232         -0.221612        1.000000        0.00004123        0.00073300        0.00011584        0.00039996
     233         -0.221513        1.000000        0.00000008        0.00000075        0.00000022        0.00000117
     234         -0.219732        1.000000        0.00002095        0.00005363        0.00002000        0.00001429
     235         -0.218474        1.000000        0.00012350        0.00019812        0.00008476        0.00025900
     236         -0.218277        1.000000        0.00007098        0.00007998        0.00019643        0.00005784
     237         -0.216704        1.000000        0.00005652        0.00030339        0.00031363        0.00016487
     238         -0.216358        1.000000        0.00008873        0.00032534        0.00010040        0.00022960
     239         -0.216154        1.000000        0.00008018        0.00034926        0.00037204        0.00016597
     240         -0.215904        1.000000        0.00005093        0.00007238        0.00018161        0.00012634
     241         -0.215303        1.000000        0.00000215        0.00000532        0.00000410        0.00000782
     242         -0.214886        1.000000        0.00002522        0.00003122        0.00006780        0.00011900
     243         -0.213807        1.000000        0.00002214        0.00006455        0.00023303        0.00016399
     244         -0.212654        1.000000        0.00003525        0.00007878        0.00007245        0.00006686
     245         -0.211146        1.000000        0.00004999        0.00008392        0.00003842        0.00005904
     246         -0.210241        1.000000        0.00000919        0.00003510        0.00002918        0.00001577
     247         -0.208730        1.000000        0.00023295        0.00032200        0.00012734        0.00014736
     248         -0.208500        1.000000        0.00001324        0.00044035        0.00197307        0.00076217
     249         -0.207161        1.000000        0.00004139        0.00038254        0.00082359        0.00011781
     250         -0.206147        1.000000        0.00018343        0.00026938        0.00101467        0.00016217
     251         -0.206054        1.000000        0.00071297        0.00099528        0.00028137        0.00030860
     252         -0.204956        1.000000        0.00008086        0.00025831        0.00008438        0.00011054
     253         -0.204359        1.000000        0.00013665        0.00010810        0.00020477        0.00020917
     254         -0.204125        1.000000        0.00003466        0.00008503        0.00007322        0.00003728
     255         -0.203892        1.000000        0.00003904        0.00024850        0.00008083        0.00010612
     256         -0.203453        1.000000        0.00017219        0.00047142        0.00017724        0.00013293
     257         -0.202584        1.000000        0.00002908        0.00013846        0.00024120        0.00012990
     258         -0.200762        1.000000        0.00013847        0.00021709        0.00079356        0.00264667
     259         -0.200337        1.000000        0.00018693        0.00005531        0.00014080        0.00016308