# Projected DOS for atomic kind H at iteration step i = 0, E(Fermi) =    -0.147857 a.u.
#     MO Eigenvalue [a.u.]      Occupation                 s
       1         -0.933210        1.000000        0.25527324
       2         -0.927480        1.000000        0.26081329
       3         -0.918407        1.000000        0.25473781
       4         -0.915289        1.000000        0.25452075
       5         -0.914663        1.000000        0.25372733
       6         -0.914597        1.000000        0.28279383
       7         -0.912466        1.000000        0.25342904
       8         -0.911133        1.000000        0.25428353
       9         -0.910969        1.000000        0.25660035
      10         -0.910401        1.000000        0.25697859
      11         -0.908647        1.000000        0.25385823
      12         -0.906332        1.000000        0.25383323
      13         -0.901773        1.000000        0.25470218
      14         -0.900397        1.000000        0.28065755
      15         -0.898737        1.000000        0.27842672
      16         -0.897086        1.000000        0.25403992
      17         -0.894686        1.000000        0.26027444
      18         -0.889914        1.000000        0.25091807
      19         -0.886748        1.000000        0.25602413
      20         -0.884074        1.000000        0.25546087
      21         -0.879924        1.000000        0.26069588
      22         -0.879380        1.000000        0.21704044
      23         -0.877922        1.000000        0.21538944
      24         -0.873064        1.000000        0.25521793
      25         -0.870941        1.000000        0.25250421
      26         -0.869833        1.000000        0.24982628
      27         -0.867188        1.000000        0.26259102
      28         -0.864884        1.000000        0.23442815
      29         -0.864728        1.000000        0.25009843
      30         -0.860576        1.000000        0.24891362
      31         -0.857628        1.000000        0.26189978
      32         -0.855406        1.000000        0.23559306
      33         -0.849923        1.000000        0.25787203
      34         -0.848779        1.000000        0.24884597
      35         -0.845158        1.000000        0.25741589
      36         -0.843940        1.000000        0.14971828
      37         -0.843860        1.000000        0.25768096
      38         -0.842321        1.000000        0.24562849
      39         -0.841171        1.000000        0.23797959
      40         -0.840185        1.000000        0.25326152
      41         -0.838879        1.000000        0.22977420
      42         -0.837238        1.000000        0.23464866
      43         -0.833572        1.000000        0.25562029
      44         -0.830972        1.000000        0.23006118
      45         -0.825578        1.000000        0.23880288
      46         -0.822145        1.000000        0.23696954
      47         -0.652310        1.000000        0.33997476
      48         -0.648047        1.000000        0.34873453
      49         -0.647158        1.000000        0.34764759
      50         -0.622363        1.000000        0.36200617
      51         -0.612261        1.000000        0.36553654
      52         -0.611039        1.000000        0.36372175
      53         -0.609915        1.000000        0.37130801
      54         -0.599358        1.000000        0.00440147
      55         -0.596124        1.000000        0.00994703
      56         -0.569681        1.000000        0.01513992
      57         -0.567384        1.000000        0.00423130
      58         -0.564819        1.000000        0.00918091
      59         -0.559375        1.000000        0.03456421
      60         -0.558057        1.000000        0.03025585
      61         -0.557231        1.000000        0.00621947
      62         -0.556732        1.000000        0.02948791
      63         -0.555653        1.000000        0.01285452
      64         -0.553950        1.000000        0.01490450
      65         -0.551248        1.000000        0.01790920
      66         -0.549237        1.000000        0.01377174
      67         -0.548284        1.000000        0.00668528
      68         -0.547662        1.000000        0.01365315
      69         -0.547290        1.000000        0.01059958
      70         -0.546296        1.000000        0.03530808
      71         -0.545809        1.000000        0.02217485
      72         -0.544172        1.000000        0.03594050
      73         -0.542457        1.000000        0.00428238
      74         -0.541672        1.000000        0.00860658
      75         -0.541372        1.000000        0.02239950
      76         -0.538969        1.000000        0.01447033
      77         -0.538405        1.000000        0.03066585
      78         -0.536842        1.000000        0.27909277
      79         -0.535455        1.000000        0.03722693
      80         -0.535246        1.000000        0.02801115
      81         -0.534645        1.000000        0.00740158
      82         -0.534216        1.000000        0.00905579
      83         -0.533366        1.000000        0.01553835
      84         -0.531588        1.000000        0.02051717
      85         -0.531166        1.000000        0.00977102
      86         -0.530799        1.000000        0.01164577
      87         -0.529468        1.000000        0.04345283
      88         -0.529108        1.000000        0.01077774
      89         -0.527824        1.000000        0.18383439
      90         -0.526711        1.000000        0.01067983
      91         -0.526491        1.000000        0.03624361
      92         -0.517561        1.000000        0.26324225
      93         -0.517003        1.000000        0.27753747
      94         -0.515682        1.000000        0.26141582
      95         -0.510532        1.000000        0.23013633
      96         -0.495939        1.000000        0.34952690
      97         -0.492347        1.000000        0.32891406
      98         -0.488464        1.000000        0.31399739
      99         -0.485771        1.000000        0.32343358
     100         -0.481873        1.000000        0.33515020
     101         -0.481853        1.000000        0.35634163
     102         -0.478791        1.000000        0.34716233
     103         -0.476727        1.000000        0.34152812
     104         -0.476429        1.000000        0.35572186
     105         -0.475834        1.000000        0.33819031
     106         -0.474018        1.000000        0.32945047
     107         -0.473222        1.000000        0.35230473
     108         -0.473153        1.000000        0.33388987
     109         -0.473144        1.000000        0.35070018
     110         -0.472368        1.000000        0.32230731
     111         -0.470384        1.000000        0.32028500
     112         -0.469901        1.000000        0.35157118
     113         -0.469845        1.000000        0.35766225
     114         -0.469278        1.000000        0.35708576
     115         -0.469153        1.000000        0.32977763
     116         -0.466985        1.000000        0.34605519
     117         -0.462309        1.000000        0.31983254
     118         -0.456511        1.000000        0.35658107
     119         -0.455715        1.000000        0.34164783
     120         -0.454708        1.000000        0.32827895
     121         -0.454685        1.000000        0.34921940
     122         -0.453834        1.000000        0.34561251
     123         -0.451728        1.000000        0.34658766
     124         -0.445444        1.000000        0.36269615
     125         -0.443410        1.000000        0.32635452
     126         -0.442887        1.000000        0.36818391
     127         -0.440594        1.000000        0.34208729
     128         -0.439488        1.000000        0.34618267
     129         -0.435293        1.000000        0.34931887
     130         -0.435159        1.000000        0.34326189
     131         -0.433244        1.000000        0.03025948
     132         -0.431732        1.000000        0.10984102
     133         -0.431450        1.000000        0.35043054
     134         -0.431223        1.000000        0.08217216
     135         -0.429001        1.000000        0.34809043
     136         -0.427590        1.000000        0.17165377
     137         -0.427205        1.000000        0.13418338
     138         -0.426868        1.000000        0.33626773
     139         -0.425713        1.000000        0.03226903
     140         -0.424632        1.000000        0.02641583
     141         -0.422239        1.000000        0.00629858
     142         -0.416783        1.000000        0.00370412
     143         -0.415147        1.000000        0.00427332
     144         -0.412728        1.000000        0.35435421
     145         -0.412116        1.000000        0.01194309
     146         -0.411427        1.000000        0.34716708
     147         -0.408607        1.000000        0.37132722
     148         -0.408036        1.000000        0.34375140
     149         -0.404541        1.000000        0.35548150
     150         -0.402796        1.000000        0.37138755
     151         -0.402536        1.000000        0.36979650
     152         -0.401556        1.000000        0.17435276
     153         -0.390389        1.000000        0.17717045
     154         -0.389239        1.000000        0.17237009
     155         -0.389089        1.000000        0.36345473
     156         -0.388133        1.000000        0.34924384
     157         -0.387104        1.000000        0.17097561
     158         -0.386843        1.000000        0.17503568
     159         -0.369031        1.000000        0.41963606
     160         -0.366825        1.000000        0.41845985
     161         -0.365662        1.000000        0.42409894
     162         -0.365435        1.000000        0.42568601
     163         -0.363581        1.000000        0.42275332
     164         -0.362747        1.000000        0.42245492
     165         -0.354303        1.000000        0.31312152
     166         -0.346624        1.000000        0.33964087
     167         -0.343264        1.000000        0.42912253
     168         -0.342671        1.000000        0.36857559
     169         -0.342163        1.000000        0.36053755
     170         -0.333861        1.000000        0.41572296
     171         -0.333412        1.000000        0.42627742
     172         -0.333247        1.000000        0.12114340
     173         -0.332645        1.000000        0.42275132
     174         -0.332501        1.000000        0.13081645
     175         -0.328601        1.000000        0.18906921
     176         -0.322271        1.000000        0.16863026
     177         -0.316175        1.000000        0.11477957
     178         -0.315056        1.000000        0.11493826
     179         -0.313997        1.000000        0.10555638
     180         -0.309872        1.000000        0.13274699
     181         -0.307402        1.000000        0.03021356
     182         -0.306586        1.000000        0.15021255
     183         -0.303819        1.000000        0.10641742
     184         -0.296003        1.000000        0.10163496
     185         -0.293157        1.000000        0.01719118
     186         -0.290720        1.000000        0.07513185
     187         -0.288486        1.000000        0.10819916
     188         -0.283885        1.000000        0.11484652
     189         -0.271068        1.000000        0.10571402
     190         -0.270646        1.000000        0.10831726
     191         -0.268533        1.000000        0.08870260
     192         -0.267295        1.000000        0.08054177
     193         -0.266277        1.000000        0.07696442
     194         -0.264134        1.000000        0.04339361
     195         -0.261932        1.000000        0.08910100
     196         -0.258603        1.000000        0.07156508
     197         -0.253815        1.000000        0.00252240
     198         -0.253180        1.000000        0.01088325
     199         -0.251846        1.000000        0.02228726
     200         -0.250790        1.000000        0.01769236
     201         -0.248438        1.000000        0.00846209
     202         -0.247757        1.000000        0.01866590
     203         -0.245818        1.000000        0.00312174
     204         -0.245130        1.000000        0.03202627
     205         -0.244923        1.000000        0.01955938
     206         -0.241962        1.000000        0.00602512
     207         -0.240518        1.000000        0.00402540
     208         -0.240420        1.000000        0.00328335
     209         -0.239952        1.000000        0.01944815
     210         -0.237520        1.000000        0.00329470
     211         -0.237115        1.000000        0.00565579
     212         -0.236829        1.000000        0.01760715
     213         -0.236560        1.000000        0.02881432
     214         -0.236259        1.000000        0.00684993
     215         -0.236043        1.000000        0.00583543
     216         -0.235533        1.000000        0.00379141
     217         -0.235090        1.000000        0.00494675
     218         -0.233900        1.000000        0.00788837
     219         -0.233276        1.000000        0.01609791
     220         -0.232827        1.000000        0.01614634
     221         -0.231853        1.000000        0.00448801
     222         -0.231551        1.000000        0.01590368
     223         -0.230437        1.000000        0.00848464
     224         -0.230191        1.000000        0.01039901
     225         -0.229598        1.000000        0.03235449
     226         -0.228202        1.000000        0.00826346
     227         -0.227566        1.000000        0.00802117
     228         -0.225378        1.000000        0.02639081
     229         -0.223679        1.000000        0.00329126
     230         -0.222533        1.000000        0.00543865
     231         -0.221935        1.000000        0.00323577
     232         -0.221612        1.000000        0.00478741
     233         -0.221513        1.000000        0.07926864
     234         -0.219732        1.000000        0.06596498
     235         -0.218474        1.000000        0.02224084
     236         -0.218277        1.000000        0.02329716
     237         -0.216704        1.000000        0.02923099
     238         -0.216358        1.000000        0.00650474
     239         -0.216154        1.000000        0.02866893
     240         -0.215904        1.000000        0.01576467
     241         -0.215303        1.000000        0.07712697
     242         -0.214886        1.000000        0.01185717
     243         -0.213807        1.000000        0.00582291
     244         -0.212654        1.000000        0.01054483
     245         -0.211146        1.000000        0.00791969
     246         -0.210241        1.000000        0.04943361
     247         -0.208730        1.000000        0.00734064
     248         -0.208500        1.000000        0.01119599
     249         -0.207161        1.000000        0.00648718
     250         -0.206147        1.000000        0.02754814
     251         -0.206054        1.000000        0.00531132
     252         -0.204956        1.000000        0.00497765
     253         -0.204359        1.000000        0.00374673
     254         -0.204125        1.000000        0.00129607
     255         -0.203892        1.000000        0.00125261
     256         -0.203453        1.000000        0.00268225
     257         -0.202584        1.000000        0.00436094
     258         -0.200762        1.000000        0.00386985
     259         -0.200337        1.000000        0.01459446
     260         -0.199731        1.000000        0.01360870
     261         -0.197401        1.000000        0.00566710
     262         -0.195602        1.000000        0.01457944
     263         -0.195466        1.000000        0.00699675
     264         -0.194029        1.000000        0.00143985
     265         -0.193770        1.000000        0.02707466
     266         -0.193143        1.000000        0.00343829
     267         -0.192077        1.000000        0.00172846
     268         -0.191971        1.000000        0.00197106
     269         -0.191312        1.000000        0.00269377
     270         -0.190404        1.000000        0.00315491
     271         -0.190027        1.000000        0.00372994
     272         -0.189251        1.000000        0.00213199
     273         -0.188963        1.000000        0.00413386
     274         -0.187851        1.000000        0.00309974
     275         -0.187193        1.000000        0.00133469
     276         -0.185935        1.000000        0.00246319
     277         -0.184644        1.000000        0.00213981
     278         -0.183661        1.000000        0.00182672
     279         -0.182088        1.000000        0.00217795
     280         -0.181890        1.000000        0.00116515
     281         -0.181140        1.000000        0.00389101
     282         -0.179937        1.000000        0.00131302
     283         -0.179790        1.000000        0.01669810
     284         -0.179016        1.000000        0.00103526
     285         -0.178700        1.000000        0.00171804
     286         -0.178283        1.000000        0.00101021
     287         -0.177687        1.000000        0.00127384
     288         -0.177267        1.000000        0.00146242
     289         -0.175797        1.000000        0.00109975
     290         -0.175634        1.000000        0.00126196
     291         -0.175117        1.000000        0.00130092
     292         -0.174437        1.000000        0.00124504
     293         -0.174014        1.000000        0.00103466
     294         -0.173655        1.000000        0.00157775
     295         -0.172803        1.000000        0.00092544
     296         -0.172635        1.000000        0.00092829
     297         -0.172410        1.000000        0.00087866
     298         -0.171288        1.000000        0.00097890
     299         -0.170685        1.000000        0.00144207
     300         -0.170298        1.000000        0.00049866
     301         -0.170141        1.000000        0.00139303
     302         -0.169553        1.000000        0.00098118
     303         -0.168851        1.000000        0.00133093
     304         -0.168557        1.000000        0.00075113
     305         -0.168015        1.000000        0.00105066
     306         -0.167887        1.000000        0.00083659
     307         -0.167411        1.000000        0.00072871
     308         -0.167043        1.000000        0.00084095
     309         -0.166392        1.000000        0.00097441
     310         -0.165881        1.000000        0.00134910
     311         -0.165385        1.000000        0.00132998
     312         -0.164904        1.000000        0.00122103
     313         -0.164322        1.000000        0.00068107
     314         -0.163688        1.000000        0.00063468
     315         -0.163442        1.000000        0.00144816
     316         -0.162927        1.000000        0.00119480
     317         -0.162754        1.000000        0.00129945
     318         -0.162741        1.000000        0.00054532
     319         -0.161988        1.000000        0.00144286
     320         -0.161623        1.000000        0.00102006
     321         -0.161175        1.000000        0.00062813
     322         -0.160495        1.000000        0.00078876
     323         -0.159826        1.000000        0.00069221
     324         -0.159483        1.000000        0.00064197
     325         -0.159038        1.000000        0.00078720
     326         -0.158918        1.000000        0.00057872
     327         -0.158737        1.000000        0.00015907
     328         -0.158682        1.000000        0.00026006
     329         -0.158221        1.000000        0.00084711
     330         -0.157851        1.000000        0.00060822
     331         -0.157259        1.000000        0.00110420
     332         -0.156976        1.000000        0.00005145
     333         -0.155899        1.000000        0.00090925
     334         -0.155854        1.000000        0.00046036
     335         -0.155085        1.000000        0.00048859
     336         -0.154788        1.000000        0.00041509
     337         -0.154230        1.000000        0.00076982
     338         -0.153493        1.000000        0.00038079
     339         -0.153403        1.000000        0.00060021
     340         -0.152174        1.000000        0.00031235
     341         -0.151512        1.000000        0.00078377
     342         -0.151216        1.000000        0.00054946
     343         -0.150698        1.000000        0.00046556
     344         -0.150210        1.000000        0.00026249
     345         -0.149977        1.000000        0.00040677
     346         -0.149571        1.000000        0.00024299
     347         -0.149286        1.000000        0.00023670
     348         -0.149195        1.000000        0.00035030
     349         -0.148562        1.000000        0.00031586
     350         -0.147857        1.000000        0.00021690
     351         -0.147239        0.000000        0.00030355
     352         -0.143763        0.000000        0.00039417
     353         -0.140924        0.000000        0.00035330
     354         -0.137764        0.000000        0.00037100
     355         -0.136034        0.000000        0.00050320
     356         -0.107353        0.000000        0.00222479
     357         -0.097366        0.000000        0.00506928
     358         -0.035213        0.000000        0.00049477
     359         -0.029074        0.000000        0.00039663
     360         -0.023787        0.000000        0.00082978
     361         -0.018836        0.000000        0.00059080
     362         -0.018017        0.000000        0.00051203
     363         -0.016172        0.000000        0.00043826
     364         -0.012569        0.000000        0.00052222
     365         -0.009410        0.000000        0.00039131
     366         -0.008485        0.000000        0.00055495
     367         -0.006869        0.000000        0.00079504
     368         -0.005618        0.000000        0.00050135
     369         -0.004509        0.000000        0.00063503
     370         -0.002103        0.000000        0.00083217
     371          0.000377        0.000000        0.00047643
     372          0.004389        0.000000        0.00070234
     373          0.006140        0.000000        0.00046220
     374          0.010185        0.000000        0.00085666
     375          0.012986        0.000000        0.00045291
     376          0.014942        0.000000        0.00047650
     377          0.019129        0.000000        0.00132125
     378          0.019597        0.000000        0.00052867
     379          0.024603        0.000000        0.00063872
     380          0.025535        0.000000        0.00089214
     381          0.027006        0.000000        0.00039597
     382          0.133411        0.000000        0.00496215
     383          0.144769        0.000000        0.00492675
     384          0.147068        0.000000        0.00430659
     385          0.176141        0.000000        0.00524363
     386          0.188122        0.000000        0.00593989
     387          0.197872        0.000000        0.00651002
     388          0.201220        0.000000        0.00603776
     389          0.283230        0.000000        0.68377548
     390          0.287575        0.000000        0.68795865
     391          0.295808        0.000000        0.68746599
     392          0.299152        0.000000        0.68151580
     393          0.299706        0.000000        0.67949092
     394          0.300214        0.000000        0.68083167
     395          0.301931        0.000000        0.68156671
     396          0.302581        0.000000        0.68214161
     397          0.303198        0.000000        0.68910701
     398          0.308803        0.000000        0.68020838
     399          0.311529        0.000000        0.67504168
     400          0.321548        0.000000        0.65899220
     401          0.324228        0.000000        0.67969177
     402          0.326807        0.000000        0.66753130
     403          0.327081        0.000000        0.67687579
     404          0.330913        0.000000        0.68360318
     405          0.332578        0.000000        0.66847802
     406          0.333488        0.000000        0.66396520
     407          0.334321        0.000000        0.66426135
     408          0.337005        0.000000        0.66686697
     409          0.341145        0.000000        0.66345699
     410          0.343283        0.000000        0.66587836
     411          0.346129        0.000000        0.66586237
     412          0.347542        0.000000        0.67402088
     413          0.353899        0.000000        0.67056238
     414          0.356905        0.000000        0.63428271
     415          0.360124        0.000000        0.65988429
     416          0.360639        0.000000        0.66816990
     417          0.365370        0.000000        0.66382181
     418          0.368168        0.000000        0.66417293
     419          0.368726        0.000000        0.66133158
     420          0.370033        0.000000        0.64906046
     421          0.372357        0.000000        0.65467353
     422          0.373046        0.000000        0.65656719
     423          0.378887        0.000000        0.66258638
     424          0.380045        0.000000        0.64858677
     425          0.380757        0.000000        0.65802453
     426          0.381213        0.000000        0.65730680
     427          0.381378        0.000000        0.63431099
     428          0.381825        0.000000        0.64226275
     429          0.382459        0.000000        0.65549103
     430          0.384755        0.000000        0.66314133
     431          0.384785        0.000000        0.66036643
     432          0.385992        0.000000        0.65246929
     433          0.386152        0.000000        0.64354421
     434          0.387346        0.000000        0.64264337
     435          0.389080        0.000000        0.64018382
     436          0.390395        0.000000        0.66006357
     437          0.390822        0.000000        0.64644648
     438          0.391495        0.000000        0.64753454
     439          0.391843        0.000000        0.64532140
     440          0.391914        0.000000        0.65506976
     441          0.393272        0.000000        0.64630097
     442          0.393500        0.000000        0.65706169
     443          0.395967        0.000000        0.64042712
     444          0.396446        0.000000        0.64635838
     445          0.397175        0.000000        0.65042614
     446          0.398579        0.000000        0.65394618
     447          0.402515        0.000000        0.64479924
     448          0.403934        0.000000        0.65423393
     449          0.405632        0.000000        0.64927691
     450          0.406360        0.000000        0.64602963
     451          0.406786        0.000000        0.64501585
     452          0.411135        0.000000        0.64280464
     453          0.411659        0.000000        0.63146814
     454          0.413917        0.000000        0.64750457
     455          0.417717        0.000000        0.64418635
     456          0.418989        0.000000        0.64694149
     457          0.419517        0.000000        0.64096479
     458          0.421384        0.000000        0.65219896
     459          0.428583        0.000000        0.64191483
     460          0.429287        0.000000        0.66397287
     461          0.440320        0.000000        0.64787736
     462          0.444165        0.000000        0.62867841
     463          0.444447        0.000000        0.64475785
     464          0.445421        0.000000        0.63001193
     465          0.449691        0.000000        0.64346694
     466          0.449940        0.000000        0.65951945
     467          0.450949        0.000000        0.62863910
     468          0.452420        0.000000        0.64834870
     469          0.456329        0.000000        0.65216402
     470          0.458340        0.000000        0.66408762
     471          0.459736        0.000000        0.63377410
     472          0.463818        0.000000        0.65011457
     473          0.464640        0.000000        0.65227648
     474          0.465012        0.000000        0.65211071
     475          0.465811        0.000000        0.65613931
     476          0.468698        0.000000        0.65451403
     477          0.469554        0.000000        0.65666801
     478          0.470466        0.000000        0.65399783
     479          0.476315        0.000000        0.64466842
     480          0.477282        0.000000        0.64626954
     481          0.485886        0.000000        0.66735483
     482          0.492624        0.000000        0.65331102
     483          0.494988        0.000000        0.65184454
     484          0.498419        0.000000        0.58531216
     485          0.501755        0.000000        0.64695734
     486          0.502748        0.000000        0.57960032
     487          0.503498        0.000000        0.58296334
     488          0.505615        0.000000        0.58218739
     489          0.508506        0.000000        0.66059624