# Projected DOS for atomic kind N at iteration step i = 0, E(Fermi) =    -0.144138 a.u.
#     MO Eigenvalue [a.u.]      Occupation                 s                py                pz                px
       1         -0.933235        1.000000        0.00034412        0.00002435        0.00000790        0.00000582
       2         -0.927486        1.000000        0.00000005        0.00000000        0.00000000        0.00000000
       3         -0.918328        1.000000        0.00000000        0.00000000        0.00000000        0.00000000
       4         -0.915292        1.000000        0.00032447        0.00002454        0.00000033        0.00000536
       5         -0.914672        1.000000        0.00007283        0.00000023        0.00000053        0.00000019
       6         -0.914622        1.000000        0.61294861        0.00000033        0.00007078        0.00024970
       7         -0.912474        1.000000        0.00000000        0.00000000        0.00000000        0.00000000
       8         -0.911113        1.000000        0.00122616        0.00000016        0.00000003        0.00000292
       9         -0.911000        1.000000        0.00000169        0.00000000        0.00000000        0.00000001
      10         -0.910432        1.000000        0.00003794        0.00000122        0.00000026        0.00000099
      11         -0.908659        1.000000        0.00000001        0.00000000        0.00000000        0.00000000
      12         -0.906363        1.000000        0.00000196        0.00000008        0.00000033        0.00000012
      13         -0.901797        1.000000        0.00000000        0.00000000        0.00000000        0.00000000
      14         -0.900407        1.000000        0.61110831        0.00000186        0.00010601        0.00000599
      15         -0.898744        1.000000        0.61110901        0.00000208        0.00014654        0.00001902
      16         -0.897061        1.000000        0.00000004        0.00000000        0.00000000        0.00000000
      17         -0.894699        1.000000        0.00011224        0.00000220        0.00000331        0.00000005
      18         -0.889951        1.000000        0.05360942        0.00034631        0.00009559        0.00015658
      19         -0.886765        1.000000        0.00146325        0.00003655        0.00000502        0.00000028
      20         -0.884450        1.000000        0.00000000        0.00000000        0.00000000        0.00000000
      21         -0.880053        1.000000        0.02146490        0.00007604        0.00002291        0.00010922
      22         -0.879398        1.000000        0.00000022        0.00000002        0.00000001        0.00000000
      23         -0.877932        1.000000        0.00000000        0.00000000        0.00000000        0.00000000
      24         -0.873004        1.000000        0.00000005        0.00000001        0.00000000        0.00000000
      25         -0.870949        1.000000        0.08287130        0.00030604        0.00001588        0.00005917
      26         -0.869857        1.000000        0.00007319        0.00000075        0.00000001        0.00000758
      27         -0.867209        1.000000        0.03728892        0.00007805        0.00010772        0.00000369
      28         -0.864927        1.000000        0.00004357        0.00000020        0.00000421        0.00000010
      29         -0.860863        1.000000        0.00000952        0.00000003        0.00000001        0.00000002
      30         -0.860719        1.000000        0.18778322        0.00006453        0.00000038        0.00001561
      31         -0.857646        1.000000        0.54863136        0.00247109        0.00043214        0.00007490
      32         -0.855446        1.000000        0.00000023        0.00000000        0.00000000        0.00000000
      33         -0.849928        1.000000        0.00000000        0.00000000        0.00000000        0.00000000
      34         -0.848803        1.000000        0.23060751        0.00003179        0.00020651        0.00000131
      35         -0.845145        1.000000        0.00000000        0.00000000        0.00000000        0.00000000
      36         -0.843897        1.000000        0.00000000        0.00000000        0.00000000        0.00000000
      37         -0.843894        1.000000        0.00000001        0.00000000        0.00000000        0.00000000
      38         -0.843787        1.000000        0.00054293        0.00000917        0.00000162        0.00000097
      39         -0.841308        1.000000        0.39018802        0.00383204        0.00058093        0.00128916
      40         -0.840216        1.000000        0.51098189        0.00448101        0.00006104        0.00074978
      41         -0.837542        1.000000        0.00000000        0.00000016        0.00000018        0.00000001
      42         -0.835820        1.000000        0.00000008        0.00000000        0.00000001        0.00000001
      43         -0.831510        1.000000        0.00000062        0.00000002        0.00000001        0.00000002
      44         -0.830998        1.000000        0.32618610        0.00148981        0.00440490        0.00001912
      45         -0.829165        1.000000        0.00000484        0.00000048        0.00000225        0.00000024
      46         -0.818072        1.000000        0.00000000        0.00000000        0.00000000        0.00000000
      47         -0.652338        1.000000        0.01533322        0.01389189        0.01813509        0.16931507
      48         -0.648067        1.000000        0.01872171        0.00001079        0.07827182        0.11196137
      49         -0.647174        1.000000        0.01759879        0.00000896        0.04832842        0.14348734
      50         -0.622393        1.000000        0.02345187        0.00018126        0.00183208        0.16775332
      51         -0.612288        1.000000        0.02528467        0.02735555        0.01498227        0.12277629
      52         -0.611095        1.000000        0.02701561        0.00317087        0.07850943        0.07794217
      53         -0.609943        1.000000        0.02934059        0.00197594        0.00337702        0.15421331
      54         -0.599361        1.000000        0.00014962        0.00402841        0.00010733        0.00023923
      55         -0.597035        1.000000        0.00043921        0.00012392        0.00175495        0.00154143
      56         -0.570757        1.000000        0.00019393        0.00466082        0.00423676        0.00156615
      57         -0.568331        1.000000        0.00004784        0.00096683        0.01652450        0.00345513
      58         -0.564542        1.000000        0.00005466        0.00124704        0.00013673        0.00049423
      59         -0.560707        1.000000        0.00005059        0.00213404        0.01232856        0.00208251
      60         -0.558764        1.000000        0.00072092        0.02862440        0.02044129        0.00754037
      61         -0.557644        1.000000        0.00069211        0.00742360        0.00587698        0.00167805
      62         -0.557446        1.000000        0.00023800        0.02660802        0.01631796        0.00606824
      63         -0.555277        1.000000        0.00020684        0.00774688        0.00932636        0.00172409
      64         -0.554459        1.000000        0.00027748        0.00993684        0.00893595        0.00157160
      65         -0.551288        1.000000        0.00016703        0.01600407        0.00846279        0.00110660
      66         -0.550474        1.000000        0.00012892        0.00546058        0.00216449        0.00014512
      67         -0.549410        1.000000        0.00023260        0.00621068        0.00103671        0.00068316
      68         -0.547077        1.000000        0.00004270        0.01413755        0.00338132        0.00150849
      69         -0.546932        1.000000        0.00018494        0.02663970        0.00854142        0.00252282
      70         -0.546531        1.000000        0.00008088        0.03155054        0.00531754        0.00256308
      71         -0.544984        1.000000        0.00001369        0.00338660        0.00047338        0.00026173
      72         -0.544276        1.000000        0.00014131        0.03442414        0.01039498        0.00220601
      73         -0.542701        1.000000        0.00042321        0.02367699        0.00280300        0.00095054
      74         -0.542212        1.000000        0.00054461        0.01494471        0.00126778        0.00096850
      75         -0.541682        1.000000        0.00007671        0.00100157        0.00118140        0.00066519
      76         -0.539268        1.000000        0.00013353        0.00257303        0.03007792        0.01618047
      77         -0.539144        1.000000        0.00000107        0.00006949        0.00023658        0.00034841
      78         -0.538607        1.000000        0.00003417        0.00389470        0.01871011        0.00714768
      79         -0.537411        1.000000        0.00009976        0.26112780        0.14865519        0.00014373
      80         -0.535586        1.000000        0.00011573        0.00235341        0.00303482        0.00064078
      81         -0.535208        1.000000        0.00012748        0.00195578        0.00058548        0.00036416
      82         -0.534945        1.000000        0.00019489        0.03493575        0.01212341        0.00380311
      83         -0.534229        1.000000        0.00011421        0.01774992        0.00241948        0.00086005
      84         -0.533757        1.000000        0.00002227        0.08913521        0.04741254        0.00072247
      85         -0.533266        1.000000        0.00009227        0.00166379        0.01960024        0.01200217
      86         -0.532334        1.000000        0.00031392        0.00415214        0.00242190        0.00031753
      87         -0.531972        1.000000        0.00023293        0.00265195        0.00509155        0.00122483
      88         -0.530298        1.000000        0.00012823        0.01031920        0.00437818        0.00322802
      89         -0.528398        1.000000        0.00043283        0.00273052        0.01663058        0.00202616
      90         -0.527939        1.000000        0.00050973        0.10279455        0.19933475        0.06758718
      91         -0.527320        1.000000        0.00008096        0.01467164        0.02700675        0.00942194
      92         -0.517591        1.000000        0.00006991        0.48994583        0.00863566        0.00227363
      93         -0.517123        1.000000        0.00043195        0.00898702        0.37437747        0.14899108
      94         -0.515801        1.000000        0.00046547        0.00175811        0.34256143        0.16002639
      95         -0.510507        1.000000        0.00004251        0.43971787        0.00414865        0.00407376
      96         -0.495989        1.000000        0.00000424        0.00068710        0.00052240        0.00000021
      97         -0.492596        1.000000        0.00000040        0.00004385        0.00007807        0.00001174
      98         -0.488452        1.000000        0.00000483        0.01029469        0.51458855        0.00555424
      99         -0.485800        1.000000        0.00066340        0.49344971        0.00288109        0.00204204
     100         -0.481925        1.000000        0.00005588        0.00163823        0.48842852        0.08079283
     101         -0.481809        1.000000        0.00000001        0.00000136        0.00000479        0.00000145
     102         -0.478823        1.000000        0.00000160        0.01024739        0.05039269        0.04484532
     103         -0.476800        1.000000        0.00000005        0.00000738        0.00000441        0.00000265
     104         -0.476437        1.000000        0.00000044        0.00000463        0.00004467        0.00001273
     105         -0.475873        1.000000        0.00001535        0.01313858        0.22639000        0.20483110
     106         -0.474074        1.000000        0.00002203        0.48577144        0.05925134        0.00314681
     107         -0.473238        1.000000        0.00000033        0.00009637        0.00003471        0.00002383
     108         -0.473214        1.000000        0.00001963        0.00082128        0.00032666        0.00201848
     109         -0.473166        1.000000        0.00000011        0.00000105        0.00000465        0.00000413
     110         -0.472401        1.000000        0.00148289        0.40214030        0.01116339        0.03935560
     111         -0.470432        1.000000        0.00136027        0.39879298        0.01224648        0.01776536
     112         -0.469953        1.000000        0.00001282        0.00238536        0.00008583        0.00017185
     113         -0.469896        1.000000        0.00000434        0.00199969        0.00149083        0.00001033
     114         -0.469290        1.000000        0.00000131        0.00063427        0.00002893        0.00000871
     115         -0.469220        1.000000        0.00000063        0.00013417        0.00001343        0.00001318
     116         -0.467022        1.000000        0.00000829        0.00254722        0.01236427        0.00045034
     117         -0.462347        1.000000        0.00184276        0.02752944        0.38844936        0.03750588
     118         -0.456538        1.000000        0.00000083        0.00003287        0.00001311        0.00001242
     119         -0.455749        1.000000        0.00000003        0.00000024        0.00001118        0.00000232
     120         -0.454742        1.000000        0.00000130        0.00015640        0.00001297        0.00002488
     121         -0.454710        1.000000        0.00032522        0.04109404        0.00412735        0.00337601
     122         -0.453869        1.000000        0.00000921        0.00002870        0.00319128        0.00020538
     123         -0.451767        1.000000        0.00002149        0.00083302        0.00014681        0.00000071
     124         -0.445483        1.000000        0.00005505        0.00548312        0.00028376        0.00031368
     125         -0.443415        1.000000        0.00094772        0.00589702        0.00412495        0.04735783
     126         -0.443002        1.000000        0.00000010        0.00000054        0.00000093        0.00000531
     127         -0.440650        1.000000        0.00057044        0.00982607        0.00121931        0.00079181
     128         -0.439480        1.000000        0.00010736        0.00004778        0.00367000        0.00238861
     129         -0.435181        1.000000        0.00001485        0.00189538        0.00003186        0.00024070
     130         -0.434150        1.000000        0.00000100        0.00001313        0.00000571        0.00007136
     131         -0.433505        1.000000        0.00082779        0.00142826        0.00137342        0.02216433
     132         -0.431609        1.000000        0.00697864        0.02664522        0.04384926        0.27403457
     133         -0.431454        1.000000        0.00027373        0.00016426        0.00334734        0.00472743
     134         -0.430242        1.000000        0.00003499        0.00006526        0.00042623        0.00173691
     135         -0.429021        1.000000        0.00002593        0.00255159        0.00047555        0.00009213
     136         -0.427806        1.000000        0.00616643        0.00055916        0.10044396        0.21003478
     137         -0.427483        1.000000        0.00551988        0.00037485        0.08538767        0.20089171
     138         -0.426921        1.000000        0.00004776        0.00001576        0.00094973        0.00184964
     139         -0.426205        1.000000        0.00181365        0.00026986        0.02284375        0.06442262
     140         -0.425523        1.000000        0.00287537        0.00034618        0.03360075        0.11762729
     141         -0.423444        1.000000        0.00019273        0.00052675        0.00455150        0.00999764
     142         -0.417334        1.000000        0.00010406        0.00031634        0.00122414        0.00209447
     143         -0.415020        1.000000        0.00009982        0.00012185        0.00129010        0.00536108
     144         -0.413252        1.000000        0.00001018        0.00000016        0.00013885        0.00004380
     145         -0.412644        1.000000        0.00016806        0.00011217        0.00092281        0.00474652
     146         -0.411531        1.000000        0.00011334        0.00043435        0.00273509        0.00311084
     147         -0.408616        1.000000        0.00000000        0.00000000        0.00000003        0.00000005
     148         -0.407171        1.000000        0.00000725        0.00005194        0.00000814        0.00004785
     149         -0.405189        1.000000        0.00000792        0.00000015        0.00001901        0.00192706
     150         -0.402841        1.000000        0.00000000        0.00000001        0.00000000        0.00000012
     151         -0.402527        1.000000        0.00000027        0.00000006        0.00000027        0.00001113
     152         -0.401580        1.000000        0.00967939        0.00000979        0.00773320        0.41092290
     153         -0.390412        1.000000        0.00887483        0.06630735        0.04767895        0.30249583
     154         -0.389268        1.000000        0.00703731        0.00344011        0.17806567        0.18592987
     155         -0.388154        1.000000        0.00001266        0.00002686        0.00005790        0.00044691
     156         -0.387583        1.000000        0.00000867        0.00005114        0.00003568        0.00029592
     157         -0.387096        1.000000        0.00102736        0.00045474        0.02449475        0.02488866
     158         -0.386870        1.000000        0.00762571        0.00689118        0.01645836        0.39598673
     159         -0.369068        1.000000        0.00002722        0.00009795        0.02884487        0.00529285
     160         -0.366836        1.000000        0.00000084        0.03102772        0.00067164        0.00178139
     161         -0.365696        1.000000        0.00000058        0.04097990        0.00012702        0.00008437
     162         -0.365465        1.000000        0.00000489        0.03842390        0.00474985        0.00198679
     163         -0.363608        1.000000        0.00001299        0.00603792        0.02171444        0.01397060
     164         -0.362761        1.000000        0.00000680        0.00015639        0.03196766        0.01037462
     165         -0.354355        1.000000        0.00124726        0.00012900        0.00006938        0.01505120
     166         -0.346674        1.000000        0.00090876        0.00296125        0.00116805        0.01509405
     167         -0.343276        1.000000        0.00000336        0.01151543        0.03785403        0.00068668
     168         -0.342703        1.000000        0.00071751        0.00037798        0.00081606        0.01605779
     169         -0.342190        1.000000        0.00066316        0.00303829        0.00672926        0.00765459
     170         -0.333889        1.000000        0.00000198        0.00146209        0.02960774        0.02148871
     171         -0.333444        1.000000        0.00002326        0.00013975        0.04281292        0.00544242
     172         -0.333276        1.000000        0.00000211        0.00106154        0.00044933        0.00001511
     173         -0.332672        1.000000        0.00000469        0.03803778        0.01603128        0.00040492
     174         -0.332534        1.000000        0.00000214        0.00012012        0.00131550        0.00138940
     175         -0.328639        1.000000        0.00113296        0.04293284        0.01071072        0.00154253
     176         -0.322318        1.000000        0.00062780        0.02359027        0.00094262        0.00598982
     177         -0.316135        1.000000        0.00000010        0.00000008        0.00001989        0.00000146
     178         -0.315146        1.000000        0.00000002        0.00000039        0.00000195        0.00000131
     179         -0.313380        1.000000        0.00000046        0.00001267        0.00000491        0.00001720
     180         -0.309884        1.000000        0.00097945        0.02899912        0.00020596        0.00470478
     181         -0.307536        1.000000        0.00000743        0.00013174        0.00003628        0.00046491
     182         -0.306609        1.000000        0.00140785        0.01088801        0.02920756        0.00008433
     183         -0.303845        1.000000        0.00000005        0.00000159        0.00000146        0.00000035
     184         -0.296212        1.000000        0.00000018        0.00000053        0.00000151        0.00000038
     185         -0.293174        1.000000        0.00002307        0.00011207        0.00001254        0.00004810
     186         -0.290755        1.000000        0.00000125        0.00000058        0.00000292        0.00000418
     187         -0.288050        1.000000        0.00000948        0.00002457        0.00002462        0.00002114
     188         -0.283955        1.000000        0.00573268        0.06092329        0.00797043        0.02767223
     189         -0.271099        1.000000        0.00599341        0.02186039        0.06967277        0.00000949
     190         -0.270224        1.000000        0.00024252        0.00115755        0.00007409        0.00027762
     191         -0.268551        1.000000        0.00002065        0.00001647        0.00001774        0.00007467
     192         -0.267324        1.000000        0.00003291        0.00056732        0.00002342        0.00006564
     193         -0.266304        1.000000        0.01115335        0.09977051        0.01932584        0.01140239
     194         -0.264292        1.000000        0.00001573        0.00003345        0.00000908        0.00002591
     195         -0.262429        1.000000        0.00000064        0.00000340        0.00000960        0.00000036
     196         -0.258928        1.000000        0.00000138        0.00000286        0.00001265        0.00000259
     197         -0.254445        1.000000        0.00051589        0.00172270        0.00037853        0.00025844
     198         -0.253837        1.000000        0.00099562        0.00704648        0.00137161        0.00095071
     199         -0.251896        1.000000        0.00083424        0.00398756        0.00044374        0.00103933
     200         -0.250838        1.000000        0.00218571        0.01125169        0.00112033        0.00307315
     201         -0.248713        1.000000        0.00238760        0.01576204        0.00055973        0.00300311
     202         -0.247637        1.000000        0.00004483        0.00046054        0.00011778        0.00011412
     203         -0.245868        1.000000        0.00106549        0.00999282        0.00015867        0.00153405
     204         -0.245305        1.000000        0.01040701        0.10058882        0.00169245        0.01619707
     205         -0.243717        1.000000        0.00023730        0.00298213        0.00034562        0.00047587
     206         -0.242499        1.000000        0.00013002        0.00188341        0.00020634        0.00049143
     207         -0.241990        1.000000        0.00034391        0.00759957        0.00014646        0.00076499
     208         -0.240311        1.000000        0.00003680        0.00079067        0.00014927        0.00005982
     209         -0.239560        1.000000        0.00000956        0.00012887        0.00003256        0.00001230
     210         -0.238218        1.000000        0.00016448        0.00116219        0.00105891        0.00010181
     211         -0.237330        1.000000        0.00182858        0.00941468        0.00254897        0.00404771
     212         -0.236826        1.000000        0.00160069        0.00840115        0.00159077        0.00401087
     213         -0.236517        1.000000        0.00069932        0.00362937        0.00144867        0.00211346
     214         -0.236412        1.000000        0.00020301        0.00087719        0.00035149        0.00043457
     215         -0.236132        1.000000        0.00002099        0.00014477        0.00009117        0.00014091
     216         -0.235662        1.000000        0.00112642        0.00773951        0.00026160        0.00171187
     217         -0.235106        1.000000        0.00008726        0.00077961        0.00007115        0.00011781
     218         -0.233997        1.000000        0.00016484        0.00212592        0.00027487        0.00024792
     219         -0.233512        1.000000        0.00017959        0.00230533        0.00018214        0.00031719
     220         -0.233056        1.000000        0.00008519        0.00012509        0.00047039        0.00009219
     221         -0.232690        1.000000        0.00021948        0.00075154        0.00048739        0.00030742
     222         -0.231043        1.000000        0.00031610        0.00117247        0.00419964        0.00010244
     223         -0.230536        1.000000        0.00018560        0.00044096        0.00134488        0.00009370
     224         -0.229966        1.000000        0.00143952        0.00375496        0.00823202        0.00009588
     225         -0.229510        1.000000        0.00372562        0.00860284        0.02795992        0.00006042
     226         -0.228090        1.000000        0.00019465        0.00057927        0.00079069        0.00005678
     227         -0.226978        1.000000        0.00024573        0.00043188        0.00113079        0.00011112
     228         -0.225776        1.000000        0.00574045        0.02788232        0.00414414        0.01422321
     229         -0.224411        1.000000        0.00253528        0.01615014        0.00347169        0.00804717
     230         -0.223234        1.000000        0.00028305        0.00209470        0.00054597        0.00097028
     231         -0.222310        1.000000        0.00102271        0.00393564        0.00157899        0.00148600
     232         -0.221523        1.000000        0.00000116        0.00000096        0.00000113        0.00000185
     233         -0.220919        1.000000        0.00028551        0.00061251        0.00015781        0.00051568
     234         -0.219539        1.000000        0.00003681        0.00014252        0.00007011        0.00006966
     235         -0.218723        1.000000        0.00026871        0.00027199        0.00015708        0.00027422
     236         -0.218005        1.000000        0.00030110        0.00125838        0.00067814        0.00035104
     237         -0.217386        1.000000        0.00030282        0.00072832        0.00028518        0.00030137
     238         -0.216450        1.000000        0.00034163        0.00047886        0.00075281        0.00032415
     239         -0.215963        1.000000        0.00036263        0.00073597        0.00177325        0.00023052
     240         -0.215505        1.000000        0.00040034        0.00095552        0.00318066        0.00009794
     241         -0.215351        1.000000        0.00001418        0.00003201        0.00013808        0.00000405
     242         -0.214903        1.000000        0.00041638        0.00049206        0.00078628        0.00027823
     243         -0.214359        1.000000        0.00022218        0.00043641        0.00077647        0.00038126
     244         -0.212108        1.000000        0.00026716        0.00083015        0.00052465        0.00015080
     245         -0.211535        1.000000        0.00025782        0.00113186        0.00032971        0.00040669
     246         -0.210952        1.000000        0.00002253        0.00012018        0.00006236        0.00002093
     247         -0.209490        1.000000        0.00009612        0.00052835        0.00010230        0.00030949
     248         -0.208598        1.000000        0.00367874        0.00663902        0.01611032        0.00032207
     249         -0.207889        1.000000        0.00119587        0.00164577        0.00651605        0.00027407
     250         -0.207148        1.000000        0.00135265        0.00201522        0.00647306        0.00032724
     251         -0.206507        1.000000        0.00029429        0.00138704        0.00131691        0.00015247
     252         -0.205786        1.000000        0.00013092        0.00033852        0.00014419        0.00039194
     253         -0.205257        1.000000        0.00014095        0.00100948        0.00030323        0.00013590
     254         -0.204845        1.000000        0.00014531        0.00057462        0.00055913        0.00008301
     255         -0.204181        1.000000        0.00019150        0.00070588        0.00022359        0.00002797
     256         -0.203944        1.000000        0.00012025        0.00044962        0.00038310        0.00014834
     257         -0.202801        1.000000        0.00076924        0.00393303        0.00086716        0.00051331
     258         -0.201034        1.000000        0.00535650        0.00560764        0.00271222        0.00316499
     259         -0.200326        1.000000        0.00094904        0.00031625        0.00099200        0.00047580