# Projected DOS for atomic kind I at iteration step i = 0, E(Fermi) =    -0.147857 a.u.
#     MO Eigenvalue [a.u.]      Occupation                 s                py                pz                px
       1         -0.933210        1.000000        0.00001527        0.00009535        0.00000070        0.00003128
       2         -0.927480        1.000000        0.00007501        0.00010499        0.00012995        0.00012715
       3         -0.918407        1.000000        0.00005256        0.00021009        0.00000554        0.00007276
       4         -0.915289        1.000000        0.00000914        0.00004447        0.00002566        0.00000132
       5         -0.914663        1.000000        0.00001497        0.00000570        0.00007418        0.00005712
       6         -0.914597        1.000000        0.00011901        0.00022335        0.00032619        0.00007409
       7         -0.912466        1.000000        0.00051499        0.00038212        0.00067837        0.00002728
       8         -0.911133        1.000000        0.00003174        0.00000208        0.00007970        0.00008353
       9         -0.910969        1.000000        0.00034665        0.00010757        0.00051340        0.00056988
      10         -0.910401        1.000000        0.00003399        0.00008936        0.00004807        0.00010592
      11         -0.908647        1.000000        0.00002996        0.00003876        0.00016359        0.00000158
      12         -0.906332        1.000000        0.00003222        0.00003752        0.00000629        0.00016903
      13         -0.901773        1.000000        0.00046903        0.00023578        0.00046955        0.00019447
      14         -0.900397        1.000000        0.00019634        0.00046697        0.00038478        0.00023483
      15         -0.898737        1.000000        0.00016446        0.00046193        0.00014577        0.00021718
      16         -0.897086        1.000000        0.00003805        0.00002738        0.00004614        0.00016635
      17         -0.894686        1.000000        0.00015199        0.00019136        0.00017633        0.00031550
      18         -0.889914        1.000000        0.00002023        0.00005660        0.00008093        0.00002785
      19         -0.886748        1.000000        0.00000080        0.00000571        0.00000129        0.00000458
      20         -0.884074        1.000000        0.00003671        0.00003013        0.00022946        0.00000006
      21         -0.879924        1.000000        0.00005312        0.00002204        0.00011434        0.00023031
      22         -0.879380        1.000000        0.00169721        0.00009286        0.00240972        0.00144105
      23         -0.877922        1.000000        0.00269440        0.00134114        0.00223909        0.00032468
      24         -0.873064        1.000000        0.00006413        0.00011471        0.00010345        0.00011596
      25         -0.870941        1.000000        0.00001507        0.00004437        0.00004132        0.00002635
      26         -0.869833        1.000000        0.00000743        0.00001509        0.00000970        0.00004943
      27         -0.867188        1.000000        0.00001227        0.00008086        0.00008428        0.00003853
      28         -0.864884        1.000000        0.00038791        0.00117610        0.00020483        0.00005153
      29         -0.864728        1.000000        0.00000366        0.00000885        0.00003445        0.00000090
      30         -0.860576        1.000000        0.00005281        0.00008885        0.00008734        0.00008999
      31         -0.857628        1.000000        0.00008728        0.00009005        0.00025072        0.00006631
      32         -0.855406        1.000000        0.00031064        0.00002020        0.00110451        0.00005498
      33         -0.849923        1.000000        0.00000000        0.00000001        0.00000001        0.00000002
      34         -0.848779        1.000000        0.00005520        0.00010355        0.00007535        0.00004840
      35         -0.845158        1.000000        0.00000223        0.00000652        0.00000078        0.00001145
      36         -0.843940        1.000000        0.01310719        0.00540283        0.00862225        0.00032532
      37         -0.843860        1.000000        0.00000001        0.00000006        0.00000018        0.00000015
      38         -0.842321        1.000000        0.00004858        0.00000623        0.00002907        0.00023642
      39         -0.841171        1.000000        0.00003304        0.00005111        0.00005295        0.00008686
      40         -0.840185        1.000000        0.00010119        0.00025528        0.00008192        0.00010378
      41         -0.838879        1.000000        0.00013775        0.00009735        0.00044107        0.00007138
      42         -0.837238        1.000000        0.00005604        0.00004443        0.00000441        0.00027724
      43         -0.833572        1.000000        0.00009518        0.00007576        0.00004869        0.00021446
      44         -0.830972        1.000000        0.00006332        0.00011088        0.00011676        0.00004778
      45         -0.825578        1.000000        0.00000592        0.00000937        0.00004209        0.00000234
      46         -0.822145        1.000000        0.00002100        0.00001015        0.00007705        0.00000643
      47         -0.652310        1.000000        0.00101804        0.00023103        0.00023908        0.00007778
      48         -0.648047        1.000000        0.00137484        0.00026476        0.00021101        0.00014336
      49         -0.647158        1.000000        0.00255233        0.00049825        0.00056461        0.00038805
      50         -0.622363        1.000000        0.00104628        0.00006527        0.00027311        0.00005859
      51         -0.612261        1.000000        0.00142765        0.00021718        0.00028435        0.00010009
      52         -0.611039        1.000000        0.01490970        0.00044353        0.00033845        0.00051229
      53         -0.609915        1.000000        0.00194399        0.00034713        0.00012077        0.00031846
      54         -0.599358        1.000000        0.94945530        0.00095269        0.01479939        0.01622726
      55         -0.596124        1.000000        0.92004261        0.00533373        0.00593636        0.00041512
      56         -0.569681        1.000000        0.80520325        0.00614095        0.00689893        0.00759361
      57         -0.567384        1.000000        0.84708354        0.00478403        0.00680811        0.00562679
      58         -0.564819        1.000000        0.86736438        0.00841134        0.00580244        0.00309260
      59         -0.559375        1.000000        0.84175555        0.00331260        0.00470773        0.00135827
      60         -0.558057        1.000000        0.84850548        0.00320885        0.00247471        0.00314457
      61         -0.557231        1.000000        0.87720165        0.00343741        0.00406447        0.00391135
      62         -0.556732        1.000000        0.84691388        0.00340844        0.00414640        0.00248509
      63         -0.555653        1.000000        0.87198170        0.00299525        0.00615601        0.00463562
      64         -0.553950        1.000000        0.86635800        0.00231556        0.00453251        0.00355607
      65         -0.551248        1.000000        0.89292423        0.00227108        0.00429440        0.00366574
      66         -0.549237        1.000000        0.88733312        0.00215880        0.00257219        0.00299593
      67         -0.548284        1.000000        0.89201667        0.00223239        0.00346430        0.00214875
      68         -0.547662        1.000000        0.89328858        0.00159134        0.00258060        0.00177974
      69         -0.547290        1.000000        0.91950011        0.00133038        0.00216204        0.00097738
      70         -0.546296        1.000000        0.83007954        0.00283169        0.00287951        0.00238762
      71         -0.545809        1.000000        0.83483916        0.00331947        0.00355782        0.00401900
      72         -0.544172        1.000000        0.85245728        0.00156406        0.00169524        0.00183439
      73         -0.542457        1.000000        0.95519282        0.00031289        0.00076666        0.00050978
      74         -0.541672        1.000000        0.91631116        0.00154164        0.00121563        0.00146439
      75         -0.541372        1.000000        0.89725172        0.00105196        0.00080996        0.00112566
      76         -0.538969        1.000000        0.91426179        0.00137028        0.00084555        0.00062708
      77         -0.538405        1.000000        0.87795932        0.00118703        0.00072060        0.00102179
      78         -0.536842        1.000000        0.14434996        0.00099831        0.00072206        0.00118397
      79         -0.535455        1.000000        0.85484100        0.00218886        0.00170725        0.00152263
      80         -0.535246        1.000000        0.88446674        0.00217452        0.00260566        0.00106584
      81         -0.534645        1.000000        0.94502098        0.00070880        0.00045386        0.00125223
      82         -0.534216        1.000000        0.93083482        0.00078008        0.00080908        0.00159518
      83         -0.533366        1.000000        0.91910656        0.00139461        0.00125431        0.00121450
      84         -0.531588        1.000000        0.90786535        0.00157188        0.00068813        0.00032089
      85         -0.531166        1.000000        0.94268535        0.00055647        0.00089909        0.00062953
      86         -0.530799        1.000000        0.94256534        0.00037093        0.00054314        0.00069458
      87         -0.529468        1.000000        0.85603009        0.00066674        0.00077664        0.00035659
      88         -0.529108        1.000000        0.94449746        0.00031449        0.00040133        0.00073984
      89         -0.527824        1.000000        0.39599325        0.00131285        0.00243985        0.00124121
      90         -0.526711        1.000000        0.93546688        0.00025278        0.00182126        0.00091253
      91         -0.526491        1.000000        0.85312057        0.00095393        0.00087489        0.00161260
      92         -0.517561        1.000000        0.16680515        0.00465726        0.00021900        0.00097911
      93         -0.517003        1.000000        0.12617357        0.00134996        0.00213192        0.00115863
      94         -0.515682        1.000000        0.17419910        0.00126050        0.00070013        0.00119485
      95         -0.510532        1.000000        0.23857090        0.00380412        0.00080838        0.00207931
      96         -0.495939        1.000000        0.01260898        0.00159758        0.00016323        0.00033486
      97         -0.492347        1.000000        0.05357875        0.00104488        0.00079880        0.00240125
      98         -0.488464        1.000000        0.04387415        0.00110779        0.00355159        0.00128813
      99         -0.485771        1.000000        0.00491419        0.00115398        0.00024344        0.00011315
     100         -0.481873        1.000000        0.00921286        0.00154987        0.00109176        0.00054760
     101         -0.481853        1.000000        0.00332327        0.00171065        0.00029243        0.00081113
     102         -0.478791        1.000000        0.00681531        0.00198812        0.00069994        0.00021837
     103         -0.476727        1.000000        0.00758747        0.00095109        0.00041498        0.00202472
     104         -0.476429        1.000000        0.00334683        0.00002706        0.00093785        0.00081626
     105         -0.475834        1.000000        0.00654247        0.00243547        0.00018932        0.00076476
     106         -0.474018        1.000000        0.01640123        0.00303606        0.00129705        0.00125145
     107         -0.473222        1.000000        0.00656998        0.00023844        0.00188113        0.00224845
     108         -0.473153        1.000000        0.03867499        0.00065128        0.00030651        0.00573939
     109         -0.473144        1.000000        0.00359016        0.00130264        0.00029042        0.00042220
     110         -0.472368        1.000000        0.00308734        0.00083923        0.00086110        0.00022216
     111         -0.470384        1.000000        0.00480448        0.00200298        0.00063692        0.00064498
     112         -0.469901        1.000000        0.00419821        0.00107080        0.00028697        0.00122912
     113         -0.469845        1.000000        0.00409076        0.00071980        0.00028428        0.00270788
     114         -0.469278        1.000000        0.00102104        0.00050033        0.00024643        0.00005465
     115         -0.469153        1.000000        0.00796699        0.00152871        0.00056700        0.00255572
     116         -0.466985        1.000000        0.00055442        0.00003536        0.00009779        0.00003225
     117         -0.462309        1.000000        0.00380610        0.00047883        0.00203401        0.00031527
     118         -0.456511        1.000000        0.00321388        0.00029690        0.00007768        0.00175532
     119         -0.455715        1.000000        0.00565721        0.00207806        0.00016283        0.00173732
     120         -0.454708        1.000000        0.00059771        0.00007703        0.00019270        0.00373301
     121         -0.454685        1.000000        0.00067274        0.00046441        0.00009645        0.00017831
     122         -0.453834        1.000000        0.01283699        0.00346691        0.00212171        0.00278426
     123         -0.451728        1.000000        0.00076474        0.00000950        0.00009283        0.00054714
     124         -0.445444        1.000000        0.00011012        0.00013154        0.00003680        0.00004577
     125         -0.443410        1.000000        0.00056208        0.00014325        0.00024679        0.00061032
     126         -0.442887        1.000000        0.00012823        0.00003845        0.00022178        0.00010757
     127         -0.440594        1.000000        0.00033932        0.00011332        0.00056705        0.00037809
     128         -0.439488        1.000000        0.00024188        0.00008827        0.00021888        0.00014650
     129         -0.435293        1.000000        0.00036446        0.00017446        0.00009976        0.00046618
     130         -0.435159        1.000000        0.00125468        0.00077364        0.00033184        0.00054734
     131         -0.433244        1.000000        0.14935474        0.03831323        0.04001885        0.03904009
     132         -0.431732        1.000000        0.07946314        0.02063717        0.01977355        0.02188610
     133         -0.431450        1.000000        0.00516848        0.00313998        0.00105011        0.00239838
     134         -0.431223        1.000000        0.10306764        0.02740706        0.02635373        0.02793319
     135         -0.429001        1.000000        0.00081508        0.00061534        0.00056229        0.00015889
     136         -0.427590        1.000000        0.01010928        0.00435369        0.00368369        0.00399225
     137         -0.427205        1.000000        0.04199684        0.01154968        0.01364571        0.01219622
     138         -0.426868        1.000000        0.00803005        0.00231637        0.00102046        0.00233283
     139         -0.425713        1.000000        0.13686378        0.03787415        0.03638313        0.03382481
     140         -0.424632        1.000000        0.13470187        0.04280442        0.03843750        0.03240108
     141         -0.422239        1.000000        0.15014619        0.04856942        0.03370022        0.04205533
     142         -0.416783        1.000000        0.13951661        0.03380101        0.03916548        0.03765344
     143         -0.415147        1.000000        0.14124850        0.03215203        0.03342122        0.03654968
     144         -0.412728        1.000000        0.00008462        0.00007931        0.00002975        0.00001650
     145         -0.412116        1.000000        0.14548829        0.03143491        0.03365886        0.02782133
     146         -0.411427        1.000000        0.00325163        0.00065597        0.00074964        0.00052754
     147         -0.408607        1.000000        0.00000135        0.00000088        0.00000272        0.00000213
     148         -0.408036        1.000000        0.00269552        0.00184540        0.00032527        0.00030775
     149         -0.404541        1.000000        0.00031693        0.00006135        0.00005382        0.00005080
     150         -0.402796        1.000000        0.00000391        0.00001105        0.00000213        0.00001128
     151         -0.402536        1.000000        0.00021290        0.00028823        0.00003204        0.00038968
     152         -0.401556        1.000000        0.00351352        0.00067493        0.00220616        0.00069976
     153         -0.390389        1.000000        0.00074645        0.00076250        0.00093308        0.00046309
     154         -0.389239        1.000000        0.00279677        0.00821827        0.00501321        0.00380133
     155         -0.389089        1.000000        0.00276079        0.00146377        0.00110970        0.00472716
     156         -0.388133        1.000000        0.00124192        0.00048343        0.00113841        0.00026069
     157         -0.387104        1.000000        0.01169083        0.03849712        0.01597859        0.00367623
     158         -0.386843        1.000000        0.00178184        0.00213776        0.00091432        0.00089061
     159         -0.369031        1.000000        0.00093074        0.00194520        0.00196628        0.00051489
     160         -0.366825        1.000000        0.00084063        0.00192283        0.00211474        0.00035631
     161         -0.365662        1.000000        0.00136154        0.00539304        0.00237536        0.00116849
     162         -0.365435        1.000000        0.00116305        0.00264496        0.00017428        0.00097988
     163         -0.363581        1.000000        0.00048117        0.00126276        0.00030362        0.00091674
     164         -0.362747        1.000000        0.00094968        0.00171417        0.00156594        0.00373193
     165         -0.354303        1.000000        0.00017351        0.00102045        0.00066071        0.00039008
     166         -0.346624        1.000000        0.00077850        0.00161964        0.00209988        0.00053574
     167         -0.343264        1.000000        0.00044017        0.00090215        0.00238439        0.00047809
     168         -0.342671        1.000000        0.00056815        0.00134971        0.00089469        0.00241584
     169         -0.342163        1.000000        0.00033089        0.00066551        0.00097813        0.00270638
     170         -0.333861        1.000000        0.00048554        0.00448462        0.00362216        0.00262834
     171         -0.333412        1.000000        0.00072615        0.00334568        0.00334916        0.00093421
     172         -0.333247        1.000000        0.00389668        0.00248153        0.03116035        0.04356159
     173         -0.332645        1.000000        0.00080887        0.00267113        0.00218359        0.00352014
     174         -0.332501        1.000000        0.00263134        0.01589147        0.01493225        0.00726800
     175         -0.328601        1.000000        0.00011888        0.00061094        0.00084779        0.00031151
     176         -0.322271        1.000000        0.00033692        0.00060291        0.00089486        0.00246858
     177         -0.316175        1.000000        0.00036777        0.00028930        0.00252279        0.00531108
     178         -0.315056        1.000000        0.00007670        0.00026128        0.00174099        0.00137546
     179         -0.313997        1.000000        0.00001877        0.00002181        0.00017142        0.00092484
     180         -0.309872        1.000000        0.00031060        0.00307785        0.00184701        0.00105571
     181         -0.307402        1.000000        0.01023865        0.15798554        0.19523003        0.00951384
     182         -0.306586        1.000000        0.00077894        0.00332033        0.00276133        0.00387562
     183         -0.303819        1.000000        0.00005306        0.00130659        0.00086803        0.00041522
     184         -0.296003        1.000000        0.00000496        0.00040306        0.00012330        0.00089240
     185         -0.293157        1.000000        0.01475069        0.01039561        0.33295416        0.24142795
     186         -0.290720        1.000000        0.00029241        0.00118948        0.00242603        0.01497734
     187         -0.288486        1.000000        0.00015931        0.00463767        0.00140463        0.00014993
     188         -0.283885        1.000000        0.00025582        0.00054405        0.00180139        0.00650159
     189         -0.271068        1.000000        0.00121396        0.00780073        0.01133109        0.00956669
     190         -0.270646        1.000000        0.00060195        0.01049960        0.01361521        0.00662960
     191         -0.268533        1.000000        0.00014427        0.00084061        0.00511290        0.01211954
     192         -0.267295        1.000000        0.00001138        0.00119432        0.00022328        0.00022023
     193         -0.266277        1.000000        0.00011747        0.00339246        0.00181263        0.00039654
     194         -0.264134        1.000000        0.00033999        0.02927527        0.09087574        0.00540880
     195         -0.261932        1.000000        0.00004306        0.00054449        0.00333396        0.00161304
     196         -0.258603        1.000000        0.00036595        0.00506394        0.02175280        0.00348457
     197         -0.253815        1.000000        0.00006542        0.00195969        0.00114408        0.00219333
     198         -0.253180        1.000000        0.01054820        0.16847693        0.23096853        0.15394415
     199         -0.251846        1.000000        0.00875409        0.04895989        0.18320938        0.20377691
     200         -0.250790        1.000000        0.00621681        0.18255909        0.12284108        0.09826564
     201         -0.248438        1.000000        0.00231949        0.12460580        0.05896106        0.03702255
     202         -0.247757        1.000000        0.01064653        0.05675319        0.26937898        0.12068208
     203         -0.245818        1.000000        0.01182178        0.16640515        0.20384805        0.20196597
     204         -0.245130        1.000000        0.00450030        0.05003997        0.10109255        0.11136672
     205         -0.244923        1.000000        0.00937220        0.09599592        0.15005024        0.18014565
     206         -0.241962        1.000000        0.01046254        0.18333288        0.23277153        0.02539077
     207         -0.240518        1.000000        0.01136442        0.28840772        0.19735834        0.08449527
     208         -0.240420        1.000000        0.01068534        0.41697158        0.07939204        0.07762469
     209         -0.239952        1.000000        0.00135663        0.04020828        0.01527924        0.01873623
     210         -0.237520        1.000000        0.01106584        0.26270771        0.10390647        0.22019939
     211         -0.237115        1.000000        0.01113513        0.07773603        0.10132172        0.35416543
     212         -0.236829        1.000000        0.00265532        0.05861667        0.03633015        0.04221825
     213         -0.236560        1.000000        0.00336858        0.07653744        0.03623457        0.02001291
     214         -0.236259        1.000000        0.00129450        0.03958161        0.01472174        0.01259104
     215         -0.236043        1.000000        0.00522034        0.21464517        0.04796355        0.03497030
     216         -0.235533        1.000000        0.00166872        0.06384783        0.01448197        0.02028509
     217         -0.235090        1.000000        0.00488439        0.09469315        0.09182972        0.03489480
     218         -0.233900        1.000000        0.00453033        0.08258642        0.03923756        0.03093246
     219         -0.233276        1.000000        0.00308999        0.04843014        0.07632363        0.04155391
     220         -0.232827        1.000000        0.00273795        0.09439505        0.03204656        0.02393933
     221         -0.231853        1.000000        0.01354411        0.11419083        0.05442158        0.35910608
     222         -0.231551        1.000000        0.00673902        0.05960124        0.16661202        0.07430052
     223         -0.230437        1.000000        0.01035083        0.03035295        0.25297846        0.17116220
     224         -0.230191        1.000000        0.00384797        0.01590879        0.01987129        0.11401170
     225         -0.229598        1.000000        0.00379599        0.05007689        0.08327696        0.06198538
     226         -0.228202        1.000000        0.01127902        0.08461480        0.28451288        0.09768472
     227         -0.227566        1.000000        0.01188454        0.06585778        0.34714832        0.10677417
     228         -0.225378        1.000000        0.00164320        0.00781360        0.01230633        0.05627495
     229         -0.223679        1.000000        0.00409859        0.09537631        0.06817486        0.23765916
     230         -0.222533        1.000000        0.01032708        0.08067744        0.21103672        0.29986024
     231         -0.221935        1.000000        0.00276895        0.10617904        0.05069613        0.05120940
     232         -0.221612        1.000000        0.01071840        0.17249817        0.12019451        0.30756787
     233         -0.221513        1.000000        0.00002522        0.00041598        0.00051564        0.00051390
     234         -0.219732        1.000000        0.00230554        0.01615685        0.05117551        0.07155911
     235         -0.218474        1.000000        0.00675589        0.18386761        0.15923225        0.12081861
     236         -0.218277        1.000000        0.00624592        0.05542374        0.10657542        0.07417745
     237         -0.216704        1.000000        0.00720241        0.12396202        0.15996381        0.16071149
     238         -0.216358        1.000000        0.00481942        0.32400895        0.11886512        0.13755088
     239         -0.216154        1.000000        0.00709656        0.09620632        0.13591123        0.20688827
     240         -0.215904        1.000000        0.01187441        0.10205967        0.13373940        0.26241469
     241         -0.215303        1.000000        0.00029757        0.00653903        0.00483350        0.00595907
     242         -0.214886        1.000000        0.00448859        0.12976743        0.08076261        0.06232692
     243         -0.213807        1.000000        0.01392158        0.31597036        0.24805494        0.05822761
     244         -0.212654        1.000000        0.01192717        0.08750451        0.13008368        0.26607592
     245         -0.211146        1.000000        0.00731483        0.04917585        0.13167360        0.24817379
     246         -0.210241        1.000000        0.00090650        0.01622897        0.01149212        0.01181822
     247         -0.208730        1.000000        0.01027470        0.31476904        0.18429607        0.10047866
     248         -0.208500        1.000000        0.00421192        0.11662721        0.06329535        0.05152344
     249         -0.207161        1.000000        0.00849039        0.17684196        0.18685856        0.09210576
     250         -0.206147        1.000000        0.00469705        0.08146054        0.10476806        0.05414259
     251         -0.206054        1.000000        0.00712213        0.29658468        0.09432763        0.25117161
     252         -0.204956        1.000000        0.00809352        0.27423979        0.07145797        0.05156774
     253         -0.204359        1.000000        0.00293857        0.10269071        0.05641437        0.23577834
     254         -0.204125        1.000000        0.00155515        0.06691558        0.04225931        0.04473725
     255         -0.203892        1.000000        0.00197696        0.09977548        0.07785426        0.04175784
     256         -0.203453        1.000000        0.00551393        0.15894924        0.15206024        0.22288834
     257         -0.202584        1.000000        0.00518967        0.15038623        0.05497376        0.07000173
     258         -0.200762        1.000000        0.00401343        0.50205602        0.27298272        0.09429191
     259         -0.200337        1.000000        0.00464067        0.10059789        0.06942880        0.13481979