# Projected DOS for atomic kind O at iteration step i = 0, E(Fermi) =    -0.147857 a.u.
#     MO Eigenvalue [a.u.]      Occupation                 s                py                pz                px
       1         -0.933210        1.000000        0.71157733        0.00511391        0.02367118        0.00378324
       2         -0.927480        1.000000        0.71232443        0.01966855        0.00320456        0.00355008
       3         -0.918407        1.000000        0.70838182        0.00858081        0.01567230        0.01228443
       4         -0.915289        1.000000        0.70993542        0.00229174        0.00588347        0.02687559
       5         -0.914663        1.000000        0.71027099        0.01558930        0.00450367        0.01563703
       6         -0.914597        1.000000        0.00149005        0.00001344        0.00004536        0.00000549
       7         -0.912466        1.000000        0.71353924        0.01113333        0.01994773        0.00034463
       8         -0.911133        1.000000        0.70807604        0.01216657        0.02363812        0.00002777
       9         -0.910969        1.000000        0.71412799        0.01628889        0.00362536        0.00780153
      10         -0.910401        1.000000        0.71011567        0.00531154        0.00014361        0.02712311
      11         -0.908647        1.000000        0.70846114        0.01639731        0.00920475        0.01184311
      12         -0.906332        1.000000        0.70671461        0.01099132        0.02512087        0.00309077
      13         -0.901773        1.000000        0.72450395        0.00763675        0.00540987        0.00637569
      14         -0.900397        1.000000        0.00000010        0.00000000        0.00000000        0.00000000
      15         -0.898737        1.000000        0.00012841        0.00000861        0.00000343        0.00000353
      16         -0.897086        1.000000        0.70698740        0.01887374        0.01586545        0.00394605
      17         -0.894686        1.000000        0.70466965        0.00603225        0.02683905        0.00119299
      18         -0.889914        1.000000        0.65989661        0.00548690        0.00889807        0.01119698
      19         -0.886748        1.000000        0.69887171        0.00146236        0.02235756        0.01947782
      20         -0.884074        1.000000        0.69499136        0.03539466        0.01340015        0.00045502
      21         -0.879924        1.000000        0.69206321        0.00934480        0.00750991        0.00487011
      22         -0.879380        1.000000        0.73259057        0.00976766        0.01958503        0.01536090
      23         -0.877922        1.000000        0.74878253        0.01932362        0.00621381        0.00368742
      24         -0.873064        1.000000        0.70544241        0.00029829        0.01632766        0.02224969
      25         -0.870941        1.000000        0.62955075        0.01132267        0.00286040        0.00509985
      26         -0.869833        1.000000        0.71383244        0.03148569        0.00390730        0.00058224
      27         -0.867188        1.000000        0.67204639        0.00438465        0.00719638        0.00899414
      28         -0.864884        1.000000        0.71592850        0.00809817        0.03120471        0.00850433
      29         -0.864728        1.000000        0.71368384        0.03192688        0.00085244        0.00331962
      30         -0.860576        1.000000        0.50150674        0.01112896        0.00843106        0.00186614
      31         -0.857628        1.000000        0.06883068        0.00398166        0.00199563        0.00281998
      32         -0.855406        1.000000        0.71465072        0.03137281        0.00025920        0.01662345
      33         -0.849923        1.000000        0.69143910        0.03489838        0.00570684        0.01008360
      34         -0.848779        1.000000        0.45272346        0.00524065        0.00298029        0.01172625
      35         -0.845158        1.000000        0.69194411        0.02824769        0.01656741        0.00580167
      36         -0.843940        1.000000        0.78596438        0.01581944        0.00949713        0.01152837
      37         -0.843860        1.000000        0.69174207        0.02788178        0.01809545        0.00459933
      38         -0.842321        1.000000        0.70197680        0.00252308        0.04539690        0.00081626
      39         -0.841171        1.000000        0.27311455        0.00677972        0.00857756        0.00333544
      40         -0.840185        1.000000        0.11023758        0.00908449        0.00022681        0.00058965
      41         -0.838879        1.000000        0.72257940        0.03515011        0.00453823        0.00720227
      42         -0.837238        1.000000        0.71598683        0.03388162        0.01420381        0.00088717
      43         -0.833572        1.000000        0.69412068        0.00883599        0.02374531        0.01723817
      44         -0.830972        1.000000        0.34248021        0.00582985        0.00741916        0.00774175
      45         -0.825578        1.000000        0.71210255        0.02399941        0.00146508        0.02355267
      46         -0.822145        1.000000        0.71443346        0.00061747        0.03122719        0.01663646
      47         -0.652310        1.000000        0.00018784        0.00029016        0.00023360        0.00028437
      48         -0.648047        1.000000        0.00001905        0.00007537        0.00003642        0.00005182
      49         -0.647158        1.000000        0.00000010        0.00000020        0.00000016        0.00000020
      50         -0.622363        1.000000        0.00013887        0.00141846        0.00052458        0.00013435
      51         -0.612261        1.000000        0.00024075        0.00160626        0.00024990        0.00031554
      52         -0.611039        1.000000        0.00023627        0.00183370        0.00024717        0.00005250
      53         -0.609915        1.000000        0.00031465        0.00059930        0.00107150        0.00001456
      54         -0.599358        1.000000        0.00032463        0.00013761        0.00411906        0.00088909
      55         -0.596124        1.000000        0.00656198        0.00484562        0.02497944        0.00104879
      56         -0.569681        1.000000        0.00021437        0.00019236        0.00119320        0.00020577
      57         -0.567384        1.000000        0.00031678        0.00095996        0.00130676        0.00043305
      58         -0.564819        1.000000        0.00109620        0.00126609        0.00537269        0.00050145
      59         -0.559375        1.000000        0.00032919        0.00066237        0.00168559        0.00041433
      60         -0.558057        1.000000        0.00010963        0.00049670        0.00024963        0.00035671
      61         -0.557231        1.000000        0.00027832        0.00047190        0.00079062        0.00051606
      62         -0.556732        1.000000        0.00020418        0.00033327        0.00110421        0.00052076
      63         -0.555653        1.000000        0.00035495        0.00053345        0.00135031        0.00072323
      64         -0.553950        1.000000        0.00011287        0.00015052        0.00073123        0.00042422
      65         -0.551248        1.000000        0.00021670        0.00032930        0.00158190        0.00061956
      66         -0.549237        1.000000        0.00020075        0.00062061        0.00059986        0.00072253
      67         -0.548284        1.000000        0.00039879        0.00102613        0.00046127        0.00141188
      68         -0.547662        1.000000        0.00026967        0.00061662        0.00044409        0.00081217
      69         -0.547290        1.000000        0.00044746        0.00156895        0.00085972        0.00247230
      70         -0.546296        1.000000        0.00024327        0.00024044        0.00036750        0.00117141
      71         -0.545809        1.000000        0.00030387        0.00056341        0.00055710        0.00233096
      72         -0.544172        1.000000        0.00021487        0.00029304        0.00039098        0.00068637
      73         -0.542457        1.000000        0.00031496        0.00016855        0.00033774        0.00316608
      74         -0.541672        1.000000        0.00031239        0.00047699        0.00052877        0.00136791
      75         -0.541372        1.000000        0.00009088        0.00023457        0.00012851        0.00102621
      76         -0.538969        1.000000        0.00005878        0.00007345        0.00013419        0.00030511
      77         -0.538405        1.000000        0.00010858        0.00020734        0.00015424        0.00051986
      78         -0.536842        1.000000        0.00005277        0.00008309        0.00052922        0.00066000
      79         -0.535455        1.000000        0.00009786        0.00052684        0.00069271        0.00075005
      80         -0.535246        1.000000        0.00005690        0.00030356        0.00045829        0.00043100
      81         -0.534645        1.000000        0.00018133        0.00048006        0.00084048        0.00157541
      82         -0.534216        1.000000        0.00060478        0.00140707        0.00120526        0.00536225
      83         -0.533366        1.000000        0.00049282        0.00200587        0.00152326        0.00835844
      84         -0.531588        1.000000        0.00009876        0.00170018        0.00084883        0.00070447
      85         -0.531166        1.000000        0.00009748        0.00101142        0.00046145        0.00121099
      86         -0.530799        1.000000        0.00021294        0.00264296        0.00060866        0.00273858
      87         -0.529468        1.000000        0.00046495        0.00076715        0.01149328        0.02267270
      88         -0.529108        1.000000        0.00019042        0.00065925        0.00029672        0.00062562
      89         -0.527824        1.000000        0.00002729        0.00019372        0.00024596        0.00081400
      90         -0.526711        1.000000        0.00032106        0.00160897        0.00117257        0.00725919
      91         -0.526491        1.000000        0.00005556        0.00038153        0.00029743        0.00128197
      92         -0.517561        1.000000        0.00000345        0.00015846        0.00003144        0.00007033
      93         -0.517003        1.000000        0.00001419        0.00014994        0.00010205        0.00012431
      94         -0.515682        1.000000        0.00002931        0.00023210        0.00017616        0.00020068
      95         -0.510532        1.000000        0.00007701        0.00060052        0.00039462        0.00040854
      96         -0.495939        1.000000        0.00076186        0.30678927        0.04340021        0.28222589
      97         -0.492347        1.000000        0.00291022        0.00061069        0.10218706        0.50447447
      98         -0.488464        1.000000        0.00019626        0.01381640        0.00208157        0.01241725
      99         -0.485771        1.000000        0.00118927        0.05954273        0.00617526        0.03397311
     100         -0.481873        1.000000        0.00002398        0.00183609        0.00143187        0.00097741
     101         -0.481853        1.000000        0.00079850        0.31963563        0.00362778        0.31157479
     102         -0.478791        1.000000        0.00045095        0.25725340        0.10429686        0.16022699
     103         -0.476727        1.000000        0.00109809        0.34411774        0.15466399        0.14403969
     104         -0.476429        1.000000        0.00036638        0.01745234        0.36702715        0.25346030
     105         -0.475834        1.000000        0.00004261        0.07382892        0.03930653        0.02462523
     106         -0.474018        1.000000        0.00002892        0.00080030        0.00994797        0.00334495
     107         -0.473222        1.000000        0.00012407        0.02193251        0.00565082        0.59951905
     108         -0.473153        1.000000        0.00214693        0.22148374        0.06891716        0.32209470
     109         -0.473144        1.000000        0.00028225        0.31445251        0.18430199        0.14430592
     110         -0.472368        1.000000        0.00070109        0.09022321        0.01934685        0.03819253
     111         -0.470384        1.000000        0.00040708        0.09784842        0.01720148        0.05550638
     112         -0.469901        1.000000        0.00074029        0.24631338        0.32394874        0.06560691
     113         -0.469845        1.000000        0.00040343        0.09471222        0.03883997        0.49415123
     114         -0.469278        1.000000        0.00002022        0.23649602        0.01317234        0.39019732
     115         -0.469153        1.000000        0.00505771        0.11662496        0.15272387        0.37789949
     116         -0.466985        1.000000        0.00341676        0.04312767        0.42279303        0.16606870
     117         -0.462309        1.000000        0.00053493        0.03742580        0.08397434        0.01025765
     118         -0.456511        1.000000        0.00024484        0.04736841        0.22330821        0.36667287
     119         -0.455715        1.000000        0.00325757        0.45406438        0.08715841        0.10291168
     120         -0.454708        1.000000        0.00498880        0.09863823        0.08051350        0.48214119
     121         -0.454685        1.000000        0.00204089        0.04239621        0.21750413        0.32811255
     122         -0.453834        1.000000        0.00028107        0.05215331        0.10173191        0.46938969
     123         -0.451728        1.000000        0.00281952        0.04776905        0.25136023        0.34873234
     124         -0.445444        1.000000        0.00057730        0.02794733        0.28521869        0.31578503
     125         -0.443410        1.000000        0.00423879        0.03236121        0.50224842        0.02472026
     126         -0.442887        1.000000        0.00001333        0.00007093        0.02545741        0.60529164
     127         -0.440594        1.000000        0.00453773        0.34192714        0.23129574        0.05847354
     128         -0.439488        1.000000        0.00574236        0.04796043        0.03932677        0.54748398
     129         -0.435293        1.000000        0.00475230        0.04750517        0.16423968        0.43126102
     130         -0.435159        1.000000        0.00128852        0.29980911        0.15156037        0.19600090
     131         -0.433244        1.000000        0.00028735        0.00455042        0.00902332        0.01425882
     132         -0.431732        1.000000        0.00082049        0.00533932        0.03378424        0.01130856
     133         -0.431450        1.000000        0.00022508        0.33597313        0.19432881        0.08594154
     134         -0.431223        1.000000        0.00026042        0.00506091        0.03699189        0.00613257
     135         -0.429001        1.000000        0.00311217        0.08745012        0.27057690        0.28369797
     136         -0.427590        1.000000        0.00013048        0.00759401        0.00446907        0.00955199
     137         -0.427205        1.000000        0.00009309        0.00193985        0.00171962        0.00505563
     138         -0.426868        1.000000        0.00467832        0.16941962        0.00366952        0.43864831
     139         -0.425713        1.000000        0.00017527        0.00193057        0.00195150        0.00540075
     140         -0.424632        1.000000        0.00016932        0.00106120        0.00159133        0.00294869
     141         -0.422239        1.000000        0.00023852        0.00146543        0.00166761        0.00283330
     142         -0.416783        1.000000        0.00008822        0.00115082        0.00082024        0.00154194
     143         -0.415147        1.000000        0.00018848        0.00148274        0.00117167        0.00145312
     144         -0.412728        1.000000        0.00619294        0.55871170        0.04854679        0.03137493
     145         -0.412116        1.000000        0.00038912        0.00621775        0.00890374        0.00271937
     146         -0.411427        1.000000        0.00515428        0.21451449        0.39104581        0.00527238
     147         -0.408607        1.000000        0.00001436        0.14511126        0.00001284        0.48352635
     148         -0.408036        1.000000        0.00488125        0.14338128        0.21559306        0.28152167
     149         -0.404541        1.000000        0.00647130        0.34896105        0.00472105        0.27631337
     150         -0.402796        1.000000        0.00000155        0.00001084        0.13183121        0.49673730
     151         -0.402536        1.000000        0.00000638        0.00230980        0.20691556        0.41991551
     152         -0.401556        1.000000        0.00181947        0.01814458        0.00297157        0.00525729
     153         -0.390389        1.000000        0.00218484        0.00577456        0.02063464        0.01253967
     154         -0.389239        1.000000        0.01275995        0.04029551        0.05321769        0.01444467
     155         -0.389089        1.000000        0.00004688        0.10519958        0.33192990        0.18596984
     156         -0.388133        1.000000        0.00488047        0.29876378        0.08862937        0.25319229
     157         -0.387104        1.000000        0.08863108        0.09477017        0.37776573        0.10031933
     158         -0.386843        1.000000        0.00140794        0.00542841        0.02434358        0.00218372
     159         -0.369031        1.000000        0.00029326        0.00198221        0.00753361        0.00856487
     160         -0.366825        1.000000        0.00012836        0.00016632        0.00081492        0.00397943
     161         -0.365662        1.000000        0.00001158        0.00003459        0.00004765        0.00003509
     162         -0.365435        1.000000        0.00001833        0.00106089        0.00006691        0.00033496
     163         -0.363581        1.000000        0.00018527        0.00301310        0.00029729        0.00411863
     164         -0.362747        1.000000        0.00000919        0.00010319        0.00003633        0.00013016
     165         -0.354303        1.000000        0.04238600        0.08512536        0.09301247        0.06397310
     166         -0.346624        1.000000        0.03135281        0.05303976        0.08206746        0.05705430
     167         -0.343264        1.000000        0.00013179        0.00022313        0.00053186        0.00015883
     168         -0.342671        1.000000        0.01853765        0.03711003        0.08027135        0.02765989
     169         -0.342163        1.000000        0.01860696        0.11037756        0.01455833        0.02455215
     170         -0.333861        1.000000        0.00571568        0.01649820        0.00869543        0.01013559
     171         -0.333412        1.000000        0.00064253        0.00112674        0.00107062        0.00081645
     172         -0.333247        1.000000        0.12370212        0.25603997        0.27415280        0.12729603
     173         -0.332645        1.000000        0.00364256        0.00746126        0.00833779        0.00382093
     174         -0.332501        1.000000        0.11528590        0.31484981        0.17333446        0.19602618
     175         -0.328601        1.000000        0.10129075        0.04711716        0.38999443        0.08869343
     176         -0.322271        1.000000        0.12451255        0.19238985        0.13786151        0.27046203
     177         -0.316175        1.000000        0.14897673        0.26665846        0.44494227        0.01476884
     178         -0.315056        1.000000        0.14622737        0.29837336        0.08453058        0.35204429
     179         -0.313997        1.000000        0.14861766        0.13936097        0.30511211        0.29973445
     180         -0.309872        1.000000        0.12649623        0.02727126        0.17948483        0.44567834
     181         -0.307402        1.000000        0.05555617        0.18197757        0.30521974        0.04780760
     182         -0.306586        1.000000        0.13175448        0.08278838        0.32881685        0.21733594
     183         -0.303819        1.000000        0.14906013        0.31917731        0.06709176        0.35527105
     184         -0.296003        1.000000        0.14875709        0.32296279        0.35928089        0.06578445
     185         -0.293157        1.000000        0.02351662        0.19108981        0.07487760        0.08755979
     186         -0.290720        1.000000        0.10069904        0.43257598        0.14011085        0.23186609
     187         -0.288486        1.000000        0.14554614        0.27918386        0.32355306        0.13700750
     188         -0.283885        1.000000        0.11033878        0.22670313        0.09111905        0.31064969
     189         -0.271068        1.000000        0.11692062        0.16059079        0.39693157        0.06727316
     190         -0.270646        1.000000        0.14880786        0.05793799        0.24231445        0.40627753
     191         -0.268533        1.000000        0.13694892        0.46378379        0.27866573        0.00950867
     192         -0.267295        1.000000        0.15096376        0.02364947        0.37279572        0.36916779
     193         -0.266277        1.000000        0.08494789        0.22678469        0.27740963        0.15934150
     194         -0.264134        1.000000        0.08530374        0.47445458        0.15698879        0.11079059
     195         -0.261932        1.000000        0.13650030        0.52199406        0.01399248        0.23164333
     196         -0.258603        1.000000        0.14524531        0.48765318        0.23291485        0.02667775
     197         -0.253815        1.000000        0.00070332        0.33780543        0.21224081        0.42866458
     198         -0.253180        1.000000        0.01923001        0.10906496        0.08348769        0.05354271
     199         -0.251846        1.000000        0.04067597        0.12261277        0.11819453        0.11678144
     200         -0.250790        1.000000        0.03445194        0.15317068        0.11652251        0.15531345
     201         -0.248438        1.000000        0.01563588        0.33616292        0.20889063        0.15373195
     202         -0.247757        1.000000        0.01738874        0.17041919        0.09513169        0.04577027
     203         -0.245818        1.000000        0.00507016        0.09683869        0.07607166        0.05621479
     204         -0.245130        1.000000        0.03092747        0.29179889        0.12332039        0.08992334
     205         -0.244923        1.000000        0.01941360        0.17144027        0.09851654        0.06072913
     206         -0.241962        1.000000        0.01219370        0.12508867        0.22094191        0.04358147
     207         -0.240518        1.000000        0.00650747        0.07908704        0.06323398        0.04651337
     208         -0.240420        1.000000        0.00596117        0.07194922        0.06885669        0.04051013
     209         -0.239952        1.000000        0.03696097        0.26883427        0.30745366        0.26433890
     210         -0.237520        1.000000        0.00514850        0.06068213        0.05458671        0.04063659
     211         -0.237115        1.000000        0.00659747        0.08017356        0.08534744        0.06519740
     212         -0.236829        1.000000        0.02529834        0.31340426        0.26082990        0.16735324
     213         -0.236560        1.000000        0.05636599        0.22930341        0.43553154        0.07193732
     214         -0.236259        1.000000        0.01135143        0.43988218        0.28459423        0.16562008
     215         -0.236043        1.000000        0.01053606        0.19159107        0.33090259        0.05683411
     216         -0.235533        1.000000        0.00299178        0.35884623        0.43008467        0.05414344
     217         -0.235090        1.000000        0.00867547        0.13933271        0.19947823        0.36990849
     218         -0.233900        1.000000        0.01358676        0.11480531        0.43294942        0.22658828
     219         -0.233276        1.000000        0.03259234        0.49605612        0.15998836        0.07156886
     220         -0.232827        1.000000        0.03297523        0.49474826        0.18153534        0.06901960
     221         -0.231853        1.000000        0.00816022        0.07356033        0.14445449        0.01886093
     222         -0.231551        1.000000        0.03369179        0.12800022        0.36909650        0.03908608
     223         -0.230437        1.000000        0.01359873        0.17321607        0.13082577        0.02595633
     224         -0.230191        1.000000        0.02113138        0.29554095        0.44464858        0.01676032
     225         -0.229598        1.000000        0.04624976        0.42352637        0.09516477        0.09169087
     226         -0.228202        1.000000        0.01827142        0.04570633        0.26454504        0.03893769
     227         -0.227566        1.000000        0.01516509        0.07969362        0.13567693        0.03939626
     228         -0.225378        1.000000        0.03077605        0.62146282        0.10862553        0.03025615
     229         -0.223679        1.000000        0.00498008        0.14212519        0.23547246        0.14736337
     230         -0.222533        1.000000        0.00874942        0.09522444        0.07966137        0.07387023
     231         -0.221935        1.000000        0.00379939        0.37219200        0.08459613        0.27130326
     232         -0.221612        1.000000        0.00803171        0.08340346        0.08502792        0.05962583
     233         -0.221513        1.000000        0.16554046        0.51392556        0.08254639        0.15689507
     234         -0.219732        1.000000        0.13396177        0.33041061        0.21075203        0.08129817
     235         -0.218474        1.000000        0.04384529        0.14862381        0.16599457        0.05542041
     236         -0.218277        1.000000        0.04947515        0.34713868        0.19197458        0.07788007
     237         -0.216704        1.000000        0.05502919        0.08818568        0.15795179        0.15043956
     238         -0.216358        1.000000        0.01193426        0.06636719        0.18832729        0.08849712
     239         -0.216154        1.000000        0.05420363        0.06805879        0.13609420        0.19525424
     240         -0.215904        1.000000        0.02991934        0.06432430        0.16097754        0.06349372
     241         -0.215303        1.000000        0.16110040        0.40794765        0.26323438        0.06896780
     242         -0.214886        1.000000        0.02510750        0.19417021        0.36660211        0.08495754
     243         -0.213807        1.000000        0.01052497        0.04566923        0.07513399        0.03525660
     244         -0.212654        1.000000        0.02196965        0.06726930        0.15279399        0.11531703
     245         -0.211146        1.000000        0.01516883        0.03715690        0.13037039        0.26864062
     246         -0.210241        1.000000        0.10515293        0.17191147        0.59945521        0.02202726
     247         -0.208730        1.000000        0.01384595        0.13383085        0.09045227        0.03390560
     248         -0.208500        1.000000        0.01297790        0.52585869        0.08511058        0.04137551
     249         -0.207161        1.000000        0.00925288        0.22421127        0.09690908        0.07342289
     250         -0.206147        1.000000        0.05736000        0.39017028        0.10753632        0.11158455
     251         -0.206054        1.000000        0.00669287        0.07567218        0.13077570        0.07359919
     252         -0.204956        1.000000        0.00968190        0.22157412        0.19150125        0.08458717
     253         -0.204359        1.000000        0.00541933        0.24831259        0.18236318        0.12038515
     254         -0.204125        1.000000        0.00174041        0.12116634        0.40416021        0.29495387
     255         -0.203892        1.000000        0.00182901        0.47451185        0.22224137        0.05003499
     256         -0.203453        1.000000        0.00285163        0.19852951        0.13439448        0.07168488
     257         -0.202584        1.000000        0.00797094        0.13426677        0.31418456        0.17884703
     258         -0.200762        1.000000        0.00157052        0.02576811        0.02051835        0.02040011
     259         -0.200337        1.000000        0.03000007        0.19067934        0.12231903        0.26267089