# Projected DOS for atomic kind O at iteration step i = 0, E(Fermi) =    -0.144138 a.u.
#     MO Eigenvalue [a.u.]      Occupation                 s                py                pz                px
       1         -0.933235        1.000000        0.71156218        0.00511570        0.02366967        0.00378296
       2         -0.927486        1.000000        0.71237039        0.01965047        0.00319825        0.00355679
       3         -0.918328        1.000000        0.70853417        0.00858691        0.01565031        0.01238373
       4         -0.915292        1.000000        0.70992861        0.00229118        0.00588467        0.02687433
       5         -0.914672        1.000000        0.71023981        0.01558932        0.00450123        0.01564179
       6         -0.914622        1.000000        0.00145644        0.00001305        0.00004425        0.00000554
       7         -0.912474        1.000000        0.71354134        0.01113209        0.01994842        0.00034526
       8         -0.911113        1.000000        0.70804130        0.01217685        0.02357911        0.00005122
       9         -0.911000        1.000000        0.71412118        0.01627962        0.00368591        0.00777534
      10         -0.910432        1.000000        0.71009292        0.00531044        0.00014400        0.02712334
      11         -0.908659        1.000000        0.70846044        0.01639532        0.00920409        0.01184320
      12         -0.906363        1.000000        0.70666967        0.01097330        0.02512341        0.00308981
      13         -0.901797        1.000000        0.72451090        0.00763912        0.00540680        0.00638309
      14         -0.900407        1.000000        0.00000010        0.00000000        0.00000000        0.00000000
      15         -0.898744        1.000000        0.00012989        0.00000867        0.00000341        0.00000352
      16         -0.897061        1.000000        0.70708916        0.01886621        0.01591919        0.00394072
      17         -0.894699        1.000000        0.70468446        0.00603105        0.02683107        0.00119365
      18         -0.889951        1.000000        0.65998490        0.00548765        0.00890175        0.01119844
      19         -0.886765        1.000000        0.69885147        0.00146121        0.02235943        0.01947861
      20         -0.884450        1.000000        0.69524529        0.03539248        0.01336557        0.00045374
      21         -0.880053        1.000000        0.69176455        0.00924548        0.00753188        0.00485582
      22         -0.879398        1.000000        0.73257909        0.00976644        0.01958650        0.01536193
      23         -0.877932        1.000000        0.74877746        0.01931494        0.00620685        0.00369606
      24         -0.873004        1.000000        0.70567331        0.00029877        0.01629924        0.02230762
      25         -0.870949        1.000000        0.62930694        0.01131005        0.00285813        0.00509734
      26         -0.869857        1.000000        0.71378789        0.03146624        0.00391245        0.00058198
      27         -0.867209        1.000000        0.67201804        0.00438371        0.00719748        0.00899280
      28         -0.864927        1.000000        0.71334047        0.03165100        0.00085480        0.00345596
      29         -0.860863        1.000000        0.71322417        0.00831093        0.03141549        0.00844064
      30         -0.860719        1.000000        0.50664447        0.01129620        0.00851529        0.00190275
      31         -0.857646        1.000000        0.06875346        0.00398011        0.00199485        0.00281803
      32         -0.855446        1.000000        0.71465363        0.03137027        0.00025947        0.01662203
      33         -0.849928        1.000000        0.69143957        0.03489626        0.00570729        0.01008360
      34         -0.848803        1.000000        0.45266200        0.00524054        0.00298085        0.01172565
      35         -0.845145        1.000000        0.69193281        0.02824801        0.01656707        0.00580319
      36         -0.843897        1.000000        0.69175086        0.02787874        0.01809370        0.00459983
      37         -0.843894        1.000000        0.78585279        0.01582604        0.00952057        0.01152281
      38         -0.843787        1.000000        0.70528081        0.00250187        0.04549582        0.00080571
      39         -0.841308        1.000000        0.26606479        0.00673356        0.00823982        0.00331952
      40         -0.840216        1.000000        0.11047564        0.00909323        0.00022735        0.00059072
      41         -0.837542        1.000000        0.71622648        0.03387571        0.01418889        0.00088343
      42         -0.835820        1.000000        0.72060728        0.03537604        0.00451082        0.00726724
      43         -0.831510        1.000000        0.69309975        0.00886054        0.02382915        0.01729874
      44         -0.830998        1.000000        0.34257284        0.00583074        0.00741950        0.00774355
      45         -0.829165        1.000000        0.71514580        0.02405993        0.00143248        0.02321537
      46         -0.818072        1.000000        0.71108965        0.00063414        0.03154539        0.01673707
      47         -0.652338        1.000000        0.00018794        0.00029024        0.00023367        0.00028428
      48         -0.648067        1.000000        0.00001889        0.00007545        0.00003649        0.00005175
      49         -0.647174        1.000000        0.00000011        0.00000020        0.00000016        0.00000020
      50         -0.622393        1.000000        0.00013896        0.00141952        0.00052465        0.00013448
      51         -0.612288        1.000000        0.00023981        0.00160651        0.00024983        0.00031494
      52         -0.611095        1.000000        0.00024543        0.00183389        0.00027902        0.00005374
      53         -0.609943        1.000000        0.00031472        0.00059920        0.00107140        0.00001458
      54         -0.599361        1.000000        0.00032503        0.00013779        0.00412146        0.00088941
      55         -0.597035        1.000000        0.00613811        0.00451077        0.02316870        0.00097201
      56         -0.570757        1.000000        0.00085221        0.00072145        0.00412631        0.00029688
      57         -0.568331        1.000000        0.00095886        0.00084492        0.00468270        0.00041074
      58         -0.564542        1.000000        0.00038031        0.00091200        0.00185100        0.00042008
      59         -0.560707        1.000000        0.00034025        0.00090956        0.00120338        0.00061193
      60         -0.558764        1.000000        0.00007697        0.00023482        0.00024931        0.00040007
      61         -0.557644        1.000000        0.00034394        0.00039791        0.00032247        0.00052367
      62         -0.557446        1.000000        0.00014978        0.00027262        0.00067554        0.00049271
      63         -0.555277        1.000000        0.00022050        0.00070535        0.00158534        0.00069714
      64         -0.554459        1.000000        0.00014425        0.00020317        0.00127003        0.00048250
      65         -0.551288        1.000000        0.00021904        0.00050830        0.00114859        0.00087405
      66         -0.550474        1.000000        0.00045751        0.00150891        0.00086570        0.00246881
      67         -0.549410        1.000000        0.00041554        0.00038046        0.00059221        0.00079803
      68         -0.547077        1.000000        0.00023791        0.00030002        0.00042766        0.00179509
      69         -0.546932        1.000000        0.00015847        0.00038945        0.00051011        0.00058669
      70         -0.546531        1.000000        0.00025731        0.00054289        0.00045409        0.00156245
      71         -0.544984        1.000000        0.00021117        0.00131929        0.00021890        0.00075696
      72         -0.544276        1.000000        0.00023668        0.00031340        0.00041405        0.00069250
      73         -0.542701        1.000000        0.00027066        0.00043875        0.00042727        0.00132983
      74         -0.542212        1.000000        0.00010157        0.00019980        0.00011145        0.00085474
      75         -0.541682        1.000000        0.00006527        0.00011115        0.00025045        0.00038639
      76         -0.539268        1.000000        0.00013673        0.00018592        0.00023545        0.00037820
      77         -0.539144        1.000000        0.00033340        0.00020953        0.00036387        0.00377586
      78         -0.538607        1.000000        0.00006468        0.00015335        0.00014929        0.00032912
      79         -0.537411        1.000000        0.00014043        0.00018642        0.00197204        0.00329974
      80         -0.535586        1.000000        0.00025771        0.00059198        0.00090329        0.00202230
      81         -0.535208        1.000000        0.00058672        0.00130083        0.00115248        0.00521892
      82         -0.534945        1.000000        0.00019850        0.00122557        0.00101061        0.00285672
      83         -0.534229        1.000000        0.00042811        0.00163461        0.00143051        0.00653488
      84         -0.533757        1.000000        0.00038329        0.00059360        0.00740799        0.01439743
      85         -0.533266        1.000000        0.00010041        0.00143854        0.00097463        0.00117583
      86         -0.532334        1.000000        0.00012120        0.00131241        0.00054579        0.00176499
      87         -0.531972        1.000000        0.00019969        0.00216866        0.00058424        0.00240438
      88         -0.530298        1.000000        0.00005512        0.00033054        0.00025496        0.00073863
      89         -0.528398        1.000000        0.00017545        0.00049322        0.00019031        0.00027956
      90         -0.527939        1.000000        0.00004887        0.00028101        0.00020615        0.00097191
      91         -0.527320        1.000000        0.00026629        0.00130003        0.00093736        0.00573372
      92         -0.517591        1.000000        0.00000334        0.00015006        0.00002965        0.00006581
      93         -0.517123        1.000000        0.00001378        0.00014413        0.00010354        0.00012247
      94         -0.515801        1.000000        0.00002694        0.00021558        0.00016938        0.00018928
      95         -0.510507        1.000000        0.00008606        0.00066139        0.00046107        0.00046113
      96         -0.495989        1.000000        0.00076005        0.30700813        0.04346032        0.28241424
      97         -0.492596        1.000000        0.00287618        0.00054016        0.10451139        0.50960226
      98         -0.488452        1.000000        0.00019559        0.01380225        0.00208679        0.01241083
      99         -0.485800        1.000000        0.00119047        0.05962203        0.00614480        0.03405704
     100         -0.481925        1.000000        0.00002402        0.00174181        0.00143901        0.00091256
     101         -0.481809        1.000000        0.00080411        0.32026181        0.00346099        0.31103991
     102         -0.478823        1.000000        0.00044753        0.25618232        0.10388145        0.15979436
     103         -0.476800        1.000000        0.00109398        0.34355088        0.15491803        0.14476433
     104         -0.476437        1.000000        0.00036781        0.01744963        0.36696168        0.25340399
     105         -0.475873        1.000000        0.00004335        0.07502559        0.03977492        0.02502460
     106         -0.474074        1.000000        0.00002854        0.00077668        0.00991835        0.00331370
     107         -0.473238        1.000000        0.00211435        0.21937434        0.06850024        0.32585943
     108         -0.473214        1.000000        0.00014495        0.02392408        0.00624961        0.59646325
     109         -0.473166        1.000000        0.00028156        0.31438870        0.18434187        0.14455620
     110         -0.472401        1.000000        0.00070142        0.09032496        0.01932231        0.03832729
     111         -0.470432        1.000000        0.00040545        0.09787971        0.01712197        0.05534840
     112         -0.469953        1.000000        0.00074048        0.24700000        0.32528345        0.06369131
     113         -0.469896        1.000000        0.00040206        0.09414953        0.03760759        0.49581194
     114         -0.469290        1.000000        0.00002000        0.23652280        0.01317098        0.39019616
     115         -0.469220        1.000000        0.00506541        0.11755726        0.15269063        0.37764706
     116         -0.467022        1.000000        0.00341776        0.04309942        0.42279269        0.16602562
     117         -0.462347        1.000000        0.00053393        0.03742246        0.08398393        0.01025308
     118         -0.456538        1.000000        0.00024565        0.04727616        0.22363427        0.36639876
     119         -0.455749        1.000000        0.00326658        0.45448335        0.08714923        0.10263832
     120         -0.454742        1.000000        0.00500766        0.09879276        0.07989376        0.48289131
     121         -0.454710        1.000000        0.00203001        0.04209686        0.21804670        0.32781022
     122         -0.453869        1.000000        0.00028024        0.05215411        0.10167530        0.46945520
     123         -0.451767        1.000000        0.00282095        0.04779869        0.25131748        0.34873524
     124         -0.445483        1.000000        0.00057929        0.02795081        0.28522541        0.31572155
     125         -0.443415        1.000000        0.00422358        0.03230541        0.50198012        0.02477491
     126         -0.443002        1.000000        0.00001376        0.00007356        0.02553104        0.60525132
     127         -0.440650        1.000000        0.00452953        0.34183857        0.23131472        0.05853430
     128         -0.439480        1.000000        0.00574122        0.04805009        0.03935364        0.54772756
     129         -0.435181        1.000000        0.00128856        0.29967897        0.15170997        0.19568109
     130         -0.434150        1.000000        0.00496581        0.04688599        0.16578954        0.42964636
     131         -0.433505        1.000000        0.00024494        0.00430213        0.00734795        0.01356396
     132         -0.431609        1.000000        0.00094881        0.00691823        0.06948275        0.01070466
     133         -0.431454        1.000000        0.00022511        0.33803171        0.19499320        0.08646627
     134         -0.430242        1.000000        0.00018624        0.00070251        0.00233754        0.00480357
     135         -0.429021        1.000000        0.00310620        0.08730272        0.27023796        0.28361160
     136         -0.427806        1.000000        0.00014762        0.00664663        0.00417147        0.00837512
     137         -0.427483        1.000000        0.00008246        0.00321005        0.00330209        0.00594942
     138         -0.426921        1.000000        0.00461269        0.16724213        0.00361211        0.43317066
     139         -0.426205        1.000000        0.00025463        0.00498418        0.00158652        0.01247316
     140         -0.425523        1.000000        0.00013591        0.00122749        0.00114108        0.00324197
     141         -0.423444        1.000000        0.00023691        0.00161443        0.00173849        0.00314098
     142         -0.417334        1.000000        0.00009538        0.00103471        0.00080121        0.00154472
     143         -0.415020        1.000000        0.00016712        0.00149239        0.00098736        0.00105397
     144         -0.413252        1.000000        0.00609650        0.55960466        0.04808217        0.03141149
     145         -0.412644        1.000000        0.00031968        0.00340488        0.00415615        0.00182816
     146         -0.411531        1.000000        0.00519664        0.21674393        0.39552099        0.00529008
     147         -0.408616        1.000000        0.00001425        0.14510473        0.00001272        0.48353188
     148         -0.407171        1.000000        0.00506971        0.14330771        0.21657496        0.28213057
     149         -0.405189        1.000000        0.00630209        0.34849068        0.00465967        0.27804202
     150         -0.402841        1.000000        0.00000157        0.00001079        0.13183184        0.49672487
     151         -0.402527        1.000000        0.00000637        0.00230729        0.20690472        0.41988560
     152         -0.401580        1.000000        0.00182169        0.01816271        0.00297653        0.00526108
     153         -0.390412        1.000000        0.00218901        0.00555037        0.02031934        0.01228394
     154         -0.389268        1.000000        0.01244782        0.04008502        0.05175616        0.01408463
     155         -0.388154        1.000000        0.00004524        0.10484212        0.33163247        0.18633240
     156         -0.387583        1.000000        0.00501130        0.29738327        0.08807641        0.25365492
     157         -0.387096        1.000000        0.08899158        0.09508375        0.37885870        0.10079727
     158         -0.386870        1.000000        0.00142321        0.00548130        0.02455160        0.00228708
     159         -0.369068        1.000000        0.00029023        0.00197781        0.00748937        0.00848594
     160         -0.366836        1.000000        0.00013028        0.00016832        0.00084171        0.00404960
     161         -0.365696        1.000000        0.00001166        0.00003387        0.00004801        0.00003620
     162         -0.365465        1.000000        0.00001776        0.00105703        0.00006639        0.00033430
     163         -0.363608        1.000000        0.00017914        0.00291927        0.00030496        0.00407657
     164         -0.362761        1.000000        0.00000888        0.00009759        0.00003622        0.00012498
     165         -0.354355        1.000000        0.04231439        0.08503347        0.09283415        0.06387708
     166         -0.346674        1.000000        0.03140645        0.05318610        0.08223674        0.05714513
     167         -0.343276        1.000000        0.00012670        0.00021270        0.00051486        0.00015640
     168         -0.342703        1.000000        0.01852516        0.03709477        0.08025408        0.02764083
     169         -0.342190        1.000000        0.01858673        0.11034354        0.01453727        0.02451068
     170         -0.333889        1.000000        0.00585504        0.01689241        0.00890623        0.01036906
     171         -0.333444        1.000000        0.00064725        0.00113405        0.00107820        0.00082371
     172         -0.333276        1.000000        0.12376345        0.25620099        0.27422411        0.12732974
     173         -0.332672        1.000000        0.00360131        0.00738070        0.00823970        0.00377967
     174         -0.332534        1.000000        0.11509638        0.31430717        0.17311762        0.19556667
     175         -0.328639        1.000000        0.10136204        0.04715372        0.39010969        0.08879081
     176         -0.322318        1.000000        0.12443018        0.19233518        0.13780735        0.27020227
     177         -0.316135        1.000000        0.14908087        0.26721302        0.44456195        0.01484446
     178         -0.315146        1.000000        0.14636663        0.29915518        0.08443607        0.35137106
     179         -0.313380        1.000000        0.14873052        0.13850182        0.30321322        0.30258490
     180         -0.309884        1.000000        0.12644690        0.02746386        0.17963088        0.44518316
     181         -0.307536        1.000000        0.05545831        0.18069560        0.30260024        0.04802508
     182         -0.306609        1.000000        0.13176263        0.08277079        0.32881096        0.21735126
     183         -0.303845        1.000000        0.14905903        0.31916398        0.06708573        0.35526814
     184         -0.296212        1.000000        0.14879908        0.32217416        0.35976605        0.06601776
     185         -0.293174        1.000000        0.02351647        0.19119295        0.07501882        0.08756787
     186         -0.290755        1.000000        0.10067467        0.43276110        0.13992803        0.23155320
     187         -0.288050        1.000000        0.14565416        0.27824122        0.32397240        0.13740580
     188         -0.283955        1.000000        0.11025373        0.22647066        0.09121847        0.31038950
     189         -0.271099        1.000000        0.11677779        0.16089252        0.39706401        0.06626365
     190         -0.270224        1.000000        0.14905097        0.05893089        0.24035513        0.40705977
     191         -0.268551        1.000000        0.13709531        0.46409153        0.27971866        0.00969250
     192         -0.267324        1.000000        0.15093801        0.02361728        0.37267807        0.36902479
     193         -0.266304        1.000000        0.08510079        0.22623672        0.27740393        0.16004209
     194         -0.264292        1.000000        0.08550266        0.47009214        0.15796600        0.10801980
     195         -0.262429        1.000000        0.13648369        0.51873523        0.01465286        0.23489208
     196         -0.258928        1.000000        0.14016327        0.46906232        0.23466540        0.02936334
     197         -0.254445        1.000000        0.00997065        0.07511717        0.05426811        0.02042376
     198         -0.253837        1.000000        0.00067777        0.33806512        0.21301437        0.42924391
     199         -0.251896        1.000000        0.05852195        0.14948305        0.15972405        0.17707505
     200         -0.250838        1.000000        0.02978533        0.13641908        0.09413229        0.12826419
     201         -0.248713        1.000000        0.01707840        0.21579616        0.15011214        0.09583836
     202         -0.247637        1.000000        0.01188323        0.23092648        0.16288701        0.11822455
     203         -0.245868        1.000000        0.00803650        0.09150192        0.13350786        0.02948511
     204         -0.245305        1.000000        0.04334136        0.31298458        0.02119490        0.07609312
     205         -0.243717        1.000000        0.00771615        0.09944845        0.14662339        0.06060300
     206         -0.242499        1.000000        0.01208661        0.17884958        0.22583834        0.07861668
     207         -0.241990        1.000000        0.00624514        0.06494917        0.02895391        0.02213145
     208         -0.240311        1.000000        0.00173924        0.09494697        0.10948881        0.06196431
     209         -0.239560        1.000000        0.03114718        0.27596649        0.29769849        0.25214977
     210         -0.238218        1.000000        0.00408750        0.02914748        0.03287734        0.04159876
     211         -0.237330        1.000000        0.01388040        0.14376795        0.11495766        0.08979155
     212         -0.236826        1.000000        0.03100635        0.23782948        0.29220013        0.10875814
     213         -0.236517        1.000000        0.01371532        0.26815630        0.19047187        0.11755727
     214         -0.236412        1.000000        0.04450733        0.21393457        0.46501543        0.06787145
     215         -0.236132        1.000000        0.00628521        0.35665298        0.31274926        0.13956781
     216         -0.235662        1.000000        0.00211847        0.38610918        0.45084967        0.05949958
     217         -0.235106        1.000000        0.00867899        0.14888013        0.24716390        0.36992842
     218         -0.233997        1.000000        0.00917482        0.09980075        0.24897339        0.18647442
     219         -0.233512        1.000000        0.00929279        0.07782273        0.25232852        0.04648489
     220         -0.233056        1.000000        0.01495701        0.57334388        0.21833981        0.05399146
     221         -0.232690        1.000000        0.05158267        0.53935155        0.09173428        0.09142131
     222         -0.231043        1.000000        0.02880116        0.12285015        0.27663240        0.04223131
     223         -0.230536        1.000000        0.02831851        0.30864556        0.50878777        0.02039740
     224         -0.229966        1.000000        0.01640220        0.16741893        0.09223236        0.03763157
     225         -0.229510        1.000000        0.04525997        0.37214026        0.15699233        0.08631863
     226         -0.228090        1.000000        0.00712858        0.07714954        0.07433180        0.02000840
     227         -0.226978        1.000000        0.03603267        0.04919543        0.39094308        0.05531840
     228         -0.225776        1.000000        0.02198408        0.46215122        0.09745992        0.03246629
     229         -0.224411        1.000000        0.01322881        0.25599996        0.13555218        0.07446521
     230         -0.223234        1.000000        0.00440992        0.13562692        0.17664874        0.13235051
     231         -0.222310        1.000000        0.00238109        0.42146326        0.08274300        0.30468728
     232         -0.221523        1.000000        0.16569105        0.51433316        0.08255494        0.15695572
     233         -0.220919        1.000000        0.02204535        0.05539397        0.10513227        0.03825833
     234         -0.219539        1.000000        0.13867191        0.34464514        0.21172197        0.08510530
     235         -0.218723        1.000000        0.03609089        0.30582021        0.14892385        0.06427839
     236         -0.218005        1.000000        0.03795764        0.09883284        0.17799886        0.05905553
     237         -0.217386        1.000000        0.01043751        0.08166542        0.06824680        0.02986302
     238         -0.216450        1.000000        0.00949253        0.08083944        0.22948109        0.06942157
     239         -0.215963        1.000000        0.04250459        0.06795521        0.13402960        0.19857973
     240         -0.215505        1.000000        0.05862850        0.12319595        0.27013088        0.18711829
     241         -0.215351        1.000000        0.16170922        0.40664429        0.26672052        0.07169398
     242         -0.214903        1.000000        0.04425011        0.17244588        0.28922610        0.10653285
     243         -0.214359        1.000000        0.00924616        0.04477582        0.05834292        0.04173485
     244         -0.212108        1.000000        0.02723330        0.07016746        0.16391861        0.13190892
     245         -0.211535        1.000000        0.02380761        0.04681282        0.14921587        0.22558605
     246         -0.210952        1.000000        0.10465895        0.17994246        0.60021838        0.02305422
     247         -0.209490        1.000000        0.00865071        0.12733111        0.13048639        0.02648575
     248         -0.208598        1.000000        0.01223844        0.40321575        0.07760109        0.04597095
     249         -0.207889        1.000000        0.00999228        0.22836581        0.10462562        0.03024504
     250         -0.207148        1.000000        0.00889696        0.20236895        0.11127708        0.06566072
     251         -0.206507        1.000000        0.05017142        0.35222094        0.11134883        0.10376009
     252         -0.205786        1.000000        0.00645620        0.18850792        0.21985563        0.06138471
     253         -0.205257        1.000000        0.01344872        0.15024711        0.12975676        0.05507883
     254         -0.204845        1.000000        0.00899760        0.18722474        0.13725599        0.11261939
     255         -0.204181        1.000000        0.00261247        0.06616609        0.40040636        0.35037371
     256         -0.203944        1.000000        0.00197903        0.63632174        0.09832539        0.04760028
     257         -0.202801        1.000000        0.00568906        0.16227938        0.37460171        0.21161419
     258         -0.201034        1.000000        0.00176099        0.02201819        0.02978412        0.02781854
     259         -0.200326        1.000000        0.01144519        0.05895940        0.10326326        0.15566843