952
Properties=species:S:1:pos:R:3 i=96 E=-19845.6322305872 pbc="F F F"
I       12.47499258      12.75084955       8.95670542
I       19.27571988      13.36972709       8.89764720
I       25.17692181      12.83847640       9.10872929
I       31.14608947      13.41192786       8.94307725
I       13.11503878      19.27000804       8.79667562
I       18.81431712      19.06816543       8.86064204
I       25.24530404      19.08874463       8.97442102
I       30.97452223      19.27624086       9.03303232
I       12.88495679      25.52008926       9.01375174
I       18.68325924      25.43653950       8.90024403
I       25.11531857      25.31102657       8.88489137
I       30.89073802      25.41164157       9.09229254
I       12.23460293      31.92083876       9.12313999
I       19.53892379      31.80657942       9.04245918
I       25.07068718      31.70712832       9.02159085
I       30.82821517      31.50608086       8.97300263
I       12.78001736       9.24887381      12.27113374
I       18.75136667       9.53947399      13.00099465
I       24.86962309       9.43887216      12.73908139
I       31.63251018       9.84336221      12.20835410
I        9.85512075      11.46913129      12.42606283
I       12.66283976      12.88003788      15.46833652
I       11.90316744      15.93773668      11.96796789
I       15.85822446      12.46272584      11.52272110
I       18.64456830      11.74076679      15.36938707
I       18.32430855      15.88248862      12.68695210
I       22.11788446      13.11387705      12.46497462
I       25.39069572      12.82431563      15.64560680
I       25.91011193      15.91594857      12.26676443
I       28.44007741      12.47535186      12.35470226
I       31.26860802      12.93320346      15.62129846
I       30.97717050      16.12646814      12.62300343
I       34.84404695      13.73275623      12.21995313
I        8.98592656      19.05664850      13.35337386
I       12.53931824      18.91238932      15.28405885
I       11.85752581      22.10697606      11.94786597
I       15.96304398      19.77179579      12.19656239
I       18.89526739      19.04263724      15.37525256
I       19.79493481      22.22123241      12.16424393
I       22.24714917      18.16605520      12.11537698
I       25.18148504      18.97872766      15.48691822
I       24.68206733      22.22801872      12.42482436
I       28.54172670      19.74833008      12.49203092
I       31.69959663      19.15916489      15.50625516
I       32.00421236      22.33967699      12.43462503
I       35.16319935      19.17029912      12.43798062
I        9.38979868      25.53183131      12.35175053
I       12.64240730      25.32279084      15.46607696
I       12.85696026      28.63777264      12.37638003
I       15.85958991      24.56863207      12.24074508
I       18.92711180      25.30323385      15.42049653
I       18.12099614      28.63628993      12.16704395
I       22.14018859      26.11900779      12.10095716
I       25.08962620      25.34280710      15.44230748
I       26.05273993      28.60663159      12.10211577
I       28.45215706      24.80606092      12.63417360
I       31.75920595      25.51308535      15.54426788
I       31.25689271      28.69827415      12.39800621
I       34.90396567      25.57502180      12.09350441
I        9.33773481      31.90006130      12.58887807
I       12.51526083      31.72468498      15.67597468
I       12.33529751      35.26776026      12.55756050
I       15.88628751      32.59600724      11.66180059
I       18.89820495      31.48600214      15.52189028
I       19.36075898      35.13961509      12.91601517
I       22.15204800      31.11746349      12.44843039
I       25.32415257      31.54928797      15.56278344
I       24.77389316      35.32066913      12.70558133
I       28.33049516      32.33233008      12.38950681
I       31.41732634      31.47344947      15.51917595
I       31.17329361      35.34257739      12.73054919
I       34.78700940      31.62635092      12.13422001
I       12.95481459       9.56013926      19.01562240
I       18.88441713       9.25912505      19.14131815
I       25.09729896       9.30599360      19.09381202
I       31.34641191       9.71283082      18.87809427
I        9.65617538      13.21350673      18.76285691
I       12.90402852      12.86047071      21.89634989
I       13.18843784      15.94266397      18.79409155
I       15.96619236      12.61876405      18.41666210
I       19.22395382      12.81074688      21.87695679
I       18.79473257      15.80041682      18.76533074
I       22.21297995      12.84795957      18.31172522
I       24.86236601      12.61915523      22.05134568
I       25.60163367      15.80922631      18.95881801
I       28.60919579      12.68363685      19.14504495
I       31.99262264      12.97187230      22.11419241
I       31.96943867      15.81058170      18.80200519
I       36.34872202      14.10458062      19.02033692
I        9.35777950      18.62932573      18.42341700
I       12.79258539      19.00719696      21.88290846
I       12.15552612      22.26769873      18.80488512
I       15.86312437      19.52536773      18.43511961
I       19.07684798      19.00088681      21.84557792
I       19.54397836      22.22478920      18.76668439
I       22.30236541      18.64647140      18.56419366
I       25.43584252      19.00626623      21.91546584
I       25.21707644      22.22269481      18.90645887
I       28.80808941      19.13046127      18.57713410
I       31.90045478      19.10958589      21.90350661
I       32.20964594      22.22721725      18.65909269
I       35.58617736      18.99076017      18.55882299
I        9.39771066      25.88632000      18.49793204
I       12.71983687      25.29609149      21.91535469
I       12.96471505      28.71300025      18.92643644
I       15.91369842      25.00977469      18.56320545
I       18.99517534      25.29191931      21.89095514
I       18.81706992      28.66607557      18.95418053
I       22.33768712      25.90194204      18.65110014
I       25.46646827      25.36861178      21.88937224
I       25.91707158      28.67796302      18.72953143
I       28.78466395      25.08224120      18.51877144
I       31.75172781      25.16589360      21.88856766
I       31.55393204      28.63097593      19.09407023
I       35.58613501      25.31390223      18.52291235
I        9.43649215      31.68748377      18.94081145
I       13.14445856      31.49290716      22.01082758
I       12.60915302      35.62817134      19.17957605
I       15.88391173      32.09715857      18.62423485
I       19.03576036      31.56674993      21.99342156
I       18.71492349      35.37463290      18.92317672
I       22.33855326      31.79560115      18.78026375
I       25.36432248      31.48615236      21.96953974
I       25.23362036      35.31025183      18.99248803
I       28.89881809      32.51778053      18.78848640
I       32.35778415      32.09398575      21.82328059
I       30.94091480      36.77747039      20.40338222
I       35.72902342      30.61680707      18.89092619
I       13.51838446       9.38104194      24.81770883
I       18.92903076       9.32855364      25.38447947
I       25.81964958       9.33610807      25.23416299
I       31.02028034       9.46934988      25.36991020
I        9.87676945      13.10590570      24.99794501
I       12.91466485      12.52275606      28.32453507
I       12.85555196      15.85823239      25.42696258
I       16.22312325      13.12684099      24.89701173
I       18.98964829      12.81485410      28.34656862
I       19.81960207      15.82602443      25.08553812
I       22.51478435      12.18437256      25.58335446
I       26.00981877      12.98344338      28.31028822
I       25.29852161      15.86752646      25.28534551
I       28.76166256      13.03307112      24.52174401
I       31.49133713      13.02781942      28.28452328
I       32.17669502      15.85412646      25.27557644
I       35.90499888      13.31436817      24.81462064
I        9.88366681      19.21396859      25.31393372
I       13.12339053      19.01503722      28.40372068
I       13.22321593      22.22610353      25.26724411
I       16.27034407      18.62940863      24.94088016
I       19.30548405      19.00027774      28.32810138
I       18.90729715      22.21757679      25.28422254
I       22.60058733      19.57797453      25.02491243
I       25.63067231      19.09352203      28.34226421
I       26.23998690      22.21839102      25.03383402
I       28.99985473      18.76270835      24.99800589
I       32.13387132      19.20121247      28.35330728
I       32.19310103      22.21871899      25.10981112
I       35.80298854      19.04939160      25.01704087
I        9.36976832      25.00976304      24.89587523
I       12.65630658      25.26496443      28.38252125
I       12.52431279      28.64257189      25.47732250
I       16.00644733      25.77811036      24.99978850
I       19.33543688      25.36009769      28.35454035
I       19.48931414      28.66946207      25.19012926
I       22.53197740      25.01400921      24.93570202
I       25.59841444      25.24428793      28.34795885
I       25.45788365      28.61426278      25.30211025
I       29.05189716      25.72779915      25.05154376
I       32.05775336      25.14885876      28.31650715
I       32.41691714      28.69256841      24.74924906
I       35.72597634      25.19160617      24.84804806
I        9.55588244      31.87658899      24.43836651
I       11.95188855      32.06784755      28.26002355
I       12.78401323      35.21044004      24.87595048
I       15.94734392      31.80732401      25.58209516
I       19.35713040      31.48691577      28.40338477
I       18.39101358      35.71196221      25.25667719
I       22.40343099      32.13923489      25.17180493
I       25.80096463      31.45376203      28.39424594
I       25.27164495      35.27870463      25.21463551
I       28.95887562      31.79505995      24.84116576
I       31.76978891      31.23891008      28.14579078
I       30.62262459      36.52344502      25.30876821
I       36.03497422      31.05689548      25.34172936
I       13.18700031       9.79250411      32.13973116
I       19.39664534       9.85122704      31.77408505
I       25.96613380       9.64307503      31.08335151
I       31.31519051       9.64717323      31.62089054
I        9.88406350      13.23374661      31.21648582
I       12.95624909      13.23087339      34.99795324
I       12.86881777      16.24262757      31.95316640
I       16.22226352      13.26140217      31.34248296
I       20.25111896      13.38193442      34.89745380
I       19.35719237      16.16056204      31.68304648
I       22.57926267      13.08648250      30.89876905
I       25.37430547      12.74422582      34.90552940
I       25.78063941      16.02082571      31.58957653
I       28.87693562      13.24522589      31.39652922
I       31.13205233      13.23806552      34.75714748
I       32.43920945      15.92897454      31.31974372
I       35.47717930      12.39256840      30.11085767
I        9.81204366      19.36678169      31.03126924
I       13.24485776      19.54894140      34.93692018
I       12.30259870      22.50541073      31.89944190
I       16.35694141      19.45598278      31.42234942
I       19.68368434      19.29599537      35.08794720
I       19.73463610      22.32239057      31.50202640
I       22.78785477      19.24374115      31.41000900
I       26.05864045      19.24436879      35.05682365
I       26.24766326      22.27260326      31.44785220
I       29.23397825      19.01835539      31.32938401
I       31.95688177      19.10116198      35.00103310
I       32.66993769      22.25912608      31.94315579
I       35.90264014      18.96856963      31.32914599
I        9.96485595      26.07549076      31.67537449
I       13.50590414      25.45151771      34.87775763
I       13.76453817      28.63498507      31.13489190
I       16.32176796      24.94729559      31.27651304
I       19.52090548      25.26775706      35.06337450
I       19.25192803      28.58984980      31.80646859
I       22.74918856      25.44119898      31.48957971
I       26.06940568      25.22159493      35.05226751
I       25.67405707      28.55161959      31.70287820
I       29.26017979      25.71889142      31.54442195
I       32.50622125      25.82014798      34.87366895
I       32.93489798      28.58764209      31.21556554
I       35.87618907      25.29402488      31.36522506
I        9.94226007      31.20498140      31.17856700
I       13.25148708      31.21468772      34.72643676
I       12.99987938      35.03209639      31.73466147
I       16.34572603      31.93224638      31.20907751
I       20.15527464      31.71262849      34.94881179
I       19.72097828      35.02379336      31.23347677
I       22.71120087      31.58615935      31.05164647
I       25.27431738      31.41004218      34.97252107
I       25.62237035      35.28609670      31.27101718
I       29.07503334      31.07725488      31.04487140
I       30.89633802      31.55505503      34.26288739
I       30.64321193      36.13046204      30.79104502
I       35.72831686      32.45363406      29.85484188
Pb      12.67875339      12.88552917      12.06166864
Pb      18.97497438      12.95367590      11.95756084
Pb      25.27565381      12.51088365      12.27066100
Pb      31.69570043      13.00026556      11.99170204
Pb      12.99437200      19.25412996      11.90482836
Pb      19.33882714      19.15502431      12.12204661
Pb      25.52283695      19.06375789      12.17594728
Pb      31.95129217      19.17166160      12.27968321
Pb      12.62969299      25.56810131      12.15532207
Pb      18.89245134      25.58155716      12.06766281
Pb      25.33454158      25.47490705      12.15314008
Pb      31.62135483      25.50570745      12.25108638
Pb      12.40203136      32.19381794      12.26092616
Pb      18.97487353      32.05925857      12.15263048
Pb      25.15491089      32.06541638      12.16340941
Pb      31.50947029      31.98491721      12.10670043
Pb      12.76777942      12.61489310      18.71855005
Pb      19.18511725      12.38769381      18.77151094
Pb      25.57182244      12.45652082      18.95765700
Pb      32.97479970      12.30529896      18.14093282
Pb      12.68970543      19.03435948      18.64908608
Pb      19.23089632      18.94104053      18.68324108
Pb      25.74956517      18.98336309      18.72990372
Pb      32.51073663      18.85345915      18.73410610
Pb      12.66110280      25.51512388      18.70001545
Pb      19.24294942      25.38006931      18.68216569
Pb      25.73455207      25.39883436      18.69906466
Pb      32.50023321      25.31153525      18.70540515
Pb      12.57934985      32.20132314      18.81314750
Pb      19.15907056      31.86808591      18.75113113
Pb      25.80275889      31.94119432      18.74752861
Pb      32.74851231      31.46514353      18.71683609
Pb      13.09425852      12.44783612      25.16634928
Pb      19.41371509      12.43378747      25.30276945
Pb      25.82954409      12.47698728      25.18362246
Pb      32.81894810      12.32834556      25.44385738
Pb      12.99848143      19.01947045      25.25507422
Pb      19.51676304      18.93249458      25.21773047
Pb      25.92080421      18.95620177      25.21308223
Pb      32.70132292      18.90859224      25.20106609
Pb      12.86705191      25.44925398      25.22771527
Pb      19.45727921      25.30067998      25.21273722
Pb      25.99075851      25.32264455      25.22168809
Pb      32.61828729      25.32728451      25.13368729
Pb      12.74221077      32.07340243      25.10960447
Pb      19.29963186      31.77286014      25.28072766
Pb      25.89114356      31.74850699      25.21743581
Pb      33.02151120      31.79374106      25.38895334
Pb      13.01470400      12.95809658      31.86796412
Pb      19.62649294      12.97794447      31.89469326
Pb      25.78581378      12.75321823      31.71904681
Pb      32.79034906      12.48849975      31.78779779
Pb      13.17574549      19.36740681      31.77867204
Pb      19.66934710      19.23317275      32.03219311
Pb      26.06560783      19.10759324      31.98056515
Pb      32.49379548      18.97155230      31.80435345
Pb      13.19371792      25.63350243      31.79239272
Pb      19.62114693      25.45547762      31.96550722
Pb      26.14807136      25.33793099      31.96791885
Pb      32.71676621      25.42973044      31.74328297
Pb      13.20243311      31.91629297      31.72623420
Pb      19.66227603      31.88515881      31.87200831
Pb      25.88670611      31.62922325      31.89666945
Pb      33.17781975      31.79345550      31.52934934
C       15.55597772      15.86731829       8.95409121
C       22.11328558      16.10228802       8.61198853
C       27.88146319      15.98943196       8.92500299
C       15.84927193      22.28767510       8.74486489
C       21.84144727      22.07030911       8.84334059
C       27.91476552      22.20089291       9.18009343
C       15.54945811      28.80001398       8.83361851
C       22.07759218      28.31000566       8.84335304
C       27.92746783      28.41955369       8.63159029
C       15.19415906       9.48876873      15.17424623
C       22.13330199       9.74997704      15.68457128
C       28.18931365       9.64492853      15.39583646
C        9.44665514      15.71571951      15.38814666
C       15.43296461      15.96615901      15.38802606
C       22.02184809      15.87443291      15.38792363
C       28.16285452      16.00089220      15.38916665
C       34.61267971      16.30337552      15.38001831
C        9.55422719      22.20365316      15.37886689
C       15.74109102      22.13071548      15.39345911
C       21.97540068      22.11058526      15.39406547
C       28.20819606      22.11734771      15.51642084
C       34.57678016      22.45963022      15.36830036
C        9.56490746      28.40806858      15.37659999
C       15.70171850      28.39893213      15.48168898
C       22.01584568      28.42285714      15.28769405
C       28.18622332      28.28688718      15.37041293
C       34.66726781      28.67048937      15.25160608
C       15.69746993      34.65456062      15.49259442
C       22.00133713      34.48871499      15.78842115
C       27.95029793      34.76489528      15.48567154
C       15.82592745       9.79022422      21.79137304
C       21.98562847       9.55026666      21.90823268
C       28.49637869       9.63852123      21.87655530
C        9.75261585      15.99848972      21.80810077
C       15.90099821      15.85911878      21.68434976
C       22.10778828      15.90229470      21.70166786
C       28.52668310      16.00430611      21.67662766
C       34.64416460      16.33871218      21.92061790
C        9.72133449      22.02685399      21.81750705
C       15.84539040      22.11366031      21.69735921
C       22.25191399      22.12207735      21.66250270
C       28.50035992      22.11610880      21.65048001
C       34.93927799      22.05770327      21.55007348
C        9.74604928      28.36823481      21.81007586
C       15.89351271      28.41497162      21.68759833
C       22.21179872      28.49843160      21.69312297
C       28.38037786      28.31241158      21.68438664
C       34.66388851      27.74512502      21.68136787
C       15.76457998      34.56574425      22.01543731
C       22.10764649      34.64657020      22.00944450
C       28.03120908      34.40641360      22.01788569
C       15.81609511       9.65666621      28.34116852
C       21.90541594       9.88482158      28.59965402
C       28.24618466       9.62790807      28.17202957
C        9.77635817      15.95942750      28.11632376
C       16.00066559      15.96751602      27.99619314
C       22.34291276      15.97025283      27.99511750
C       28.52886920      16.11118956      27.98523019
C       34.97313282      16.08670139      27.86578757
C        9.74055502      22.21049077      28.11196849
C       16.09467566      22.12582682      28.00411063
C       22.34516201      22.17409857      28.10295435
C       28.74411016      22.12385684      28.07170645
C       35.00177700      22.10008397      27.90388082
C        9.65729057      28.31742612      28.11010688
C       16.11028144      28.41965000      27.99034938
C       22.34197329      28.34932728      27.99511715
C       28.60697218      28.21009894      27.98924900
C       34.90716387      28.07658065      27.86381573
C       15.99865774      34.84050252      28.50438214
C       22.24616098      34.66142320      28.32234800
C       28.33988685      34.37123812      28.09687541
C       16.33551136      15.88447967      34.74427315
C       22.91253654      16.32601318      34.31389110
C       28.46020490      16.08426657      34.37522298
C       16.16048619      22.21550429      34.27688034
C       22.71834262      22.20336907      34.31856834
C       29.04980336      22.18766608      34.16226027
C       16.29004618      28.52999915      34.50492186
C       22.54947191      28.29657226      34.29937277
C       28.58275135      28.30308105      34.51792178
N       17.01339951      15.99138280       9.49569067
N       23.45621816      15.98512750       9.40988472
N       29.25765387      16.21265856       9.62253704
N       17.21502090      22.19795861       9.50857297
N       23.34326892      22.09061918       9.27951252
N       29.27072889      22.29719935       9.94802311
N       17.11670688      28.73406104       8.82934179
N       23.44566660      28.40460709       9.60775714
N       29.14122859      28.41464654       9.61874959
N       16.15790710       9.19535807      16.38626971
N       23.66149025       9.76639721      16.00996696
N       29.69849252       9.75514978      15.80540131
N       10.86998056      15.86190130      16.02580607
N       16.90456274      15.99191781      15.92189463
N       23.45042897      15.87113323      16.03466904
N       29.58388214      16.10127708      16.04610061
N       35.81778991      15.41611630      15.80733378
N       11.09247509      22.09332464      15.59277359
N       17.20953675      22.09905105      15.93755239
N       23.44878215      22.08989488      15.92173621
N       29.68945852      22.09362702      16.03505886
N       35.71049051      22.08335041      16.37530202
N       10.99126177      28.42290767      16.01598772
N       17.20471620      28.40826908      15.91646502
N       23.44722641      28.41700590      15.93099802
N       29.59899515      28.30657375      16.04131107
N       36.01792226      28.30354235      15.93077495
N       17.22341877      34.51145463      15.80500319
N       23.55835607      34.50764285      15.92660148
N       29.46938375      34.39755310      15.59050116
N       17.32807980       9.87338314      22.22355050
N       23.34261108       9.00937739      22.43790701
N       29.99695992       9.99942306      22.12413409
N       11.21256402      15.87529380      22.33696028
N       17.32387743      15.86623773      22.34440239
N       23.54697216      15.88119660      22.32073891
N       29.93395068      16.07738623      22.36045768
N       36.01981260      15.64403103      22.11580331
N       11.19409263      22.08214040      22.34184400
N       17.32061554      22.08842380      22.21995978
N       23.66335734      22.09341214      22.34666259
N       29.90404194      22.07999906      22.34319424
N       35.71857658      21.97763878      22.89323474
N       11.21171376      28.41577845      22.33102822
N       17.31844042      28.40529096      22.34248741
N       23.64572258      28.40723579      22.32259668
N       29.79666869      28.18723860      22.34664580
N       35.58702102      28.74053023      22.44374236
N       17.32364795      34.51329188      22.11989910
N       23.66247447      34.50826085      22.11335800
N       29.57439613      34.28520393      22.23527382
N       17.32876527       9.76005154      28.74501389
N       23.35071890       9.32640383      28.43156737
N       29.70253847      10.10360354      28.43216458
N       11.20751437      15.86003200      28.75559115
N       17.42619421      15.97699072      28.64726934
N       23.76997430      15.97544638      28.64590924
N       29.93177555      16.20140727      28.67029210
N       36.21962475      15.85976720      28.77088205
N       11.20484085      22.08172438      28.63580408
N       17.52471685      22.09291959      28.65174163
N       23.76715887      22.08909549      28.76098577
N       30.13764671      22.08746506      28.78713539
N       36.22833208      21.99093438      28.86404960
N       11.07999738      28.41953401      28.76158741
N       17.53161692      28.41069424      28.64976283
N       23.76735074      28.30323286      28.64949801
N       30.01289457      28.08019447      28.66605741
N       36.00852141      28.51092516      28.87504310
N       17.52667887      34.50994742      28.41826979
N       23.78436064      34.38774239      28.31161587
N       29.89842165      34.29560448      28.08015020
N       17.73713238      16.09333946      35.39389792
N       23.75899050      16.20018167      35.61481267
N       29.59337045      16.33259278      35.40470378
N       17.46325776      22.21899598      35.11700846
N       23.91131526      22.21995724      35.30900882
N       30.00809721      22.20930539      35.38775753
N       17.64125784      28.40305833      35.26762648
N       23.75594681      28.17033138      35.27484177
N       29.99832224      28.39623969      35.18582897
H       15.62270661      15.92298718       7.89447177
H       14.98779553      16.67629476       9.34539157
H       15.16517571      14.92683812       9.26148710
H       17.44309484      16.90592592       9.20935982
H       17.61660349      15.21885179       9.11792685
H       17.06097043      15.93402164      10.54000910
H       22.35555094      16.16506701       7.57834315
H       21.62722098      16.99619378       8.92144586
H       21.51741356      15.24908211       8.81836898
H       24.07677775      16.79463201       9.15579649
H       23.94920037      15.07673878       9.21940015
H       23.27487110      16.04450455      10.43198633
H       28.05273938      16.02407772       7.87691737
H       27.23086084      16.77332536       9.22629156
H       27.50657477      15.04332864       9.23034711
H       29.67104424      17.14434078       9.35786933
H       29.92513770      15.44707425       9.34432711
H       29.17172486      16.18500941      10.66016928
H       16.06739923      22.37487619       7.70492842
H       15.33446702      23.14163804       9.11479808
H       15.30589765      21.39573004       8.94739970
H       17.78647234      23.05512446       9.30856438
H       17.74247240      21.33803152       9.21891717
H       17.04959892      22.14795702      10.53305978
H       21.82700539      21.92958625       7.78639224
H       21.40517543      22.99659946       9.12774372
H       21.37307911      21.25685097       9.33998917
H       23.82429495      22.93367799       8.89573876
H       23.83446913      21.22610391       8.94781281
H       23.45157347      22.13077557      10.32536966
H       28.15298385      22.23367893       8.14080204
H       27.31264193      23.02798414       9.46650291
H       27.45896761      21.27759286       9.44505123
H       29.76947744      23.18715296       9.69802184
H       29.87089132      21.47231214       9.68642722
H       29.11538699      22.26991765      10.97513999
H       15.21926949      28.79124058       7.82019134
H       15.25994449      29.69110590       9.33782225
H       15.19628850      27.94095077       9.35361569
H       17.52362049      29.49027879       8.24210501
H       17.44107178      27.80981426       8.46081791
H       17.47899256      28.81862756       9.81624697
H       22.29368519      28.14056507       7.81119436
H       21.55072412      29.22030321       9.00415548
H       21.54640452      27.48199655       9.24738970
H       23.95269041      29.28739968       9.36769873
H       24.03661296      27.57185569       9.35384242
H       23.28294868      28.37790464      10.63436217
H       28.31730097      28.34856464       7.64511614
H       27.39709575      29.33060694       8.77362538
H       27.31886709      27.57904829       8.86166656
H       29.73914656      29.26344198       9.45672968
H       29.71890100      27.54441957       9.47672700
H       28.80069811      28.44514547      10.59930177
H       15.75353200       9.38532185      14.27820348
H       14.83804014      10.48498371      15.29105285
H       14.39423275       8.78818277      15.21001784
H       16.98461308       9.83287330      16.33509988
H       16.47822186       8.19979828      16.39658573
H       15.65235307       9.38344472      17.27580881
H       22.03576286       9.83676623      14.62937620
H       21.68618727      10.58239630      16.17183192
H       21.72742751       8.83351842      16.03511517
H       24.04686744      10.73619535      15.87848274
H       24.16891220       9.16018129      15.33100080
H       23.88167748       9.47532570      16.99815366
H       28.13297362       9.70468290      14.33296514
H       27.67782172      10.46207761      15.84682354
H       27.82173852       8.71104098      15.74785156
H       30.07176263      10.70618092      15.56195968
H       30.27457797       9.04806327      15.30970334
H       29.85677165       9.62044558      16.83572706
H        9.56744933      15.68150727      14.33332375
H        8.87037741      16.55777520      15.68005911
H        9.01277587      14.81855615      15.76087092
H       11.35178536      16.72554846      15.67586092
H       11.45980823      15.02229203      15.78669898
H       10.80754852      15.92457553      17.06072065
H       15.47543989      16.00690642      14.32671352
H       14.93327529      16.81761668      15.78063501
H       14.98038792      15.06392194      15.72655673
H       17.37502215      16.89448525      15.66318767
H       17.45779495      15.22411041      15.50013830
H       16.96114551      15.89692631      16.96383870
H       22.14057775      15.80829137      14.33352017
H       21.54734243      16.78767600      15.65751392
H       21.49472516      15.03362515      15.76757418
H       23.99104517      16.71751805      15.73167140