952
Properties=species:S:1:pos:R:3 i=237 E=-19845.244195236 pbc="F F F"
I       12.39418154      12.75722030       9.09083259
I       19.14039743      13.36966739       9.01787867
I       25.09976598      12.80048890       9.22708269
I       31.02573174      13.39365874       9.05117084
I       12.97745318      19.27151008       8.97397111
I       18.71643405      19.07918144       8.95940969
I       25.14002116      19.10131158       9.10719399
I       30.87014366      19.26787245       9.15122915
I       12.81922587      25.47870445       9.16752784
I       18.53771528      25.42996438       9.00026409
I       25.04038989      25.31254112       9.03134885
I       30.80660154      25.39327590       9.21116330
I       12.16253721      31.85072202       9.24701684
I       19.43606615      31.78849315       9.18661208
I       24.95767032      31.74177570       9.15517935
I       30.74346057      31.52308699       9.10079657
I       12.71142155       9.22581676      12.43594070
I       18.61796677       9.52704540      13.12023492
I       24.79185669       9.42144972      12.85222709
I       31.52549595       9.83306182      12.30197840
I        9.66015064      11.53544633      12.46932714
I       12.51065275      12.82057649      15.59772643
I       11.76083098      15.91931893      12.13595414
I       15.72869956      12.65281017      11.85570312
I       18.54848540      11.70084435      15.51037985
I       18.42466148      15.84125522      12.88751229
I       22.02193025      13.01106309      12.58408481
I       25.29530202      12.81149559      15.77745250
I       25.71862636      15.89373483      12.40531284
I       28.33861849      12.51841135      12.50460159
I       31.18409266      12.93420170      15.74253733
I       30.87160657      16.11538341      12.73381538
I       34.71964957      13.73455174      12.30665331
I        8.86990727      19.12026534      13.34072517
I       12.41773527      18.93094553      15.47017333
I       11.86706459      22.10780527      12.23144062
I       15.83147229      19.38284128      12.33093858
I       18.81877798      19.02948892      15.50189400
I       19.62080304      22.19178665      12.30324879
I       22.15841559      18.24006309      12.21949096
I       25.07248896      18.96824832      15.60910125
I       24.68988031      22.20452352      12.58615952
I       28.46667229      19.72120311      12.62137165
I       31.61178980      19.15880533      15.61574383
I       31.91303770      22.32203127      12.54453552
I       35.10091720      19.14411938      12.55830455
I        9.33174278      25.50586448      12.41817139
I       12.48802722      25.27399250      15.60959127
I       12.76890664      28.63395221      12.56091026
I       15.78116204      24.59783827      12.39749881
I       18.85251398      25.29748058      15.54628582
I       18.15574229      28.60338965      12.38365587
I       22.06591980      26.02411311      12.22258976
I       24.98969948      25.32751745      15.57873840
I       25.83938791      28.58817551      12.31209330
I       28.39436464      24.85373058      12.77318211
I       31.70112222      25.51600857      15.65714612
I       31.19002748      28.68827774      12.53247328
I       34.85940614      25.59708351      12.17649124
I        9.24429210      31.91958834      12.66125725
I       12.30018149      31.78041563      15.81315603
I       12.26892568      35.27869179      12.66479258
I       15.77474717      32.46773262      11.85023867
I       18.80943682      31.49555092      15.65819578
I       19.22663952      35.14088960      13.01702192
I       22.06433663      31.18025195      12.59821763
I       25.17315773      31.55629569      15.69214695
I       24.71876344      35.37769313      12.83920957
I       28.24391659      32.13753182      12.57587327
I       31.32952480      31.45119575      15.66876889
I       31.01065950      35.32963034      12.83955264
I       34.70560733      31.61836518      12.27291182
I       12.85335735       9.55036981      19.24331853
I       18.77861125       9.21704264      19.28406515
I       25.33062225       9.32988900      19.11169354
I       31.22481687       9.71200064      18.99154159
I        9.54650858      13.23729460      18.89743302
I       12.82375347      12.87045305      22.02755869
I       13.07922554      15.92474786      18.91244128
I       15.87738088      12.62955242      18.53376139
I       19.13382248      12.81116386      21.99854176
I       18.87157290      15.76913186      18.89671379
I       22.14997586      12.60534875      18.42437261
I       24.79109466      12.59583732      22.14510625
I       25.32921921      15.79421558      19.10635301
I       28.55014644      12.78675436      19.25159145
I       31.84808431      12.95108056      22.24753217
I       31.89524958      15.81788241      18.91614467
I       36.24712705      14.07818196      19.17581470
I        9.23392326      18.69782611      18.52346417
I       12.71336501      18.99332977      22.02697831
I       12.17150852      22.26082813      19.02645740
I       15.77316167      19.44732574      18.52807301
I       18.95489265      18.99977821      21.97457433
I       19.39722531      22.22062533      18.88024904
I       22.21558698      18.77663432      18.68879181
I       25.35823276      19.01248788      22.03359240
I       25.18597230      22.20158358      19.01110276
I       28.71398769      19.04022068      18.67899484
I       31.80497254      19.10995541      22.01221514
I       32.05634854      22.22306860      18.78677768
I       35.49763894      19.02279779      18.69555688
I        9.28989814      25.81533325      18.59627517
I       12.65439656      25.30945191      22.05715538
I       12.88447760      28.70564590      19.01071756
I       15.80967181      25.04281397      18.62695051
I       18.87282233      25.27795170      22.02537914
I       18.74313337      28.66807863      19.07245552
I       22.23950584      25.84501846      18.77692607
I       25.38466662      25.34573508      22.01800171
I       25.76068203      28.66544184      18.85386474
I       28.69763500      25.13594059      18.60970800
I       31.64461168      25.17226734      22.00683071
I       31.45725655      28.61571183      19.21796644
I       35.48919266      25.28359209      18.66620798
I        9.31397759      31.64612334      19.13906523
I       13.05022477      31.48221127      22.13631854
I       12.49392063      35.62004326      19.28699483
I       15.74758455      32.08104473      18.70762107
I       18.94992584      31.57858785      22.11711009
I       18.58591672      35.36734946      19.03879685
I       22.21132501      31.91014374      18.88007888
I       25.24942130      31.47974886      22.08223373
I       25.17068621      35.29570893      19.15540270
I       28.80747754      32.41281595      18.97072372
I       32.25570793      32.06159152      21.95829830
I       30.65747592      36.81146244      20.55916713
I       35.63303998      30.55953544      19.04456766
I       13.46133029       9.20208297      24.96026582
I       18.82560643       9.29230406      25.49419890
I       25.72868517       9.36752318      25.40323421
I       30.96179409       9.40927320      25.50592859
I        9.74285554      13.12567446      25.12561488
I       12.76234507      12.43189409      28.43855725
I       12.89561506      15.75766473      25.53906946
I       16.09899110      12.98077694      24.97124260
I       18.87065538      12.80646287      28.46602037
I       19.56571552      15.81464613      25.25329638
I       22.40502025      12.30779855      25.57700800
I       25.83408669      12.96734795      28.41705711
I       25.27000956      15.86046113      25.37387211
I       28.65983156      12.98317822      24.65315704
I       31.39497683      13.02363882      28.42034035
I       32.03989441      15.83106796      25.39669607
I       35.79564006      13.27909239      24.92585970
I        9.78363264      19.03717909      25.39486813
I       12.95138460      18.99035075      28.54065904
I       12.94699885      22.17926519      25.44066603
I       16.14914953      18.84783280      25.08754999
I       19.20800283      18.99975750      28.46211427
I       18.99292081      22.23227919      25.43259485
I       22.48642998      19.43117715      25.09732276
I       25.52579664      19.07864994      28.47403284
I       25.95061941      22.22292302      25.23265725
I       28.92379523      18.86643695      25.12215549
I       32.03398378      19.19428361      28.46158285
I       32.17932385      22.20498617      25.18193242
I       35.69820301      18.99673136      25.12453017
I        9.28836103      25.23274268      25.01574013
I       12.52741619      25.25493808      28.52054699
I       12.47500270      28.63388219      25.59250626
I       15.91077685      25.65369548      25.17197531
I       19.23758217      25.37125552      28.48774483
I       19.31751097      28.69304452      25.32546979
I       22.43212002      25.24175365      25.03897435
I       25.50176270      25.26112457      28.47487442
I       25.43863523      28.63041175      25.39795728
I       28.95999002      25.63728758      25.17721204
I       31.96582301      25.13916547      28.42481083
I       32.29245141      28.67086828      24.87881578
I       35.66474128      25.21433291      24.95243875
I        9.50231106      31.92803453      24.59408101
I       11.88100073      32.05445632      28.35798192
I       12.72244108      35.20005807      25.01435725
I       15.87003045      31.76382282      25.61458113
I       19.24934373      31.51361315      28.52699749
I       18.29313257      35.70852176      25.37956472
I       22.31920990      32.10158867      25.28310442
I       25.68970050      31.46951026      28.49795721
I       25.14906123      35.29645708      25.33416847
I       28.87317415      31.83131439      24.97816772
I       31.66366061      31.23015055      28.26384476
I       30.55576042      36.45909499      25.38328402
I       35.90916609      31.03805182      25.43700988
I       13.05816269       9.75995993      32.08910575
I       19.31599121       9.83570028      31.85876923
I       25.76634320       9.58122696      31.21961448
I       31.19179580       9.64293973      31.74440952
I        9.77891868      13.22570803      31.35433258
I       12.86484894      13.20241711      35.08122312
I       12.75269982      16.21898723      32.05949150
I       16.03888254      13.23903829      31.40318024
I       20.14887693      13.36563188      35.00391430
I       19.13887649      16.13512702      31.82843989
I       22.43388464      13.06447481      30.99422579
I       25.29272559      12.70267526      35.00707798
I       25.65628517      15.99051729      31.72954424
I       28.73629461      13.19084400      31.50221841
I       31.02047034      13.20576056      34.90043861
I       32.23121335      15.92844527      31.50906304
I       35.37927707      12.38058853      30.25911278
I        9.66868747      19.39375022      31.18656693
I       13.19546371      19.53196334      35.09408082
I       12.20986093      22.49648784      32.08515569
I       16.22641828      19.47709900      31.50768281
I       19.61513617      19.25639506      35.20062311
I       19.63442864      22.30603381      31.62316627
I       22.66855214      19.15256832      31.50886718
I       25.98962222      19.20189641      35.19101777
I       26.01328716      22.26327716      31.61405312
I       29.11956495      19.09837883      31.42049354
I       31.86773733      19.12248207      35.09503834
I       32.58711965      22.26040672      32.06395928
I       35.79310495      18.94948300      31.45454267
I        9.86562663      26.04949634      31.81326961
I       13.43407830      25.45596146      35.01928830
I       13.66287951      28.62061399      31.25338438
I       16.20673475      24.93679518      31.36914906
I       19.40478179      25.23741790      35.19832139
I       19.13897586      28.59219150      31.92137406
I       22.63698557      25.47527778      31.59643053
I       25.92697810      25.20226226      35.18086651
I       25.63891507      28.57099251      31.78355191
I       29.15725904      25.65504151      31.66026432
I       32.42080474      25.81000759      34.98900312
I       32.80491317      28.58303950      31.34358257
I       35.77360683      25.30477202      31.47393977
I        9.86952023      31.20255104      31.28171572
I       13.15140224      31.21110181      34.84305305
I       12.88602037      35.00582141      31.84211933
I       16.26389305      31.93180710      31.36752198
I       20.03119494      31.68072439      35.10009601
I       19.70950364      35.05053541      31.41997385
I       22.63262681      31.55634276      31.20956716
I       25.23480465      31.38132158      35.09738513
I       25.44087675      35.35112700      31.41335957
I       28.99655986      31.10198546      31.15159327
I       30.76952284      31.54615837      34.38802028
I       30.50273573      36.15038225      30.88378556
I       35.61949265      32.41489218      29.95164528
Pb      12.48542570      12.85563782      12.19240183
Pb      18.87784759      12.91750954      12.06855210
Pb      25.20157640      12.48965655      12.37132134
Pb      31.58184801      12.97532727      12.09877687
Pb      12.82329482      19.19253745      12.07992719
Pb      19.23959085      19.12023192      12.27289408
Pb      25.46179533      19.05605231      12.30855553
Pb      31.89972485      19.13815953      12.38551035
Pb      12.55539824      25.55225603      12.30513526
Pb      18.83845008      25.53666758      12.20007682
Pb      25.26809541      25.47301507      12.29135284
Pb      31.57962933      25.49496500      12.36627066
Pb      12.31124921      32.17900813      12.37433459
Pb      18.89076761      32.05467526      12.28967263
Pb      25.04860279      32.16027461      12.30434015
Pb      31.41948583      31.98930117      12.21809042
Pb      12.63666149      12.61324981      18.85240514
Pb      19.10292069      12.35110325      18.90179913
Pb      25.55834299      12.46959335      19.06859622
Pb      32.83886703      12.30401264      18.30459457
Pb      12.61287518      19.02290004      18.78235808
Pb      19.14620948      18.93981913      18.82578785
Pb      25.65968028      18.96568762      18.85800012
Pb      32.42608216      18.86119404      18.84712254
Pb      12.60523298      25.50097121      18.83481446
Pb      19.14914094      25.38210210      18.81748764
Pb      25.64558623      25.39021157      18.82353072
Pb      32.40318278      25.30346068      18.82440050
Pb      12.47585619      32.18213245      18.94578022
Pb      19.05699902      31.87821053      18.87662583
Pb      25.71066418      31.92543856      18.89335293
Pb      32.66333168      31.43886095      18.86039159
Pb      12.87197540      12.42746383      25.30680873
Pb      19.24462074      12.40558023      25.41811597
Pb      25.70832522      12.49279133      25.30771499
Pb      32.72688362      12.35814473      25.55924234
Pb      12.90105587      18.97046532      25.38424025
Pb      19.40153870      18.92607358      25.35408448
Pb      25.84556522      18.95422812      25.34920037
Pb      32.59988104      18.88702348      25.30993487
Pb      12.75376958      25.45071126      25.36358962
Pb      19.34881124      25.33073569      25.35006741
Pb      25.89176437      25.33622964      25.35492539
Pb      32.55989963      25.31629359      25.24684521
Pb      12.66076064      32.07627339      25.23570244
Pb      19.21100486      31.79774281      25.40169247
Pb      25.80418872      31.75856709      25.34567907
Pb      32.90124280      31.77069252      25.48963837
Pb      12.88577740      12.85410148      31.98164977
Pb      19.51212829      12.94080405      32.02355110
Pb      25.66400982      12.72666701      31.84687203
Pb      32.69723590      12.47755495      31.90168140
Pb      13.09655653      19.32902395      31.93824701
Pb      19.58321957      19.20782783      32.14286693
Pb      25.97056780      19.08753706      32.10569148
Pb      32.39220471      18.97146967      31.90584018
Pb      13.09699623      25.61929851      31.93946048
Pb      19.51531087      25.45676664      32.10325231
Pb      26.02488172      25.34813188      32.10353057
Pb      32.60092224      25.41049325      31.85910383
Pb      13.11751217      31.89334353      31.84366287
Pb      19.59678385      31.90729615      32.02738958
Pb      25.81603000      31.67083755      32.05977504
Pb      33.06553059      31.76501087      31.61386350
C       15.50296736      15.87040384       9.07335148
C       22.00437321      16.10310198       8.71335777
C       27.77181016      15.99020191       9.04299783
C       15.65467282      22.27790011       9.04563786
C       21.76298005      22.07029509       8.96502160
C       27.81089711      22.20246832       9.29148428
C       15.41072932      28.73990169       9.04255531
C       21.94105139      28.30742013       9.02731356
C       27.81666780      28.40456899       8.88870107
C       15.08473059       9.46720234      15.34342241
C       22.08296977       9.72144365      15.62639220
C       28.08780595       9.64482491      15.50338499
C        9.34022595      15.74263825      15.49403396
C       15.42631457      15.90379059      15.51944669
C       21.91556076      15.87275139      15.49790441
C       28.05815592      16.00032989      15.49983999
C       34.53816126      16.31689222      15.50539497
C        9.39544382      22.20130194      15.51808627
C       15.66381251      22.11175685      15.42398439
C       21.89247418      22.11626584      15.44457159
C       28.10206774      22.11716415      15.62706754
C       34.46784840      22.43499734      15.47669112
C        9.45660056      28.40583352      15.48796787
C       15.62792050      28.39692627      15.50343583
C       21.91069555      28.42036542      15.39572416
C       28.07813198      28.28675191      15.48150578
C       34.56549122      28.67182463      15.36271796
C       15.59131972      34.65480806      15.60386274
C       21.93330788      34.51206030      15.75474085
C       27.87946437      34.54360706      15.68981160
C       15.72018165       9.79233166      21.90475723
C       21.93417174       9.53122938      22.03497092
C       28.38681084       9.63831328      21.98797968
C        9.64593769      15.99907597      21.91998406
C       15.79626277      15.85928446      21.79531095
C       22.00418474      15.90151040      21.81768684
C       28.40757469      16.00560427      21.79000119
C       34.53834054      16.33450777      22.03185624
C        9.61619492      22.03116715      21.93324469
C       15.77078312      22.11970401      21.82253306
C       22.13037162      22.12368605      21.79554874
C       28.39515826      22.11614232      21.76604179
C       34.85127703      22.18290288      21.65302414
C        9.64602550      28.35999161      21.92012765
C       15.77746826      28.37164954      21.81792422
C       22.10522281      28.45461319      21.82355542
C       28.27349896      28.31222147      21.79529573
C       34.55587564      27.74614247      21.79333892
C       15.65970113      34.55800890      22.12576418
C       22.00172181      34.64763652      22.12139653
C       27.92160175      34.40414104      22.13037832
C       15.70836442       9.64818655      28.45762088
C       21.79321918       9.89352682      28.54902483
C       28.12684130       9.65281765      28.31396438
C        9.66859270      15.95522788      28.22374975
C       15.89777275      15.96893387      28.10346233
C       22.23936144      15.97013502      28.10282329
C       28.41588488      16.08853717      28.09517197
C       34.86662266      16.08649963      27.97954369
C        9.67011358      22.17925400      28.21444961
C       15.99486564      22.12740351      28.10429977
C       22.23861057      22.14109517      28.21119280
C       28.62951449      22.12433294      28.18164360
C       34.89636878      22.09902168      28.01475703
C        9.55549361      28.31949048      28.22144622
C       16.00504395      28.41918188      28.10045067
C       22.23156582      28.34548351      28.12219980
C       28.50469135      28.20745092      28.09792848
C       34.82256491      28.08509731      28.03350895
C       15.86463601      34.65807372      28.54493787
C       22.13473030      34.63312174      28.42720963
C       28.23250639      34.39388684      28.22736510
C       16.22814407      15.87863201      34.85817468
C       22.74879810      16.32030953      34.47359213
C       28.42741773      16.08899165      34.48940624
C       16.07079143      22.20446567      34.38633739
C       22.61560685      22.12070086      34.39527751
C       28.91033423      22.18984721      34.28402269
C       16.18617971      28.53355724      34.61571992
C       22.46901063      28.30122758      34.39922629
C       28.50670400      28.29894947      34.63031184
N       16.92383261      15.99711157       9.70588300
N       23.35025284      15.98576234       9.51199623
N       29.15187044      16.21105506       9.73337753
N       17.10940270      22.20205465       9.61974618
N       23.23511946      22.09254600       9.49637663
N       29.16633937      22.29629087      10.06041665
N       16.97228286      28.67152584       9.14066939
N       23.34122015      28.40951365       9.72847389
N       29.13362782      28.41554191       9.73300998
N       16.05883246       9.18506978      16.55261342
N       23.55888052       9.76246606      16.14394683
N       29.59506001       9.75572113      15.91629065
N       10.76065808      15.85715411      16.14601430
N       16.87348006      15.86746614      16.12902299
N       23.34403788      15.87014498      16.14384019
N       29.47939286      16.10005259      16.15615357
N       35.71081698      15.42726268      16.01480822
N       10.89640387      22.09615877      15.90968025
N       17.10627592      22.09462482      16.03951866
N       23.34183761      22.08989773      16.03614230
N       29.58384953      22.09335782      16.14520356
N       35.60457722      22.07924458      16.48691591
N       10.88275259      28.41888768      16.12999833
N       17.10309592      28.40674297      16.02937982
N       23.34158990      28.41516481      16.04055453
N       29.49157975      28.29709953      16.15205180
N       35.91468248      28.30318670      16.04299010
N       17.11715076      34.51125374      15.91557666
N       23.45261205      34.51547221      16.13123680
N       29.43368478      34.35863991      15.75853590
N       17.22218839       9.87421537      22.33677922
N       23.24972827       8.99335627      22.65540117
N       29.89597526       9.94696760      22.25385430
N       11.10593607      15.87456583      22.45193689
N       17.21954002      15.86575615      22.45453879
N       23.44395798      15.87768870      22.43765795
N       29.81731585      16.08151749      22.46705815
N       35.91546905      15.64530908      22.22958713
N       11.08992174      22.08278609      22.45332822
N       17.21085518      22.08971473      22.44359272
N       23.55566073      22.09029896      22.45439402
N       29.80033329      22.07989430      22.45559041
N       35.63056225      21.91767098      22.97352957
N       11.11120910      28.41546833      22.44215244
N       17.21281505      28.40817474      22.45007419
N       23.54440523      28.40121974      22.44548513
N       29.68988500      28.18597914      22.45750620
N       35.49688365      28.73009001      22.55313826
N       17.21848173      34.51470113      22.23096634
N       23.55608960      34.50817059      22.22520142
N       29.46309724      34.27860316      22.34925097
N       17.22168903       9.75686451      28.86180505
N       23.24440682       9.32758109      28.52961145
N       29.59750858      10.10359667      28.54300190
N       11.10072913      15.85850033      28.86540062
N       17.32204221      15.97763007      28.75718764
N       23.66453874      15.97551652      28.75739873
N       29.81742586      16.19997554      28.77922646
N       36.11870509      15.86119405      28.87737481
N       11.09524168      22.07973482      28.84219472
N       17.42104688      22.09222793      28.76149134
N       23.66283992      22.09162379      28.86860953
N       30.02485147      22.08601221      28.89349762
N       36.12259057      21.98814599      28.97524696
N       10.97733583      28.41926494      28.87331224
N       17.42626935      28.41217748      28.76104162
N       23.66383204      28.30504912      28.76138466
N       29.90884397      28.07882758      28.77839517
N       35.90910373      28.50926386      29.07012946
N       17.42256981      34.49764693      28.53026268
N       23.67808178      34.38741791      28.42874109
N       29.79020862      34.29415159      28.19310148
N       17.63041856      16.09240133      35.50531635
N       23.64847980      16.20051806      35.73655591
N       29.55827116      16.33522840      35.52573560
N       17.37449949      22.13372101      35.22273384
N       23.80178183      22.11330580      35.39783687
N       29.89489913      22.20292847      35.49147145
N       17.53637111      28.40182783      35.37901786
N       23.65911504      28.17120603      35.38993380
N       29.90885511      28.38258935      35.32587754
H       15.63495464      15.92646253       8.01921898
H       14.91384846      16.67902150       9.43485277
H       15.09322853      14.93020633       9.35764581
H       17.36099182      16.91524290       9.44611833
H       17.55363980      15.23254933       9.34981682
H       16.90723015      15.92939064      10.74703074
H       22.24763445      16.14324058       7.67404895
H       21.52832398      17.00553731       9.01514975
H       21.40354315      15.25743135       8.93807243
H       23.96522966      16.80197699       9.26328396
H       23.84991291      15.08725991       9.30747385
H       23.17587027      16.03393382      10.53608874
H       27.93951947      16.02362837       7.99454566
H       27.12306339      16.77614761       9.34434256
H       27.39699298      15.04413133       9.34808007
H       29.56702052      17.14201706       9.46682086
H       29.81311541      15.44147524       9.45182438
H       29.07386125      16.18323559      10.77190815
H       15.73975347      22.35592065       7.98814036
H       15.18493834      23.13529691       9.46446414
H       15.14871342      21.38497006       9.32537967
H       17.63595952      23.07139956       9.35214467
H       17.60763124      21.35189131       9.25654619
H       17.08570525      22.14855848      10.65656366
H       21.81873240      21.93167316       7.90733084
H       21.30968360      22.99727019       9.22133193
H       21.26484515      21.25666793       9.43194247
H       23.73981644      22.92707817       9.12530273
H       23.74374179      21.22005253       9.20962337
H       23.28625150      22.14522785      10.54384265
H       28.04949456      22.23730008       8.25275705
H       27.20901899      23.02924604       9.57862000
H       27.35394566      21.27888860       9.55359712
H       29.66943405      23.18338502       9.81017206
H       29.76465849      21.46964905       9.80005330
H       29.01191765      22.27014152      11.08756689
H       15.14852453      28.79277343       8.01239708
H       15.08132953      29.60053386       9.57361914
H       15.02172720      27.85359015       9.48217686
H       17.41567613      29.46912807       8.64494613
H       17.33234652      27.77128212       8.74751020
H       17.27574701      28.70473472      10.15210383
H       22.11821499      28.13467997       7.98934250
H       21.41814723      29.21656335       9.20770583
H       21.43178305      27.47904166       9.45832181
H       23.84356420      29.28261712       9.44950112
H       23.91881511      27.56756931       9.47272195
H       23.22581010      28.42293197      10.76165466
H       28.08974969      28.34917014       7.86284656
H       27.28421610      29.29934742       9.10430776
H       27.25624894      27.55070753       9.18155543
H       29.71309210      29.25822645       9.48880044
H       29.68837875      27.53527477       9.55813251
H       28.91479517      28.46750166      10.74763327
H       15.62201834       9.30905881      14.44123263
H       14.76579919      10.47997945      15.42398009
H       14.25838929       8.80079327      15.41688090
H       16.88236645       9.82672537      16.48795919
H       16.38577254       8.19161172      16.55037850
H       15.56270737       9.37886743      17.44367333
H       22.11948168       9.73017683      14.56349061
H       21.58567640      10.58683543      15.99378122
H       21.63018611       8.83347995      15.99361273
H       23.98333833      10.71134254      15.96449710
H       24.13387287       9.06684856      15.62867160
H       23.64825027       9.57743727      17.17225938
H       28.03416586       9.70301750      14.44069280
H       27.57618513      10.46263772      15.95247891
H       27.71813364       8.71274032      15.85882430
H       29.96932268      10.70601261      15.67377601
H       30.17376865       9.04879828      15.42326115
H       29.75052401       9.62175349      16.94802705
H        9.46878739      15.69103248      14.44084772
H        8.78715582      16.60369879      15.77237861
H        8.87374273      14.86377543      15.87255771
H       11.24979207      16.73597542      15.84649776
H       11.34870182      15.02512276      15.88135043
H       10.68457227      15.87073463      17.18198605
H       15.52250622      15.91386436      14.46010749
H       14.95281815      16.79123281      15.86791468
H       14.91445437      15.03409085      15.85701488
H       17.40359265      16.73024808      15.86358891
H       17.38998456      15.04586013      15.76267277
H       16.86643946      15.80586449      17.17255071
H       22.03367206      15.80745796      14.44325053
H       21.43987045      16.78570315      15.76787300
H       21.38798804      15.03171164      15.87649059
H       23.88314877      16.71795043      15.84047048