952
Properties=species:S:1:pos:R:3 i=37 E=-19845.9466474843 pbc="F F F"
I       12.39934856      12.66445361       8.85967993
I       19.29817037      13.33944666       8.79063449
I       25.15988786      12.82946805       9.02123118
I       31.13827202      13.39012666       8.85792241
I       13.06800128      19.28188689       8.65099275
I       18.81661199      19.08039407       8.72857552
I       25.23667415      19.07353554       8.89092555
I       30.99790065      19.20683210       8.92840121
I       12.86025722      25.47618698       8.89851567
I       18.68338827      25.44106257       8.81881781
I       25.10507593      25.29571879       8.80678552
I       30.84390717      25.40594705       9.00522503
I       12.21608924      31.88523648       9.02297758
I       19.54082491      31.77207528       8.98441062
I       24.95842053      31.71117106       8.89439642
I       30.88076696      31.42661622       8.87093427
I       12.72570862       9.23990058      12.19512287
I       18.74189770       9.46462081      12.86825402
I       24.89347416       9.42865045      12.66508646
I       31.66159375       9.79609966      12.09102211
I        9.84703619      11.40022929      12.36369036
I       12.68542377      12.80661471      15.36963618
I       11.88426595      15.88510331      11.83505456
I       15.84285043      12.39968457      11.35271941
I       18.64670487      11.68986314      15.23199563
I       18.23513109      15.86972589      12.50737024
I       22.09751740      13.08883848      12.36967458
I       25.39792637      12.82375047      15.54089903
I       25.90123430      15.90531017      12.19247853
I       28.42011320      12.35699417      12.22921708
I       31.22248898      12.87608305      15.53009235
I       30.93336498      16.09744823      12.54107935
I       34.80088568      13.72160976      12.11015107
I        9.13052097      18.97414706      13.56649417
I       12.47181408      18.85016285      15.13292319
I       11.85315409      22.09162264      11.85558386
I       15.94114706      19.80804356      12.09575384
I       18.88872919      19.01051531      15.25351422
I       19.79796436      22.20951127      12.05933019
I       22.22954758      18.18295540      12.05830547
I       25.17593310      18.97898339      15.39893920
I       24.66719817      22.23329581      12.32491793
I       28.54078028      19.75766185      12.41666554
I       31.70298571      19.16326838      15.41679993
I       32.05898936      22.31482533      12.23485881
I       35.12572470      19.14798234      12.32830496
I        9.40584600      25.53083746      12.26142972
I       12.64916241      25.32212640      15.36518588
I       12.86600016      28.60898168      12.23169067
I       15.86391675      24.53115577      12.13276142
I       18.88943304      25.30639917      15.32978471
I       18.05424666      28.61366571      12.08201176
I       22.13992296      26.15607493      12.03293550
I       25.08247180      25.34066812      15.35419089
I       26.07493896      28.61407383      11.96150190
I       28.44185842      24.73769319      12.56336746
I       31.74601297      25.47812156      15.45299834
I       31.22412817      28.67021378      12.26563285
I       34.89339310      25.53618179      12.04368142
I        9.33711549      31.86108766      12.48913800
I       12.56479830      31.67462198      15.57051761
I       12.41547573      35.22261778      12.47573246
I       15.87649121      32.55891650      11.57348666
I       18.86397350      31.46395396      15.44165314
I       19.31141374      35.09874657      12.82535200
I       22.13985502      31.08075987      12.42408479
I       25.38282243      31.49855177      15.45491815
I       24.75535415      35.27360084      12.63599912
I       28.31835494      32.35186853      12.20848095
I       31.41051344      31.42644431      15.41556259
I       31.13831638      35.31141513      12.69695512
I       34.79117777      31.61478463      12.07404100
I       12.95697187       9.51571363      18.96035551
I       18.92212057       9.22385937      19.04480907
I       25.06158710       9.26440944      19.00708793
I       31.33718472       9.66954055      18.77258411
I        9.66488592      13.19125347      18.70589942
I       12.89887180      12.84980622      21.80941670
I       13.17899158      15.91303690      18.69503894
I       15.97893211      12.55374332      18.32724130
I       19.23464078      12.79719384      21.76759875
I       18.78088457      15.76870257      18.66045580
I       22.22524287      12.85270574      18.22383571
I       24.80800754      12.60151819      21.95313353
I       25.69371222      15.78447106      18.84764434
I       28.58585182      12.58134155      19.07578768
I       32.01005740      12.88476701      21.99141076
I       31.93423396      15.77246082      18.70926554
I       36.31041492      14.04719054      18.89861951
I        9.38223241      18.59654210      18.36588759
I       12.79934190      18.99788712      21.77179332
I       12.13388767      22.23855831      18.70812527
I       15.86624312      19.48383924      18.30053559
I       19.06893178      18.99816219      21.73770869
I       19.57704174      22.19324530      18.62220960
I       22.30320156      18.55916984      18.48260237
I       25.42160496      18.98321444      21.81796489
I       25.18823642      22.19720163      18.81419401
I       28.80098169      19.14492009      18.47763588
I       31.90413266      19.07447074      21.81178713
I       32.15762943      22.19436610      18.58866215
I       35.56053525      18.91508836      18.47752545
I        9.41754698      25.89468275      18.40808626
I       12.70897168      25.28326595      21.81229199
I       12.97971862      28.66512690      18.81273976
I       15.91479828      24.97129629      18.50372632
I       19.02248209      25.25001634      21.78537715
I       18.75867156      28.62032551      18.83753888
I       22.32701504      25.90092137      18.57142016
I       25.46173476      25.35372218      21.79501310
I       25.93947273      28.64438028      18.61648069
I       28.76113501      25.06302190      18.42644780
I       31.74310576      25.15025606      21.79515633
I       31.54793084      28.60616357      18.99676597
I       35.58636586      25.22749724      18.43196122
I        9.45094935      31.64519158      18.82943819
I       13.21419935      31.45121204      21.89448285
I       12.62545584      35.55024909      19.08078582
I       15.89557306      32.09829198      18.51512003
I       18.94178691      31.50071146      21.90336139
I       18.75704523      35.32721458      18.82292222
I       22.35845470      31.71429527      18.70583927
I       25.41860336      31.42562386      21.87269186
I       25.22848334      35.26115428      18.89755546
I       28.91619263      32.52739403      18.72746741
I       32.39807634      32.06792754      21.74395671
I       30.91103154      36.70156412      20.37339791
I       35.70752786      30.56511946      18.78897998
I       13.56925185       9.30788796      24.69802425
I       18.91243656       9.31033482      25.27557281
I       25.85672313       9.33728044      25.09623643
I       30.98111118       9.48951359      25.31110394
I        9.83158872      13.16870246      24.88341308
I       13.00259587      12.50970163      28.22946762
I       12.69699411      15.81085149      25.33799247
I       16.22413048      13.15500756      24.76402712
I       18.93687430      12.76982104      28.25804680
I       19.85812175      15.79949179      24.96961382
I       22.54143645      12.09662725      25.52015778
I       26.17881819      12.92174280      28.19063703
I       25.26498233      15.83085394      25.19035063
I       28.76320570      13.00749645      24.31933515
I       31.49310317      13.02998240      28.17117960
I       32.19381456      15.85084935      25.15533135
I       35.91071566      13.27849182      24.71132334
I        9.91458260      19.30442674      25.22595459
I       13.11618266      18.98634714      28.30736076
I       13.34636059      22.18005532      25.11787213
I       16.26192791      18.51605411      24.85006961
I       19.29308483      18.99824275      28.22536678
I       18.83173991      22.18120681      25.19440966
I       22.58924993      19.59785259      24.93249726
I       25.62741058      19.07581824      28.24815215
I       26.30109763      22.17752924      24.92233711
I       28.98813468      18.70099926      24.88143676
I       32.13399293      19.20302449      28.26762646
I       32.14423407      22.21314555      25.02971702
I       35.79060584      19.04135496      24.94355749
I        9.44771009      24.90855663      24.83324839
I       12.66249749      25.24524880      28.26658109
I       12.50043188      28.59099582      25.37836015
I       16.02341048      25.79530096      24.89814725
I       19.32917431      25.34624599      28.24726001
I       19.48841918      28.62665787      25.07411944
I       22.52536514      24.91931895      24.84922463
I       25.60102649      25.22891249      28.25681212
I       25.38385254      28.55016143      25.21317354
I       29.03162812      25.74797191      24.94036368
I       32.02153315      25.14160893      28.23841424
I       32.45173989      28.67539593      24.64258422
I       35.70754920      25.17110807      24.76480959
I        9.58432898      31.79866290      24.25982761
I       11.97309596      32.03941590      28.13108670
I       12.82834779      35.16985417      24.68096016
I       15.95038426      31.80792442      25.54263371
I       19.37900998      31.47229505      28.29728690
I       18.44638565      35.67107082      25.14494928
I       22.40732099      32.09452871      25.04059491
I       25.87135606      31.37723885      28.31090972
I       25.30804233      35.15845614      25.13284252
I       28.96122803      31.65236478      24.74085266
I       31.74803044      31.21836624      28.06523243
I       30.52927590      36.45396825      25.25266822
I       36.06726427      31.01133408      25.28706638
I       13.18719513       9.72486853      31.96844247
I       19.38464471       9.87602743      31.69772555
I       25.90142943       9.63228386      31.00016127
I       31.33946930       9.60748813      31.55595907
I        9.90142690      13.12044354      31.09543071
I       12.98136620      13.14743800      34.88937591
I       12.75326443      16.18596900      31.84824191
I       16.25289224      13.33272538      31.34395727
I       20.23971756      13.33956545      34.77020807
I       19.46306316      16.16790029      31.53704400
I       22.60088834      13.04612738      30.77336008
I       25.29823804      12.69012480      34.78849035
I       25.73081175      15.99541817      31.49796463
I       28.88482145      13.21278514      31.28084748
I       31.14033828      13.21091418      34.64920259
I       32.49414982      15.90007233      31.21707331
I       35.44887312      12.38897942      30.03471174
I        9.80649578      19.33851818      31.01809986
I       13.21276991      19.49952828      34.83350128
I       12.34674919      22.46437689      31.77740461
I       16.35648536      19.35930560      31.39240471
I       19.73459535      19.28863984      34.99290460
I       19.67050738      22.31487649      31.42779296
I       22.79063328      19.30294906      31.30848155
I       26.06122364      19.17035496      34.94690791
I       26.33327152      22.23812360      31.31519981
I       29.21672920      18.92373667      31.23905014
I       31.92572637      19.08140814      34.89918570
I       32.62039104      22.24285823      31.85187836
I       35.85560227      18.97279394      31.28022023
I        9.96870440      26.04206167      31.58221525
I       13.48171414      25.45291094      34.74711514
I       13.73336944      28.61363872      31.04510891
I       16.33468850      25.00678463      31.19095533
I       19.51461953      25.25221115      34.97986405
I       19.28950378      28.57158240      31.69209022
I       22.74389061      25.39129783      31.39134238
I       26.13207569      25.17568277      34.95742594
I       25.65115406      28.51279358      31.62327193
I       29.25437388      25.72654563      31.47083083
I       32.51396798      25.77589166      34.78610579
I       32.98837368      28.57091143      31.11339275
I       35.85759917      25.24483682      31.21972823
I        9.92157492      31.27055054      31.10322944
I       13.24587367      31.23008858      34.61788310
I       12.98729206      35.01669488      31.65220025
I       16.34824225      31.91877590      31.10472120
I       20.16329013      31.70913007      34.83770906
I       19.75849697      35.00444386      31.12093599
I       22.72118410      31.58265023      30.92998080
I       25.25676636      31.38770716      34.87374435
I       25.64038348      35.22799281      31.16479200
I       29.11017677      31.00851739      31.04359829
I       30.89824411      31.46604994      34.18465207
I       30.62540526      36.13660847      30.70443921
I       35.72372894      32.44232088      29.75861825
Pb      12.68263000      12.85076023      11.96906651
Pb      18.94621115      12.92563513      11.84647691
Pb      25.28520489      12.51685671      12.18771461
Pb      31.65244172      12.96146119      11.90497183
Pb      12.97967554      19.24131069      11.75183778
Pb      19.30891026      19.14350271      12.00705180
Pb      25.51739059      19.04791600      12.09740378
Pb      31.91727328      19.14822535      12.21498687
Pb      12.62420357      25.53431478      12.03696788
Pb      18.88755801      25.56938030      11.98466214
Pb      25.31957934      25.45233774      12.07059405
Pb      31.59025253      25.47149658      12.14893492
Pb      12.41043393      32.12020806      12.17576953
Pb      18.96064982      32.00231476      12.08941296
Pb      25.13879526      31.98558312      12.05904117
Pb      31.49217379      31.94370331      12.01877644
Pb      12.77769523      12.57328429      18.63853950
Pb      19.18242763      12.36233949      18.66135878
Pb      25.54444980      12.42045510      18.86417683
Pb      32.95852368      12.28245084      18.03740472
Pb      12.66386174      18.99942707      18.56673336
Pb      19.22443902      18.91648889      18.57668257
Pb      25.74108812      18.95015685      18.64168084
Pb      32.48700957      18.81551002      18.65681068
Pb      12.65724581      25.48464801      18.58958137
Pb      19.23954554      25.35195052      18.57866711
Pb      25.71545288      25.36597197      18.60630280
Pb      32.50651924      25.27163342      18.60587247
Pb      12.58974628      32.18171949      18.71018430
Pb      19.15461507      31.81308105      18.67134496
Pb      25.81740690      31.89373814      18.65347378
Pb      32.72926940      31.44019369      18.63335550
Pb      13.17668262      12.36562049      25.06430586
Pb      19.44136178      12.40369224      25.22354682
Pb      25.84943646      12.47588360      25.08588274
Pb      32.80182808      12.23896569      25.38027947
Pb      13.01828580      18.99727767      25.17326247
Pb      19.51516594      18.90776605      25.11692118
Pb      25.91842597      18.92654994      25.11712808
Pb      32.68782488      18.90512405      25.10867537
Pb      12.86838281      25.40975526      25.11462747
Pb      19.44489562      25.26048752      25.11418525
Pb      25.97924868      25.28104292      25.12485921
Pb      32.59151165      25.32084564      25.04165802
Pb      12.78026062      32.03810201      24.98341541
Pb      19.30531716      31.72826138      25.17209327
Pb      25.89865533      31.66830318      25.12954678
Pb      33.06557154      31.79197791      25.33795839
Pb      13.01743666      12.90857926      31.74596624
Pb      19.62296253      12.99254576      31.75953643
Pb      25.76301776      12.73150427      31.62299755
Pb      32.77499042      12.45214642      31.71736201
Pb      13.17124383      19.31427786      31.69832563
Pb      19.68513342      19.23375461      31.94060297
Pb      26.06603885      19.06747595      31.86618996
Pb      32.49316308      18.94086856      31.71438986
Pb      13.18095329      25.61630710      31.66785094
Pb      19.61546882      25.43809433      31.88648046
Pb      26.14651447      25.29137834      31.86600902
Pb      32.70450584      25.40274291      31.64325538
Pb      13.18238189      31.90904716      31.60082299
Pb      19.63430214      31.87120606      31.76679059
Pb      25.84185391      31.58339432      31.79339334
Pb      33.17349651      31.77063951      31.41819510
C       15.53407637      15.85023939       8.85177097
C       22.11903080      16.07872785       8.59977552
C       27.87837424      15.99043169       8.82070929
C       15.86933669      22.28771774       8.61627789
C       21.84578934      21.99028279       8.73158643
C       27.92146682      22.17404497       9.06850541
C       15.55446062      28.74471856       8.72336110
C       22.07396817      28.30680994       8.73109199
C       27.87247483      28.41769733       8.45623280
C       15.24252777       9.37521826      15.10796018
C       22.11482409       9.64373157      15.70340050
C       28.18935779       9.53563264      15.28656009
C        9.43720570      15.52374277      15.30219825
C       15.40688216      15.97408272      15.37796750
C       22.02169781      15.83274210      15.28112867
C       28.13062401      15.97984963      15.37179518
C       34.61319748      16.30093120      15.26860138
C        9.54270900      22.20683564      15.36539432
C       15.72414515      22.16742177      15.34793115
C       21.97799936      22.04757278      15.28445616
C       28.17960285      22.06762616      15.49665598
C       34.56944217      22.41172730      15.30100814
C        9.56193266      28.40681932      15.26807968
C       15.59797094      28.40058507      15.39792573
C       21.97909669      28.42028932      15.27164404
C       28.18677833      28.28491147      15.25855566
C       34.67081812      28.66649841      15.13830866
C       15.69904763      34.65234515      15.38388390
C       21.99427160      34.41388075      15.71416392
C       27.86913480      34.74387147      15.37115362
C       15.82932521       9.79326939      21.67799695
C       21.98267456       9.54015182      21.80982074
C       28.49911723       9.52811686      21.76714563
C        9.74809292      16.00072054      21.69529649
C       15.90362929      15.85820192      21.57268880
C       22.11129288      15.87763612      21.57327770
C       28.59336182      15.99105267      21.57033958
C       34.66154461      16.29316266      21.83583796
C        9.70292976      21.96679900      21.79153099
C       15.84361201      22.05307478      21.58590523
C       22.23820691      22.09345605      21.57514339
C       28.49886078      22.09280116      21.54352249
C       34.93600266      21.96106368      21.43554929
C        9.72706235      28.30041585      21.79036663
C       15.81159384      28.32390752      21.54740975
C       22.18583241      28.50189245      21.63398688
C       28.38338888      28.31154489      21.57369292
C       34.68878818      27.63267764      21.57066474
C       15.76753084      34.58994688      21.90312866
C       22.11701486      34.62859489      21.89948075
C       28.03577580      34.39636069      22.01584071
C       15.78850760       9.56426641      28.31277247
C       21.89987798       9.87795416      28.53934167
C       28.29760632       9.52290715      28.09923962
C        9.73792649      15.86640463      28.11228145
C       15.98922710      15.93980139      27.91566727
C       22.34328781      15.97076215      27.88603607
C       28.60507602      16.11439568      27.87680692
C       34.97972433      15.99538880      27.72413677
C        9.71036465      22.21017058      28.10095935
C       16.06044039      22.12234502      27.99586372
C       22.34832732      22.17515742      27.99327757
C       28.76647894      22.12012016      27.97534048
C       34.97513439      22.08186500      27.84127589
C        9.63420179      28.29293163      28.08733100
C       16.10871176      28.41970974      27.88201406
C       22.33398674      28.33990366      27.90497745
C       28.63587317      28.20726145      27.90253166
C       34.90360689      27.96874795      27.75387060
C       16.01624326      34.86083355      28.44461672
C       22.26028369      34.63831367      28.20994060
C       28.34054501      34.29537751      27.99268247
C       16.35128618      15.87082386      34.62069809
C       22.81916957      16.33144580      34.19806065
C       28.42220439      15.98510064      34.29665252
C       16.13554756      22.23658037      34.20105152
C       22.84553319      22.20607135      34.22847507
C       29.05018827      22.17144835      34.04784914
C       16.28693894      28.53391374      34.38825558
C       22.52850657      28.24651131      34.21636161
C       28.62337821      28.28672499      34.42734103
N       17.03217199      15.99812730       9.25848407
N       23.45797152      15.98251596       9.40468531
N       29.25742516      16.20729659       9.51332677
N       17.21928361      22.19879196       9.40375052
N       23.34251069      22.08229772       9.17735355
N       29.27495433      22.19452621       9.84403521
N       17.12240770      28.73115330       8.71712174
N       23.44219535      28.40263454       9.49595679
N       29.04090164      28.41383605       9.49955453
N       16.15128462       9.08549489      16.36809506
N       23.65713966       9.77079140      15.91381904
N       29.69902132       9.64657646      15.69465431
N       10.86229589      15.74639563      15.91617426
N       16.90819333      15.98343960      15.81465038
N       23.45070461      15.86946764      15.92575445
N       29.58304985      16.10244710      15.94801536
N       35.80780935      15.40014541      15.69035346
N       11.09147210      22.08917775      15.48376219
N       17.21538983      22.09288967      15.81941103
N       23.44991374      22.08569882      15.81271050
N       29.68686746      22.09113486      15.93060581
N       35.70474404      21.98067209      16.28011406
N       10.98868148      28.41889436      15.90808358
N       17.10898242      28.40757777      15.80573845
N       23.44554754      28.41818929      15.82641012
N       29.59846510      28.29655636      15.93132214
N       36.01690935      28.29286101      15.82063407
N       17.22434651      34.50801090      15.69652904
N       23.55492628      34.39832491      15.81585183
N       29.36124229      34.28269411      15.48130228
N       17.32989205       9.87200888      22.11354408
N       23.33975445       8.99208005      22.34118734
N       29.99838519       9.88967776      22.01983094
N       11.20745364      15.87395245      22.22188999
N       17.32569197      15.86536857      22.23339456
N       23.54352123      15.87911625      22.20704802
N       30.01371418      15.97656538      22.23168519
N       36.01052340      15.53668187      22.00444989
N       11.19578498      22.07779473      22.24069931
N       17.31810195      22.08579060      22.10817642
N       23.66262840      22.09107640      22.23596191
N       29.90485635      22.07704511      22.23257388
N       35.69226602      21.96638100      22.79104496
N       11.21525352      28.41110398      22.22645684
N       17.21854092      28.29239106      22.23460731
N       23.63875980      28.40418249      22.21323269
N       29.79840214      28.18607691      22.23787249
N       35.59818882      28.63321518      22.34124090
N       17.32490888      34.50765955      22.01282598
N       23.66069454      34.39677210      22.00280681
N       29.57060444      34.18563857      22.23037500
N       17.32263827       9.63554242      28.63604957
N       23.33775392       9.31729740      28.32327321
N       29.70158723      10.10777768      28.42161377
N       11.20962501      15.76023715      28.64401523
N       17.42558822      15.97475029      28.54026921
N       23.76984569      15.98260205      28.53778281
N       30.01617375      16.20207682      28.54408809
N       36.21853342      15.84929914      28.65914839
N       11.20440544      22.07995410      28.52970818
N       17.52362506      22.09549418      28.55534375
N       23.76665250      22.08905053      28.65899047
N       30.11919360      22.08349979      28.76809539
N       36.23239480      21.98200695      28.76213142
N       11.08416549      28.41852453      28.66324613
N       17.53151252      28.41025684      28.53920560
N       23.76768035      28.30112829      28.54114422
N       30.00555648      28.07780531      28.65320021
N       36.00505734      28.40323846      28.76578904
N       17.53427989      34.50885823      28.30780444
N       23.78167960      34.28199663      28.20452233
N       29.89926945      34.28770790      27.97662564
N       17.73937719      16.09590009      35.28730070
N       23.65048489      16.20328674      35.50870054
N       29.58010119      16.31274937      35.27846489
N       17.43710678      22.19393461      35.04177104
N       23.99099444      22.17986277      35.27300550
N       30.00804927      22.19911507      35.27218043
N       17.63723296      28.40252887      35.15016797
N       23.76075211      28.07076526      35.14995538
N       29.99669804      28.29548980      35.18621235
H       15.50149949      15.82267325       7.79033166
H       15.00446533      16.68983256       9.23218863
H       15.17063944      14.93893963       9.26364862
H       17.44345578      16.88947524       8.88588919
H       17.60036803      15.19223305       8.89709246
H       17.15271003      16.01201490      10.30069335
H       22.36219308      16.15741237       7.56808601
H       21.60419531      16.95123907       8.92070077
H       21.54943561      15.20524046       8.79644999
H       24.07291731      16.79680573       9.14923951
H       23.95835852      15.07756163       9.21746872
H       23.27046157      16.04382624      10.42558743
H       28.04800559      16.02099248       7.77244545
H       27.23212873      16.77878544       9.12072578
H       27.49900512      15.04656870       9.12663178
H       29.67811229      17.13720381       9.24747382
H       29.91873175      15.43766653       9.23464620
H       29.17563711      16.17941072      10.55157283
H       16.10954826      22.40172985       7.58320606
H       15.33894828      23.12872296       8.99419107
H       15.33591118      21.38373980       8.78667026
H       17.78642202      23.06314568       9.22410566
H       17.76089418      21.34690323       9.11545427
H       17.03298290      22.13877125      10.42421826
H       21.84302090      21.86964175       7.67160029
H       21.36626115      22.89126319       9.02627784
H       21.41382470      21.14881197       9.21479399
H       23.80124657      22.93180654       8.78202158
H       23.86518692      21.22480059       8.87773498
H       23.43565054      22.14403443      10.22310802
H       28.16423172      22.17186593       8.03031247
H       27.37012108      23.03930736       9.34354742
H       27.40926651      21.28411313       9.34344535
H       29.80325966      23.07493531       9.63234174
H       29.85532497      21.36025375       9.56522213
H       29.10918377      22.14002862      10.86943663
H       15.22282057      28.62097669       7.71726921
H       15.23901550      29.67580851       9.13041573
H       15.23321617      27.93545598       9.33597403
H       17.50710367      29.48826506       8.11677144
H       17.47334892      27.80958522       8.36454886
H       17.47996084      28.84283211       9.70236051
H       22.28837364      28.13927111       7.69788906
H       21.54628972      29.21619620       8.89301675
H       21.54348093      27.47809419       9.13437661
H       23.94487356      29.28817886       9.25628611
H       24.03436729      27.57161474       9.24190392
H       23.27828758      28.37224572      10.52219379
H       28.30087297      28.33767486       7.48599239
H       27.33594706      29.32968900       8.56541557
H       27.25132453      27.58108268       8.66723165
H       29.65443854      29.25462017       9.35464894
H       29.61930412      27.54040545       9.38675496
H       28.65647889      28.45189205      10.46473317
H       15.83758171       9.27190720      14.23416088
H       14.87839084      10.37114130      15.20393158
H       14.44243712       8.67295836      15.10901382
H       16.96526256       9.73681429      16.38419615
H       16.49981425       8.09617379      16.37986608
H       15.58251572       9.24827858      17.22312919
H       21.91356346       9.83122653      14.67623296
H       21.63917286      10.37044519      16.31667595
H       21.82509845       8.66155542      15.98467111
H       23.96680695      10.76554633      15.77780363
H       24.16223397       9.21234929      15.19274458
H       23.95400506       9.47783549      16.88333738
H       28.13069345       9.59560817      14.22373273
H       27.67852705      10.35354008      15.73771759
H       27.82152266       8.60149752      15.63816012
H       30.07068766      10.59742175      15.44966336
H       30.27674721       8.93876808      15.20190564
H       29.85890521       9.51639441      16.72562775
H        9.53321372      15.54577737      14.24449363
H        8.80391473      16.30120941      15.65005052
H        9.07850098      14.58291642      15.64428267
H       11.30052242      16.62499344      15.55246637
H       11.48128697      14.92657777      15.67584111
H       10.81254324      15.81317466      16.95197473
H       15.37798026      16.06955275      14.31981511
H       14.93097366      16.79636313      15.85486364
H       14.98014545      15.04969029      15.68738263
H       17.35533127      16.90797415      15.59407033
H       17.43740102      15.25576383      15.30052779
H       17.03594757      15.81470304      16.84347012
H       22.14045187      15.80260020      14.22534232
H       21.50671890      16.71455371      15.57719121
H       21.53248824      14.95865058      15.63833351
H       23.96839116      16.73050517      15.62270991