 DBCSR| CPU Multiplication driver                                           XSMM
 DBCSR| Multrec recursion limit                                              512
 DBCSR| Multiplication stack size                                           1000
 DBCSR| Maximum elements for images                                    UNLIMITED
 DBCSR| Multiplicative factor virtual images                                   1
 DBCSR| Use multiplication densification                                       T
 DBCSR| Multiplication size stacks                                             3
 DBCSR| Use memory pool for CPU allocation                                     F
 DBCSR| Number of 3D layers                                               SINGLE
 DBCSR| Use MPI memory allocation                                              F
 DBCSR| Use RMA algorithm                                                      F
 DBCSR| Use Communication thread                                               T
 DBCSR| Communication thread load                                             87
 DBCSR| MPI: My node id                                                        0
 DBCSR| MPI: Number of nodes                                                  24
 DBCSR| OMP: Current number of threads                                         1
 DBCSR| OMP: Max number of threads                                             1
 DBCSR| Split modifier for TAS multiplication algorithm                  1.0E+00


  **** **** ******  **  PROGRAM STARTED AT               2023-12-06 00:10:40.589
 ***** ** ***  *** **   PROGRAM STARTED ON           milan14.int.triton.aalto.fi
 **    ****   ******    PROGRAM STARTED BY                               huangj4
 ***** **    ** ** **   PROGRAM PROCESS ID                                 46520
  **** **  *******  **  PROGRAM STARTED IN /scratch/phys/sin/Jie/Github/cp2kTest
                                           /PDOSNaked234/Cluster_444

 CP2K| version string:                                          CP2K version 8.2
 CP2K| source code revision number:                                  git:310b7ab
 CP2K| cp2kflags: omp libint fftw3 libxc parallel mpi3 scalapack xsmm           
 CP2K| is freely available from                            https://www.cp2k.org/
 CP2K| Program compiled at                          Thu May 12 10:08:29 UTC 2022
 CP2K| Program compiled on                                          80d7174ae3e8
 CP2K| Program compiled for                            linux-centos7-haswell-gcc
 CP2K| Data directory path    /share/apps/spack/envs/fgci-centos7-haswell/softwa
 CP2K| Input file name                                                 input.inp

 GLOBAL| Force Environment number                                              1
 GLOBAL| Basis set file name                                        BASIS_MOLOPT
 GLOBAL| Potential file name                                      GTH_POTENTIALS
 GLOBAL| MM Potential file name                                     MM_POTENTIAL
 GLOBAL| Coordinate file name                                MAPbI3-pos-last.xyz
 GLOBAL| Method name                                                        CP2K
 GLOBAL| Project name                                                 MAPbI3_DOS
 GLOBAL| Run type                                                         ENERGY
 GLOBAL| FFT library                                                       FFTW3
 GLOBAL| Diagonalization library                                       ScaLAPACK
 GLOBAL| Orthonormality check for eigenvectors                          DISABLED
 GLOBAL| Matrix multiplication library                                    SCALAP
 GLOBAL| All-to-all communication in single precision                          F
 GLOBAL| FFTs using library dependent lengths                                  F
 GLOBAL| Grid backend                                                       AUTO
 GLOBAL| Global print level                                               MEDIUM
 GLOBAL| MPI I/O enabled                                                       T
 GLOBAL| Total number of message passing processes                            24
 GLOBAL| Number of threads for this process                                    1
 GLOBAL| This output is from process                                           0
 GLOBAL| CPU model name                          AMD EPYC 7713 64-Core Processor
 GLOBAL| CPUID                                                              1002

 MEMORY| system memory details [Kb]
 MEMORY|                        rank 0           min           max       average
 MEMORY| MemTotal            528041892     528041892     528041892     528041892
 MEMORY| MemFree             404522248     404522248     404618832     404614350
 MEMORY| Buffers               1107872       1107872       1107872       1107872
 MEMORY| Cached               25939576      25939576      25939576      25939576
 MEMORY| Slab                  5365276       5365276       5365276       5365276
 MEMORY| SReclaimable          1978812       1978812       1978812       1978812
 MEMORY| MemLikelyFree       433548508     433548508     433645092     433640610


 *** Fundamental physical constants (SI units) ***

 *** Literature: B. J. Mohr and B. N. Taylor,
 ***             CODATA recommended values of the fundamental physical
 ***             constants: 2006, Web Version 5.1
 ***             http://physics.nist.gov/constants

 Speed of light in vacuum [m/s]                             2.99792458000000E+08
 Magnetic constant or permeability of vacuum [N/A**2]       1.25663706143592E-06
 Electric constant or permittivity of vacuum [F/m]          8.85418781762039E-12
 Planck constant (h) [J*s]                                  6.62606896000000E-34
 Planck constant (h-bar) [J*s]                              1.05457162825177E-34
 Elementary charge [C]                                      1.60217648700000E-19
 Electron mass [kg]                                         9.10938215000000E-31
 Electron g factor [ ]                                     -2.00231930436220E+00
 Proton mass [kg]                                           1.67262163700000E-27
 Fine-structure constant                                    7.29735253760000E-03
 Rydberg constant [1/m]                                     1.09737315685270E+07
 Avogadro constant [1/mol]                                  6.02214179000000E+23
 Boltzmann constant [J/K]                                   1.38065040000000E-23
 Atomic mass unit [kg]                                      1.66053878200000E-27
 Bohr radius [m]                                            5.29177208590000E-11

 *** Conversion factors ***

 [u] -> [a.u.]                                              1.82288848426455E+03
 [Angstrom] -> [Bohr] = [a.u.]                              1.88972613288564E+00
 [a.u.] = [Bohr] -> [Angstrom]                              5.29177208590000E-01
 [a.u.] -> [s]                                              2.41888432650478E-17
 [a.u.] -> [fs]                                             2.41888432650478E-02
 [a.u.] -> [J]                                              4.35974393937059E-18
 [a.u.] -> [N]                                              8.23872205491840E-08
 [a.u.] -> [K]                                              3.15774647902944E+05
 [a.u.] -> [kJ/mol]                                         2.62549961709828E+03
 [a.u.] -> [kcal/mol]                                       6.27509468713739E+02
 [a.u.] -> [Pa]                                             2.94210107994716E+13
 [a.u.] -> [bar]                                            2.94210107994716E+08
 [a.u.] -> [atm]                                            2.90362800883016E+08
 [a.u.] -> [eV]                                             2.72113838565563E+01
 [a.u.] -> [Hz]                                             6.57968392072181E+15
 [a.u.] -> [1/cm] (wave numbers)                            2.19474631370540E+05
 [a.u./Bohr**2] -> [1/cm]                                   5.14048714338585E+03
 

 CELL_TOP| Volume [angstrom^3]:                                     90738.965184
 CELL_TOP| Vector a [angstrom    45.640     0.000     0.000   |a| =    45.640000
 CELL_TOP| Vector b [angstrom     0.000    44.940     0.000   |b| =    44.940000
 CELL_TOP| Vector c [angstrom     0.000     0.000    44.240   |c| =    44.240000
 CELL_TOP| Angle (b,c), alpha [degree]:                                90.000000
 CELL_TOP| Angle (a,c), beta  [degree]:                                90.000000
 CELL_TOP| Angle (a,b), gamma [degree]:                                90.000000
 CELL_TOP| Numerically orthorhombic:                                         YES

 GENERATE|  Preliminary Number of Bonds generated:                             0
 GENERATE|  Achieved consistency in connectivity generation.

 CELL| Volume [angstrom^3]:                                         90738.965184
 CELL| Vector a [angstrom]:      45.640     0.000     0.000   |a| =    45.640000
 CELL| Vector b [angstrom]:       0.000    44.940     0.000   |b| =    44.940000
 CELL| Vector c [angstrom]:       0.000     0.000    44.240   |c| =    44.240000
 CELL| Angle (b,c), alpha [degree]:                                    90.000000
 CELL| Angle (a,c), beta  [degree]:                                    90.000000
 CELL| Angle (a,b), gamma [degree]:                                    90.000000
 CELL| Numerically orthorhombic:                                             YES

 CELL_REF| Volume [angstrom^3]:                                     90738.965184
 CELL_REF| Vector a [angstrom    45.640     0.000     0.000   |a| =    45.640000
 CELL_REF| Vector b [angstrom     0.000    44.940     0.000   |b| =    44.940000
 CELL_REF| Vector c [angstrom     0.000     0.000    44.240   |c| =    44.240000
 CELL_REF| Angle (b,c), alpha [degree]:                                90.000000
 CELL_REF| Angle (a,c), beta  [degree]:                                90.000000
 CELL_REF| Angle (a,b), gamma [degree]:                                90.000000
 CELL_REF| Numerically orthorhombic:                                         YES

 *******************************************************************************
 *******************************************************************************
 **                                                                           **
 **     #####                         ##              ##                      **
 **    ##   ##            ##          ##              ##                      **
 **   ##     ##                       ##            ######                    **
 **   ##     ##  ##   ##  ##   #####  ##  ##   ####   ##    #####    #####    **
 **   ##     ##  ##   ##  ##  ##      ## ##   ##      ##   ##   ##  ##   ##   **
 **   ##  ## ##  ##   ##  ##  ##      ####     ###    ##   ######   ######    **
 **    ##  ###   ##   ##  ##  ##      ## ##      ##   ##   ##       ##        **
 **     #######   #####   ##   #####  ##  ##  ####    ##    #####   ##        **
 **           ##                                                    ##        **
 **                                                                           **
 **                                                ... make the atoms dance   **
 **                                                                           **
 **            Copyright (C) by CP2K developers group (2000-2021)             **
 **                      J. Chem. Phys. 152, 194103 (2020)                    **
 **                                                                           **
 *******************************************************************************

 DFT| Spin unrestricted (spin-polarized) Kohn-Sham calculation               UKS
 DFT| Multiplicity                                                             2
 DFT| Number of spin states                                                    2
 DFT| Charge                                                                   0
 DFT| Self-interaction correction (SIC)                                       NO
 DFT| Cutoffs: density                                              1.000000E-10
 DFT|          gradient                                             1.000000E-10
 DFT|          tau                                                  1.000000E-10
 DFT|          cutoff_smoothing_range                               0.000000E+00
 DFT| XC density smoothing                                                  NONE
 DFT| XC derivatives                                                          PW
 FUNCTIONAL| ROUTINE=NEW
 FUNCTIONAL| PBE:
 FUNCTIONAL| J.P.Perdew, K.Burke, M.Ernzerhof, Phys. Rev. Letter, vol. 77, n 18,
 FUNCTIONAL|  pp. 3865-3868, (1996){spin polarized}                             
 vdW POTENTIAL|                                                   Pair Potential
 vdW POTENTIAL|          DFT-D3 (Version 3.1)
 vdW POTENTIAL|          Potential Form: S. Grimme et al, JCP 132: 154104 (2010)
 vdW POTENTIAL|          Zero Damping
 vdW POTENTIAL|          Cutoff Radius [Bohr]:                             20.00
 vdW POTENTIAL|          s6 Scaling Factor:                               1.0000
 vdW POTENTIAL|          sr6 Scaling Factor:                              1.2170
 vdW POTENTIAL|          s8 Scaling Factor:                               0.7220
 vdW POTENTIAL|          Cutoff for CN calculation:                   0.1000E-05

 QS| Method:                                                                 GPW
 QS| Density plane wave grid type                        NON-SPHERICAL FULLSPACE
 QS| Number of grid levels:                                                    4
 QS| Density cutoff [a.u.]:                                                110.0
 QS| Multi grid cutoff [a.u.]: 1) grid level                               110.0
 QS|                           2) grid level                                36.7
 QS|                           3) grid level                                12.2
 QS|                           4) grid level                                 4.1
 QS| Grid level progression factor:                                          3.0
 QS| Relative density cutoff [a.u.]:                                        30.0
 QS| Interaction thresholds: eps_pgf_orb:                                1.0E-05
 QS|                         eps_filter_matrix:                          0.0E+00
 QS|                         eps_core_charge:                            1.0E-12
 QS|                         eps_rho_gspace:                             1.0E-10
 QS|                         eps_rho_rspace:                             1.0E-10
 QS|                         eps_gvg_rspace:                             1.0E-05
 QS|                         eps_ppl:                                    1.0E-02
 QS|                         eps_ppnl:                                   1.0E-07


 ATOMIC KIND INFORMATION

  1. Atomic kind: I                                     Number of atoms:     240

     Orbital Basis Set                                         SZV-MOLOPT-SR-GTH

       Number of orbital shell sets:                                           1
       Number of orbital shells:                                               2
       Number of primitive Cartesian functions:                                5
       Number of Cartesian basis functions:                                    4
       Number of spherical basis functions:                                    4
       Norm type:                                                              2

       Normalised Cartesian orbitals:

                        Set   Shell   Orbital            Exponent    Coefficient

                          1       1    2s                0.966173      -0.369082
                                                         0.828886      -0.032154
                                                         0.367159       0.255166
                                                         0.201369       0.106471
                                                         0.083015       0.018311

                          1       2    3px               0.966173      -1.009678
                                                         0.828886       0.783764
                                                         0.367159       0.107863
                                                         0.201369       0.101262
                                                         0.083015       0.016495
                          1       2    3py               0.966173      -1.009678
                                                         0.828886       0.783764
                                                         0.367159       0.107863
                                                         0.201369       0.101262
                                                         0.083015       0.016495
                          1       2    3pz               0.966173      -1.009678
                                                         0.828886       0.783764
                                                         0.367159       0.107863
                                                         0.201369       0.101262
                                                         0.083015       0.016495

       Atomic covalent radius [Angstrom]:                                  1.330

       Atomic van der Waals radius [Angstrom]:                             1.980

     GTH Potential information for                                       GTH-PBE

       Description:                       Goedecker-Teter-Hutter pseudopotential
                                           Goedecker et al., PRB 54, 1703 (1996)
                                          Hartwigsen et al., PRB 58, 3641 (1998)
                                                      Krack, TCA 114, 145 (2005)

       Gaussian exponent of the core charge distribution:               1.594388
       Electronic configuration (s p d ...):                               2   5

       Parameters of the local part of the GTH pseudopotential:

                          rloc        C1          C2          C3          C4
                        0.560000    8.207102

       Parameters of the non-local part of the GTH pseudopotential:

                   l      r(l)      h(i,j,l)

                   0    0.531928    2.308146    1.003909   -0.959156
                                    1.003909   -2.856109    2.476530
                                   -0.959156    2.476530   -1.965685
                   1    0.589182    0.906482    0.425071
                                    0.425071   -0.502950
                   2    0.739721    0.479195

  2. Atomic kind: Pb                                    Number of atoms:      64

     Orbital Basis Set                                         SZV-MOLOPT-SR-GTH

       Number of orbital shell sets:                                           1
       Number of orbital shells:                                               2
       Number of primitive Cartesian functions:                                5
       Number of Cartesian basis functions:                                    4
       Number of spherical basis functions:                                    4
       Norm type:                                                              2

       Normalised Cartesian orbitals:

                        Set   Shell   Orbital            Exponent    Coefficient

                          1       1    2s                1.933598      -0.156134
                                                         0.981425       0.419979
                                                         0.222223      -0.230246
                                                         0.077759      -0.022545
                                                         0.073968      -0.008640

                          1       2    3px               1.933598       0.064608
                                                         0.981425      -0.243154
                                                         0.222223       0.142297
                                                         0.077759       0.018505
                                                         0.073968       0.009435
                          1       2    3py               1.933598       0.064608
                                                         0.981425      -0.243154
                                                         0.222223       0.142297
                                                         0.077759       0.018505
                                                         0.073968       0.009435
                          1       2    3pz               1.933598       0.064608
                                                         0.981425      -0.243154
                                                         0.222223       0.142297
                                                         0.077759       0.018505
                                                         0.073968       0.009435

       Atomic covalent radius [Angstrom]:                                  1.470

       Atomic van der Waals radius [Angstrom]:                             2.020

     GTH Potential information for                                       GTH-PBE

       Description:                       Goedecker-Teter-Hutter pseudopotential
                                           Goedecker et al., PRB 54, 1703 (1996)
                                          Hartwigsen et al., PRB 58, 3641 (1998)
                                                      Krack, TCA 114, 145 (2005)

       Gaussian exponent of the core charge distribution:               1.311282
       Electronic configuration (s p d ...):                               2   2

       Parameters of the local part of the GTH pseudopotential:

                          rloc        C1          C2          C3          C4
                        0.617500    4.672384

       Parameters of the non-local part of the GTH pseudopotential:

                   l      r(l)      h(i,j,l)

                   0    0.622359    0.879918    2.081148   -1.431257
                                    2.081148   -5.014690    3.695490
                                   -1.431257    3.695490   -2.933204
                   1    0.812002    0.153457    0.478898
                                    0.478898   -0.566640
                   2    1.025015    0.301702

  3. Atomic kind: C                                     Number of atoms:      81

     Orbital Basis Set                                            SZV-MOLOPT-GTH

       Number of orbital shell sets:                                           1
       Number of orbital shells:                                               2
       Number of primitive Cartesian functions:                                7
       Number of Cartesian basis functions:                                    4
       Number of spherical basis functions:                                    4
       Norm type:                                                              2

       Normalised Cartesian orbitals:

                        Set   Shell   Orbital            Exponent    Coefficient

                          1       1    2s                6.132625      -0.263661
                                                         2.625196      -0.231112
                                                         1.045457       0.042712
                                                         0.478316       0.306085
                                                         0.178617       0.065483
                                                         0.075145       0.000568
                                                         0.030287       0.000417

                          1       2    3px               6.132625       0.562677
                                                         2.625196       0.633910
                                                         1.045457       0.379157
                                                         0.478316       0.235193
                                                         0.178617       0.052379
                                                         0.075145       0.003677
                                                         0.030287       0.000105
                          1       2    3py               6.132625       0.562677
                                                         2.625196       0.633910
                                                         1.045457       0.379157
                                                         0.478316       0.235193
                                                         0.178617       0.052379
                                                         0.075145       0.003677
                                                         0.030287       0.000105
                          1       2    3pz               6.132625       0.562677
                                                         2.625196       0.633910
                                                         1.045457       0.379157
                                                         0.478316       0.235193
                                                         0.178617       0.052379
                                                         0.075145       0.003677
                                                         0.030287       0.000105

       Atomic covalent radius [Angstrom]:                                  0.770

       Atomic van der Waals radius [Angstrom]:                             1.700

     GTH Potential information for                                       GTH-PBE

       Description:                       Goedecker-Teter-Hutter pseudopotential
                                           Goedecker et al., PRB 54, 1703 (1996)
                                          Hartwigsen et al., PRB 58, 3641 (1998)
                                                      Krack, TCA 114, 145 (2005)

       Gaussian exponent of the core charge distribution:               4.364419
       Electronic configuration (s p d ...):                               2   2

       Parameters of the local part of the GTH pseudopotential:

                          rloc        C1          C2          C3          C4
                        0.338471   -8.803674    1.339211

       Parameters of the non-local part of the GTH pseudopotential:

                   l      r(l)      h(i,j,l)

                   0    0.302576    9.622487
                   1    0.291507

  4. Atomic kind: N                                     Number of atoms:      81

     Orbital Basis Set                                            SZV-MOLOPT-GTH

       Number of orbital shell sets:                                           1
       Number of orbital shells:                                               2
       Number of primitive Cartesian functions:                                7
       Number of Cartesian basis functions:                                    4
       Number of spherical basis functions:                                    4
       Norm type:                                                              2

       Normalised Cartesian orbitals:

                        Set   Shell   Orbital            Exponent    Coefficient

                          1       1    2s                9.042730      -0.237404
                                                         3.882225      -0.265910
                                                         1.512880       0.102064
                                                         0.586631       0.295369
                                                         0.222851       0.088647
                                                         0.084583       0.003860
                                                         0.039194       0.000722

                          1       2    3px               9.042730       0.822162
                                                         3.882225       0.990771
                                                         1.512880       0.665657
                                                         0.586631       0.321705
                                                         0.222851       0.063706
                                                         0.084583       0.004155
                                                         0.039194      -0.000005
                          1       2    3py               9.042730       0.822162
                                                         3.882225       0.990771
                                                         1.512880       0.665657
                                                         0.586631       0.321705
                                                         0.222851       0.063706
                                                         0.084583       0.004155
                                                         0.039194      -0.000005
                          1       2    3pz               9.042730       0.822162
                                                         3.882225       0.990771
                                                         1.512880       0.665657
                                                         0.586631       0.321705
                                                         0.222851       0.063706
                                                         0.084583       0.004155
                                                         0.039194      -0.000005

       Atomic covalent radius [Angstrom]:                                  0.750

       Atomic van der Waals radius [Angstrom]:                             1.550

     GTH Potential information for                                       GTH-PBE

       Description:                       Goedecker-Teter-Hutter pseudopotential
                                           Goedecker et al., PRB 54, 1703 (1996)
                                          Hartwigsen et al., PRB 58, 3641 (1998)
                                                      Krack, TCA 114, 145 (2005)

       Gaussian exponent of the core charge distribution:               6.208322
       Electronic configuration (s p d ...):                               2   3

       Parameters of the local part of the GTH pseudopotential:

                          rloc        C1          C2          C3          C4
                        0.283791  -12.415226    1.868096

       Parameters of the non-local part of the GTH pseudopotential:

                   l      r(l)      h(i,j,l)

                   0    0.255405   13.630263
                   1    0.245495

  5. Atomic kind: H                                     Number of atoms:     486

     Orbital Basis Set                                            SZV-MOLOPT-GTH

       Number of orbital shell sets:                                           1
       Number of orbital shells:                                               1
       Number of primitive Cartesian functions:                                7
       Number of Cartesian basis functions:                                    1
       Number of spherical basis functions:                                    1
       Norm type:                                                              2

       Normalised Cartesian orbitals:

                        Set   Shell   Orbital            Exponent    Coefficient

                          1       1    2s               11.478000       0.129129
                                                         3.700759       0.177012
                                                         1.446884       0.141285
                                                         0.716815       0.245670
                                                         0.247919       0.094768
                                                         0.066918       0.004062
                                                         0.021708      -0.000053

       Atomic covalent radius [Angstrom]:                                  0.320

       Atomic van der Waals radius [Angstrom]:                             1.090

     GTH Potential information for                                    GTH-PBE-q1

       Description:                       Goedecker-Teter-Hutter pseudopotential
                                           Goedecker et al., PRB 54, 1703 (1996)
                                          Hartwigsen et al., PRB 58, 3641 (1998)
                                                      Krack, TCA 114, 145 (2005)

       Gaussian exponent of the core charge distribution:              12.500000
       Electronic configuration (s p d ...):                                   1

       Parameters of the local part of the GTH pseudopotential:

                          rloc        C1          C2          C3          C4
                        0.200000   -4.178900    0.724463


 MOLECULE KIND INFORMATION


 All atoms are their own molecule, skipping detailed information


 TOTAL NUMBERS AND MAXIMUM NUMBERS

  Total number of            - Atomic kinds:                                   5
                             - Atoms:                                        952
                             - Shell sets:                                   952
                             - Shells:                                      1418
                             - Primitive Cartesian functions:               6056
                             - Cartesian basis functions:                   2350
                             - Spherical basis functions:                   2350

  Maximum angular momentum of- Orbital basis functions:                        1
                             - Local part of the GTH pseudopotential:          2
                             - Non-local part of the GTH pseudopotential:      4


 MODULE QUICKSTEP:  ATOMIC COORDINATES IN angstrom

  Atom  Kind  Element       X           Y           Z          Z(eff)       Mass

       1     1 I   53   12.283908   12.803646    9.042659      7.0000     126.9045
       2     1 I   53   19.084636   13.422524    8.983601      7.0000     126.9045
       3     1 I   53   24.985838   12.891273    9.194683      7.0000     126.9045
       4     1 I   53   30.955005   13.464725    9.029031      7.0000     126.9045
       5     1 I   53   12.923955   19.322805    8.882629      7.0000     126.9045
       6     1 I   53   18.623233   19.120962    8.946596      7.0000     126.9045
       7     1 I   53   25.054220   19.141541    9.060375      7.0000     126.9045
       8     1 I   53   30.783438   19.329038    9.118986      7.0000     126.9045
       9     1 I   53   12.693873   25.572886    9.099705      7.0000     126.9045
      10     1 I   53   18.492175   25.489336    8.986198      7.0000     126.9045
      11     1 I   53   24.924234   25.363823    8.970845      7.0000     126.9045
      12     1 I   53   30.699654   25.464438    9.178246      7.0000     126.9045
      13     1 I   53   12.043519   31.973635    9.209094      7.0000     126.9045
      14     1 I   53   19.347840   31.859376    9.128413      7.0000     126.9045
      15     1 I   53   24.879603   31.759925    9.107545      7.0000     126.9045
      16     1 I   53   30.637131   31.558878    9.058956      7.0000     126.9045
      17     1 I   53   12.588933    9.301671   12.357087      7.0000     126.9045
      18     1 I   53   18.560282    9.592271   13.086948      7.0000     126.9045
      19     1 I   53   24.678539    9.491669   12.825035      7.0000     126.9045
      20     1 I   53   31.441426    9.896159   12.294308      7.0000     126.9045
      21     1 I   53    9.664037   11.521928   12.512017      7.0000     126.9045
      22     1 I   53   12.471756   12.932835   15.554290      7.0000     126.9045
      23     1 I   53   11.712083   15.990533   12.053922      7.0000     126.9045
      24     1 I   53   15.667140   12.515523   11.608675      7.0000     126.9045
      25     1 I   53   18.453484   11.793564   15.455341      7.0000     126.9045
      26     1 I   53   18.133224   15.935285   12.772906      7.0000     126.9045
      27     1 I   53   21.926800   13.166674   12.550928      7.0000     126.9045
      28     1 I   53   25.199612   12.877112   15.731561      7.0000     126.9045
      29     1 I   53   25.719028   15.968745   12.352718      7.0000     126.9045
      30     1 I   53   28.248993   12.528149   12.440656      7.0000     126.9045
      31     1 I   53   31.077524   12.986000   15.707252      7.0000     126.9045
      32     1 I   53   30.786086   16.179265   12.708957      7.0000     126.9045
      33     1 I   53   34.652963   13.785553   12.305907      7.0000     126.9045
      34     1 I   53    8.794842   19.109445   13.439328      7.0000     126.9045
      35     1 I   53   12.348234   18.965186   15.370013      7.0000     126.9045
      36     1 I   53   11.666442   22.159773   12.033820      7.0000     126.9045
      37     1 I   53   15.771960   19.824593   12.282516      7.0000     126.9045
      38     1 I   53   18.704183   19.095434   15.461206      7.0000     126.9045
      39     1 I   53   19.603851   22.274029   12.250198      7.0000     126.9045
      40     1 I   53   22.056065   18.218852   12.201331      7.0000     126.9045
      41     1 I   53   24.990401   19.031524   15.572872      7.0000     126.9045
      42     1 I   53   24.490983   22.280815   12.510778      7.0000     126.9045
      43     1 I   53   28.350642   19.801127   12.577985      7.0000     126.9045
      44     1 I   53   31.508512   19.211962   15.592209      7.0000     126.9045
      45     1 I   53   31.813128   22.392474   12.520579      7.0000     126.9045
      46     1 I   53   34.972115   19.223096   12.523934      7.0000     126.9045
      47     1 I   53    9.198714   25.584628   12.437704      7.0000     126.9045
      48     1 I   53   12.451323   25.375588   15.552031      7.0000     126.9045
      49     1 I   53   12.665876   28.690569   12.462334      7.0000     126.9045
      50     1 I   53   15.668506   24.621429   12.326699      7.0000     126.9045
      51     1 I   53   18.736028   25.356031   15.506450      7.0000     126.9045
      52     1 I   53   17.929912   28.689087   12.252998      7.0000     126.9045
      53     1 I   53   21.949104   26.171805   12.186911      7.0000     126.9045
      54     1 I   53   24.898542   25.395604   15.528261      7.0000     126.9045
      55     1 I   53   25.861656   28.659428   12.188070      7.0000     126.9045
      56     1 I   53   28.261073   24.858858   12.720127      7.0000     126.9045
      57     1 I   53   31.568122   25.565882   15.630222      7.0000     126.9045
      58     1 I   53   31.065808   28.751071   12.483960      7.0000     126.9045
      59     1 I   53   34.712881   25.627819   12.179458      7.0000     126.9045
      60     1 I   53    9.146651   31.952858   12.674832      7.0000     126.9045
      61     1 I   53   12.324177   31.777482   15.761928      7.0000     126.9045
      62     1 I   53   12.144213   35.320557   12.643514      7.0000     126.9045
      63     1 I   53   15.695203   32.648804   11.747754      7.0000     126.9045
      64     1 I   53   18.707121   31.538799   15.607844      7.0000     126.9045
      65     1 I   53   19.169675   35.192412   13.001969      7.0000     126.9045
      66     1 I   53   21.960964   31.170260   12.534384      7.0000     126.9045
      67     1 I   53   25.133068   31.602085   15.648737      7.0000     126.9045
      68     1 I   53   24.582809   35.373466   12.791535      7.0000     126.9045
      69     1 I   53   28.139411   32.385127   12.475461      7.0000     126.9045
      70     1 I   53   31.226242   31.526246   15.605130      7.0000     126.9045
      71     1 I   53   30.982209   35.395374   12.816503      7.0000     126.9045
      72     1 I   53   34.595925   31.679148   12.220174      7.0000     126.9045
      73     1 I   53   12.763730    9.612936   19.101576      7.0000     126.9045
      74     1 I   53   18.693333    9.311922   19.227272      7.0000     126.9045
      75     1 I   53   24.906215    9.358790   19.179766      7.0000     126.9045
      76     1 I   53   31.155328    9.765628   18.964048      7.0000     126.9045
      77     1 I   53    9.465091   13.266303   18.848811      7.0000     126.9045
      78     1 I   53   12.712944   12.913267   21.982304      7.0000     126.9045
      79     1 I   53   12.997354   15.995461   18.880045      7.0000     126.9045
      80     1 I   53   15.775108   12.671561   18.502616      7.0000     126.9045
      81     1 I   53   19.032870   12.863544   21.962911      7.0000     126.9045
      82     1 I   53   18.603648   15.853214   18.851284      7.0000     126.9045
      83     1 I   53   22.021896   12.900756   18.397679      7.0000     126.9045
      84     1 I   53   24.671282   12.671952   22.137299      7.0000     126.9045
      85     1 I   53   25.410549   15.862023   19.044772      7.0000     126.9045
      86     1 I   53   28.418112   12.736434   19.230999      7.0000     126.9045
      87     1 I   53   31.801538   13.024669   22.200146      7.0000     126.9045
      88     1 I   53   31.778354   15.863378   18.887959      7.0000     126.9045
      89     1 I   53   36.157638   14.157377   19.106291      7.0000     126.9045
      90     1 I   53    9.166695   18.682122   18.509371      7.0000     126.9045
      91     1 I   53   12.601501   19.059994   21.968862      7.0000     126.9045
      92     1 I   53   11.964442   22.320495   18.890839      7.0000     126.9045
      93     1 I   53   15.672040   19.578164   18.521073      7.0000     126.9045
      94     1 I   53   18.885764   19.053684   21.931532      7.0000     126.9045
      95     1 I   53   19.352894   22.277586   18.852638      7.0000     126.9045
      96     1 I   53   22.111281   18.699268   18.650147      7.0000     126.9045
      97     1 I   53   25.244758   19.059063   22.001420      7.0000     126.9045
      98     1 I   53   25.025992   22.275492   18.992413      7.0000     126.9045
      99     1 I   53   28.617005   19.183258   18.663088      7.0000     126.9045
     100     1 I   53   31.709371   19.162383   21.989460      7.0000     126.9045
     101     1 I   53   32.018562   22.280014   18.745046      7.0000     126.9045
     102     1 I   53   35.395093   19.043557   18.644777      7.0000     126.9045
     103     1 I   53    9.206626   25.939117   18.583886      7.0000     126.9045
     104     1 I   53   12.528753   25.348888   22.001308      7.0000     126.9045
     105     1 I   53   12.773631   28.765797   19.012390      7.0000     126.9045
     106     1 I   53   15.722614   25.062571   18.649159      7.0000     126.9045
     107     1 I   53   18.804091   25.344716   21.976909      7.0000     126.9045
     108     1 I   53   18.625986   28.718872   19.040134      7.0000     126.9045
     109     1 I   53   22.146603   25.954739   18.737054      7.0000     126.9045
     110     1 I   53   25.275384   25.421408   21.975326      7.0000     126.9045
     111     1 I   53   25.725987   28.730760   18.815485      7.0000     126.9045
     112     1 I   53   28.593580   25.135038   18.604725      7.0000     126.9045
     113     1 I   53   31.560644   25.218690   21.974521      7.0000     126.9045
     114     1 I   53   31.362848   28.683773   19.180024      7.0000     126.9045
     115     1 I   53   35.395051   25.366699   18.608866      7.0000     126.9045
     116     1 I   53    9.245408   31.740280   19.026765      7.0000     126.9045
     117     1 I   53   12.953374   31.545704   22.096781      7.0000     126.9045
     118     1 I   53   12.418069   35.680968   19.265530      7.0000     126.9045
     119     1 I   53   15.692828   32.149955   18.710189      7.0000     126.9045
     120     1 I   53   18.844676   31.619547   22.079375      7.0000     126.9045
     121     1 I   53   18.523839   35.427430   19.009130      7.0000     126.9045
     122     1 I   53   22.147469   31.848398   18.866218      7.0000     126.9045
     123     1 I   53   25.173238   31.538949   22.055493      7.0000     126.9045
     124     1 I   53   25.042536   35.363049   19.078442      7.0000     126.9045
     125     1 I   53   28.707734   32.570577   18.874440      7.0000     126.9045
     126     1 I   53   32.166700   32.146782   21.909234      7.0000     126.9045
     127     1 I   53   30.749831   36.830267   20.489336      7.0000     126.9045
     128     1 I   53   35.537939   30.669604   18.976880      7.0000     126.9045
     129     1 I   53   13.327300    9.433839   24.903663      7.0000     126.9045
     130     1 I   53   18.737947    9.381350   25.470433      7.0000     126.9045
     131     1 I   53   25.628565    9.388905   25.320117      7.0000     126.9045
     132     1 I   53   30.829196    9.522147   25.455864      7.0000     126.9045
     133     1 I   53    9.685685   13.158702   25.083899      7.0000     126.9045
     134     1 I   53   12.723581   12.575553   28.410489      7.0000     126.9045
     135     1 I   53   12.664468   15.911029   25.512916      7.0000     126.9045
     136     1 I   53   16.032039   13.179638   24.982965      7.0000     126.9045
     137     1 I   53   18.798564   12.867651   28.432522      7.0000     126.9045
     138     1 I   53   19.628518   15.878821   25.171492      7.0000     126.9045
     139     1 I   53   22.323700   12.237169   25.669308      7.0000     126.9045
     140     1 I   53   25.818735   13.036240   28.396242      7.0000     126.9045
     141     1 I   53   25.107437   15.920323   25.371299      7.0000     126.9045
     142     1 I   53   28.570578   13.085868   24.607698      7.0000     126.9045
     143     1 I   53   31.300253   13.080616   28.370477      7.0000     126.9045
     144     1 I   53   31.985611   15.906923   25.361530      7.0000     126.9045
     145     1 I   53   35.713915   13.367165   24.900574      7.0000     126.9045
     146     1 I   53    9.692583   19.266765   25.399887      7.0000     126.9045
     147     1 I   53   12.932306   19.067834   28.489674      7.0000     126.9045
     148     1 I   53   13.032132   22.278900   25.353198      7.0000     126.9045
     149     1 I   53   16.079260   18.682205   25.026834      7.0000     126.9045
     150     1 I   53   19.114400   19.053074   28.414055      7.0000     126.9045
     151     1 I   53   18.716213   22.270374   25.370176      7.0000     126.9045
     152     1 I   53   22.409503   19.630771   25.110866      7.0000     126.9045
     153     1 I   53   25.439588   19.146319   28.428218      7.0000     126.9045
     154     1 I   53   26.048903   22.271188   25.119788      7.0000     126.9045
     155     1 I   53   28.808771   18.815505   25.083960      7.0000     126.9045
     156     1 I   53   31.942787   19.254009   28.439261      7.0000     126.9045
     157     1 I   53   32.002017   22.271516   25.195765      7.0000     126.9045
     158     1 I   53   35.611904   19.102188   25.102995      7.0000     126.9045
     159     1 I   53    9.178684   25.062560   24.981829      7.0000     126.9045
     160     1 I   53   12.465222   25.317761   28.468475      7.0000     126.9045
     161     1 I   53   12.333229   28.695369   25.563276      7.0000     126.9045
     162     1 I   53   15.815363   25.830907   25.085742      7.0000     126.9045
     163     1 I   53   19.144353   25.412894   28.440494      7.0000     126.9045
     164     1 I   53   19.298230   28.722259   25.276083      7.0000     126.9045
     165     1 I   53   22.340893   25.066806   25.021656      7.0000     126.9045
     166     1 I   53   25.407330   25.297085   28.433913      7.0000     126.9045
     167     1 I   53   25.266799   28.667059   25.388064      7.0000     126.9045
     168     1 I   53   28.860813   25.780596   25.137498      7.0000     126.9045
     169     1 I   53   31.866669   25.201655   28.402461      7.0000     126.9045
     170     1 I   53   32.225833   28.745365   24.835203      7.0000     126.9045
     171     1 I   53   35.534892   25.244403   24.934002      7.0000     126.9045
     172     1 I   53    9.364798   31.929386   24.524320      7.0000     126.9045
     173     1 I   53   11.760804   32.120644   28.345977      7.0000     126.9045
     174     1 I   53   12.592929   35.263237   24.961904      7.0000     126.9045
     175     1 I   53   15.756260   31.860121   25.668049      7.0000     126.9045
     176     1 I   53   19.166046   31.539712   28.489339      7.0000     126.9045
     177     1 I   53   18.199929   35.764759   25.342631      7.0000     126.9045
     178     1 I   53   22.212347   32.192032   25.257759      7.0000     126.9045
     179     1 I   53   25.609880   31.506559   28.480200      7.0000     126.9045
     180     1 I   53   25.080561   35.331501   25.300589      7.0000     126.9045
     181     1 I   53   28.767791   31.847857   24.927120      7.0000     126.9045
     182     1 I   53   31.578705   31.291707   28.231745      7.0000     126.9045
     183     1 I   53   30.431540   36.576242   25.394722      7.0000     126.9045
     184     1 I   53   35.843890   31.109692   25.427683      7.0000     126.9045
     185     1 I   53   12.995916    9.845301   32.225685      7.0000     126.9045
     186     1 I   53   19.205561    9.904024   31.860039      7.0000     126.9045
     187     1 I   53   25.775050    9.695872   31.169305      7.0000     126.9045
     188     1 I   53   31.124106    9.699970   31.706844      7.0000     126.9045
     189     1 I   53    9.692979   13.286543   31.302440      7.0000     126.9045
     190     1 I   53   12.765165   13.283670   35.083907      7.0000     126.9045
     191     1 I   53   12.677734   16.295424   32.039120      7.0000     126.9045
     192     1 I   53   16.031179   13.314199   31.428437      7.0000     126.9045
     193     1 I   53   20.060035   13.434731   34.983408      7.0000     126.9045
     194     1 I   53   19.166108   16.213359   31.769000      7.0000     126.9045
     195     1 I   53   22.388178   13.139279   30.984723      7.0000     126.9045
     196     1 I   53   25.183221   12.797023   34.991483      7.0000     126.9045
     197     1 I   53   25.589555   16.073622   31.675530      7.0000     126.9045
     198     1 I   53   28.685851   13.298023   31.482483      7.0000     126.9045
     199     1 I   53   30.940968   13.290862   34.843101      7.0000     126.9045
     200     1 I   53   32.248125   15.981771   31.405697      7.0000     126.9045
     201     1 I   53   35.286095   12.445365   30.196811      7.0000     126.9045
     202     1 I   53    9.620959   19.419578   31.117223      7.0000     126.9045
     203     1 I   53   13.053774   19.601738   35.022874      7.0000     126.9045
     204     1 I   53   12.111514   22.558207   31.985396      7.0000     126.9045
     205     1 I   53   16.165857   19.508779   31.508303      7.0000     126.9045
     206     1 I   53   19.492600   19.348792   35.173901      7.0000     126.9045
     207     1 I   53   19.543552   22.375187   31.587980      7.0000     126.9045
     208     1 I   53   22.596771   19.296538   31.495963      7.0000     126.9045
     209     1 I   53   25.867556   19.297166   35.142777      7.0000     126.9045
     210     1 I   53   26.056579   22.325400   31.533806      7.0000     126.9045
     211     1 I   53   29.042894   19.071152   31.415338      7.0000     126.9045
     212     1 I   53   31.765798   19.153959   35.086987      7.0000     126.9045
     213     1 I   53   32.478853   22.311923   32.029110      7.0000     126.9045
     214     1 I   53   35.711556   19.021366   31.415100      7.0000     126.9045
     215     1 I   53    9.773772   26.128287   31.761328      7.0000     126.9045
     216     1 I   53   13.314820   25.504314   34.963711      7.0000     126.9045
     217     1 I   53   13.573454   28.687782   31.220846      7.0000     126.9045
     218     1 I   53   16.130684   25.000092   31.362467      7.0000     126.9045
     219     1 I   53   19.329821   25.320554   35.149328      7.0000     126.9045
     220     1 I   53   19.060844   28.642647   31.892422      7.0000     126.9045
     221     1 I   53   22.558104   25.493996   31.575533      7.0000     126.9045
     222     1 I   53   25.878321   25.274392   35.138221      7.0000     126.9045
     223     1 I   53   25.482973   28.604416   31.788832      7.0000     126.9045
     224     1 I   53   29.069096   25.771688   31.630376      7.0000     126.9045
     225     1 I   53   32.315137   25.872945   34.959623      7.0000     126.9045
     226     1 I   53   32.743814   28.640439   31.301519      7.0000     126.9045
     227     1 I   53   35.685105   25.346822   31.451179      7.0000     126.9045
     228     1 I   53    9.751176   31.257778   31.264521      7.0000     126.9045
     229     1 I   53   13.060403   31.267484   34.812391      7.0000     126.9045
     230     1 I   53   12.808795   35.084893   31.820615      7.0000     126.9045
     231     1 I   53   16.154642   31.985043   31.295031      7.0000     126.9045
     232     1 I   53   19.964190   31.765425   35.034766      7.0000     126.9045
     233     1 I   53   19.529894   35.076590   31.319431      7.0000     126.9045
     234     1 I   53   22.520117   31.638956   31.137600      7.0000     126.9045
     235     1 I   53   25.083233   31.462839   35.058475      7.0000     126.9045
     236     1 I   53   25.431286   35.338893   31.356971      7.0000     126.9045
     237     1 I   53   28.883949   31.130052   31.130825      7.0000     126.9045
     238     1 I   53   30.705254   31.607852   34.348841      7.0000     126.9045
     239     1 I   53   30.452128   36.183259   30.876999      7.0000     126.9045
     240     1 I   53   35.537233   32.506431   29.940796      7.0000     126.9045
     241     2 Pb  82   12.487669   12.938326   12.147622      4.0000     207.2000
     242     2 Pb  82   18.783890   13.006473   12.043515      4.0000     207.2000
     243     2 Pb  82   25.084570   12.563680   12.356615      4.0000     207.2000
     244     2 Pb  82   31.504616   13.053062   12.077656      4.0000     207.2000
     245     2 Pb  82   12.803288   19.306927   11.990782      4.0000     207.2000
     246     2 Pb  82   19.147743   19.207821   12.208000      4.0000     207.2000
     247     2 Pb  82   25.331753   19.116555   12.261901      4.0000     207.2000
     248     2 Pb  82   31.760208   19.224458   12.365637      4.0000     207.2000
     249     2 Pb  82   12.438609   25.620898   12.241276      4.0000     207.2000
     250     2 Pb  82   18.701367   25.634354   12.153617      4.0000     207.2000
     251     2 Pb  82   25.143457   25.527704   12.239094      4.0000     207.2000
     252     2 Pb  82   31.430271   25.558504   12.337040      4.0000     207.2000
     253     2 Pb  82   12.210947   32.246615   12.346880      4.0000     207.2000
     254     2 Pb  82   18.783789   32.112055   12.238584      4.0000     207.2000
     255     2 Pb  82   24.963827   32.118213   12.249363      4.0000     207.2000
     256     2 Pb  82   31.318386   32.037714   12.192654      4.0000     207.2000
     257     2 Pb  82   12.576695   12.667690   18.804504      4.0000     207.2000
     258     2 Pb  82   18.994033   12.440491   18.857465      4.0000     207.2000
     259     2 Pb  82   25.380738   12.509318   19.043611      4.0000     207.2000
     260     2 Pb  82   32.783715   12.358096   18.226887      4.0000     207.2000
     261     2 Pb  82   12.498621   19.087156   18.735040      4.0000     207.2000
     262     2 Pb  82   19.039812   18.993837   18.769195      4.0000     207.2000
     263     2 Pb  82   25.558481   19.036160   18.815857      4.0000     207.2000
     264     2 Pb  82   32.319652   18.906256   18.820060      4.0000     207.2000
     265     2 Pb  82   12.470019   25.567921   18.785969      4.0000     207.2000
     266     2 Pb  82   19.051865   25.432866   18.768119      4.0000     207.2000
     267     2 Pb  82   25.543468   25.451631   18.785018      4.0000     207.2000
     268     2 Pb  82   32.309149   25.364332   18.791359      4.0000     207.2000
     269     2 Pb  82   12.388266   32.254120   18.899101      4.0000     207.2000
     270     2 Pb  82   18.967986   31.920883   18.837085      4.0000     207.2000
     271     2 Pb  82   25.611675   31.993991   18.833482      4.0000     207.2000
     272     2 Pb  82   32.557428   31.517940   18.802790      4.0000     207.2000
     273     2 Pb  82   12.903174   12.500633   25.252303      4.0000     207.2000
     274     2 Pb  82   19.222631   12.486584   25.388723      4.0000     207.2000
     275     2 Pb  82   25.638460   12.529784   25.269576      4.0000     207.2000
     276     2 Pb  82   32.627864   12.381142   25.529811      4.0000     207.2000
     277     2 Pb  82   12.807397   19.072267   25.341028      4.0000     207.2000
     278     2 Pb  82   19.325679   18.985291   25.303684      4.0000     207.2000
     279     2 Pb  82   25.729720   19.008998   25.299036      4.0000     207.2000
     280     2 Pb  82   32.510239   18.961389   25.287020      4.0000     207.2000
     281     2 Pb  82   12.675968   25.502051   25.313669      4.0000     207.2000
     282     2 Pb  82   19.266195   25.353477   25.298691      4.0000     207.2000
     283     2 Pb  82   25.799674   25.375441   25.307642      4.0000     207.2000
     284     2 Pb  82   32.427203   25.380081   25.219641      4.0000     207.2000
     285     2 Pb  82   12.551127   32.126199   25.195558      4.0000     207.2000
     286     2 Pb  82   19.108548   31.825657   25.366681      4.0000     207.2000
     287     2 Pb  82   25.700059   31.801304   25.303390      4.0000     207.2000
     288     2 Pb  82   32.830427   31.846538   25.474907      4.0000     207.2000
     289     2 Pb  82   12.823620   13.010893   31.953918      4.0000     207.2000
     290     2 Pb  82   19.435409   13.030741   31.980647      4.0000     207.2000
     291     2 Pb  82   25.594730   12.806015   31.805001      4.0000     207.2000
     292     2 Pb  82   32.599265   12.541296   31.873752      4.0000     207.2000
     293     2 Pb  82   12.984661   19.420204   31.864626      4.0000     207.2000
     294     2 Pb  82   19.478263   19.285969   32.118147      4.0000     207.2000
     295     2 Pb  82   25.874524   19.160390   32.066519      4.0000     207.2000
     296     2 Pb  82   32.302711   19.024349   31.890307      4.0000     207.2000
     297     2 Pb  82   13.002634   25.686299   31.878346      4.0000     207.2000
     298     2 Pb  82   19.430063   25.508274   32.051461      4.0000     207.2000
     299     2 Pb  82   25.956987   25.390728   32.053873      4.0000     207.2000
     300     2 Pb  82   32.525682   25.482527   31.829237      4.0000     207.2000
     301     2 Pb  82   13.011349   31.969090   31.812188      4.0000     207.2000
     302     2 Pb  82   19.471192   31.937956   31.957962      4.0000     207.2000
     303     2 Pb  82   25.695622   31.682020   31.982623      4.0000     207.2000
     304     2 Pb  82   32.986736   31.846252   31.615303      4.0000     207.2000
     305     3 C    6   15.364894   15.920115    9.040045      4.0000      12.0107
     306     3 C    6   21.922201   16.155085    8.697942      4.0000      12.0107
     307     3 C    6   27.690379   16.042229    9.010957      4.0000      12.0107
     308     3 C    6   15.658188   22.340472    8.830819      4.0000      12.0107
     309     3 C    6   21.650363   22.123106    8.929294      4.0000      12.0107
     310     3 C    6   27.723681   22.253690    9.266047      4.0000      12.0107
     311     3 C    6   15.358374   28.852811    8.919572      4.0000      12.0107
     312     3 C    6   21.886508   28.362802    8.929307      4.0000      12.0107
     313     3 C    6   27.736384   28.472350    8.717544      4.0000      12.0107
     314     3 C    6   15.003075    9.541565   15.260200      4.0000      12.0107
     315     3 C    6   21.942218    9.802774   15.770525      4.0000      12.0107
     316     3 C    6   27.998229    9.697725   15.481790      4.0000      12.0107
     317     3 C    6    9.255571   15.768516   15.474100      4.0000      12.0107
     318     3 C    6   15.241880   16.018956   15.473980      4.0000      12.0107
     319     3 C    6   21.830764   15.927230   15.473877      4.0000      12.0107
     320     3 C    6   27.971770   16.053689   15.475120      4.0000      12.0107
     321     3 C    6   34.421595   16.356172   15.465972      4.0000      12.0107
     322     3 C    6    9.363143   22.256450   15.464821      4.0000      12.0107
     323     3 C    6   15.550007   22.183512   15.479413      4.0000      12.0107
     324     3 C    6   21.784316   22.163382   15.480019      4.0000      12.0107
     325     3 C    6   28.017112   22.170144   15.602375      4.0000      12.0107
     326     3 C    6   34.385696   22.512427   15.454254      4.0000      12.0107
     327     3 C    6    9.373823   28.460865   15.462554      4.0000      12.0107
     328     3 C    6   15.510634   28.451729   15.567643      4.0000      12.0107
     329     3 C    6   21.824761   28.475654   15.373648      4.0000      12.0107
     330     3 C    6   27.995139   28.339684   15.456367      4.0000      12.0107
     331     3 C    6   34.476184   28.723286   15.337560      4.0000      12.0107
     332     3 C    6   15.506386   34.707357   15.578548      4.0000      12.0107
     333     3 C    6   21.810253   34.541512   15.874375      4.0000      12.0107
     334     3 C    6   27.759214   34.817692   15.571625      4.0000      12.0107
     335     3 C    6   15.634843    9.843021   21.877327      4.0000      12.0107
     336     3 C    6   21.794544    9.603063   21.994186      4.0000      12.0107
     337     3 C    6   28.305294    9.691318   21.962509      4.0000      12.0107
     338     3 C    6    9.561532   16.051286   21.894055      4.0000      12.0107
     339     3 C    6   15.709914   15.911915   21.770304      4.0000      12.0107
     340     3 C    6   21.916704   15.955091   21.787622      4.0000      12.0107
     341     3 C    6   28.335599   16.057103   21.762581      4.0000      12.0107
     342     3 C    6   34.453080   16.391509   22.006572      4.0000      12.0107
     343     3 C    6    9.530250   22.079651   21.903461      4.0000      12.0107
     344     3 C    6   15.654306   22.166457   21.783313      4.0000      12.0107
     345     3 C    6   22.060830   22.174874   21.748456      4.0000      12.0107
     346     3 C    6   28.309276   22.168906   21.736434      4.0000      12.0107
     347     3 C    6   34.748194   22.110500   21.636027      4.0000      12.0107
     348     3 C    6    9.554965   28.421032   21.896030      4.0000      12.0107
     349     3 C    6   15.702428   28.467768   21.773552      4.0000      12.0107
     350     3 C    6   22.020715   28.551228   21.779077      4.0000      12.0107
     351     3 C    6   28.189294   28.365208   21.770340      4.0000      12.0107
     352     3 C    6   34.472804   27.797922   21.767322      4.0000      12.0107
     353     3 C    6   15.573496   34.618541   22.101391      4.0000      12.0107
     354     3 C    6   21.916562   34.699367   22.095398      4.0000      12.0107
     355     3 C    6   27.840125   34.459210   22.103839      4.0000      12.0107
     356     3 C    6   15.625011    9.709463   28.427122      4.0000      12.0107
     357     3 C    6   21.714332    9.937618   28.685608      4.0000      12.0107
     358     3 C    6   28.055100    9.680705   28.257983      4.0000      12.0107
     359     3 C    6    9.585274   16.012224   28.202278      4.0000      12.0107
     360     3 C    6   15.809581   16.020313   28.082147      4.0000      12.0107
     361     3 C    6   22.151829   16.023050   28.081071      4.0000      12.0107
     362     3 C    6   28.337785   16.163986   28.071184      4.0000      12.0107
     363     3 C    6   34.782049   16.139498   27.951741      4.0000      12.0107
     364     3 C    6    9.549471   22.263287   28.197922      4.0000      12.0107
     365     3 C    6   15.903591   22.178624   28.090064      4.0000      12.0107
     366     3 C    6   22.154078   22.226895   28.188908      4.0000      12.0107
     367     3 C    6   28.553026   22.176654   28.157660      4.0000      12.0107
     368     3 C    6   34.810693   22.152881   27.989835      4.0000      12.0107
     369     3 C    6    9.466206   28.370223   28.196061      4.0000      12.0107
     370     3 C    6   15.919197   28.472447   28.076303      4.0000      12.0107
     371     3 C    6   22.150889   28.402124   28.081071      4.0000      12.0107
     372     3 C    6   28.415888   28.262896   28.075203      4.0000      12.0107
     373     3 C    6   34.716080   28.129377   27.949769      4.0000      12.0107
     374     3 C    6   15.807574   34.893299   28.590336      4.0000      12.0107
     375     3 C    6   22.055077   34.714220   28.408302      4.0000      12.0107
     376     3 C    6   28.148803   34.424035   28.182829      4.0000      12.0107
     377     3 C    6   16.144427   15.937276   34.830227      4.0000      12.0107
     378     3 C    6   22.721452   16.378810   34.399845      4.0000      12.0107
     379     3 C    6   28.269121   16.137063   34.461177      4.0000      12.0107
     380     3 C    6   15.969402   22.268301   34.362834      4.0000      12.0107
     381     3 C    6   22.527258   22.256166   34.404522      4.0000      12.0107
     382     3 C    6   28.858719   22.240463   34.248214      4.0000      12.0107
     383     3 C    6   16.098962   28.582796   34.590876      4.0000      12.0107
     384     3 C    6   22.358388   28.349369   34.385327      4.0000      12.0107
     385     3 C    6   28.391667   28.355878   34.603876      4.0000      12.0107
     386     4 N    7   16.822315   16.044180    9.581644      5.0000      14.0067
     387     4 N    7   23.265134   16.037924    9.495838      5.0000      14.0067
     388     4 N    7   29.066570   16.265455    9.708491      5.0000      14.0067
     389     4 N    7   17.023937   22.250755    9.594527      5.0000      14.0067
     390     4 N    7   23.152185   22.143416    9.365466      5.0000      14.0067
     391     4 N    7   29.079645   22.349996   10.033977      5.0000      14.0067
     392     4 N    7   16.925623   28.786858    8.915296      5.0000      14.0067
     393     4 N    7   23.254582   28.457404    9.693711      5.0000      14.0067
     394     4 N    7   28.950144   28.467443    9.704703      5.0000      14.0067
     395     4 N    7   15.966823    9.248155   16.472223      5.0000      14.0067
     396     4 N    7   23.470406    9.819194   16.095921      5.0000      14.0067
     397     4 N    7   29.507408    9.807946   15.891355      5.0000      14.0067
     398     4 N    7   10.678896   15.914698   16.111760      5.0000      14.0067
     399     4 N    7   16.713479   16.044715   16.007848      5.0000      14.0067
     400     4 N    7   23.259345   15.923930   16.120623      5.0000      14.0067
     401     4 N    7   29.392798   16.154074   16.132054      5.0000      14.0067
     402     4 N    7   35.626706   15.468913   15.893288      5.0000      14.0067
     403     4 N    7   10.901391   22.146121   15.678727      5.0000      14.0067
     404     4 N    7   17.018453   22.151848   16.023506      5.0000      14.0067
     405     4 N    7   23.257698   22.142692   16.007690      5.0000      14.0067
     406     4 N    7   29.498374   22.146424   16.121013      5.0000      14.0067
     407     4 N    7   35.519406   22.136147   16.461256      5.0000      14.0067
     408     4 N    7   10.800178   28.475704   16.101941      5.0000      14.0067
     409     4 N    7   17.013632   28.461066   16.002419      5.0000      14.0067
     410     4 N    7   23.256142   28.469803   16.016952      5.0000      14.0067
     411     4 N    7   29.407911   28.359370   16.127265      5.0000      14.0067
     412     4 N    7   35.826838   28.356339   16.016729      5.0000      14.0067
     413     4 N    7   17.032335   34.564251   15.890957      5.0000      14.0067
     414     4 N    7   23.367272   34.560440   16.012555      5.0000      14.0067
     415     4 N    7   29.278300   34.450350   15.676455      5.0000      14.0067
     416     4 N    7   17.136996    9.926180   22.309504      5.0000      14.0067
     417     4 N    7   23.151527    9.062174   22.523861      5.0000      14.0067
     418     4 N    7   29.805876   10.052220   22.210088      5.0000      14.0067
     419     4 N    7   11.021480   15.928091   22.422914      5.0000      14.0067
     420     4 N    7   17.132793   15.919034   22.430356      5.0000      14.0067
     421     4 N    7   23.355888   15.933993   22.406693      5.0000      14.0067
     422     4 N    7   29.742866   16.130183   22.446411      5.0000      14.0067
     423     4 N    7   35.828728   15.696828   22.201757      5.0000      14.0067
     424     4 N    7   11.003008   22.134937   22.427798      5.0000      14.0067
     425     4 N    7   17.129531   22.141221   22.305914      5.0000      14.0067
     426     4 N    7   23.472273   22.146209   22.432616      5.0000      14.0067
     427     4 N    7   29.712958   22.132796   22.429148      5.0000      14.0067
     428     4 N    7   35.527492   22.030435   22.979188      5.0000      14.0067
     429     4 N    7   11.020630   28.468575   22.416982      5.0000      14.0067
     430     4 N    7   17.127356   28.458088   22.428441      5.0000      14.0067
     431     4 N    7   23.454638   28.460033   22.408550      5.0000      14.0067
     432     4 N    7   29.605584   28.240035   22.432600      5.0000      14.0067
     433     4 N    7   35.395937   28.793327   22.529696      5.0000      14.0067
     434     4 N    7   17.132564   34.566089   22.205853      5.0000      14.0067
     435     4 N    7   23.471390   34.561058   22.199312      5.0000      14.0067
     436     4 N    7   29.383312   34.338001   22.321228      5.0000      14.0067
     437     4 N    7   17.137681    9.812848   28.830968      5.0000      14.0067
     438     4 N    7   23.159635    9.379201   28.517521      5.0000      14.0067
     439     4 N    7   29.511454   10.156400   28.518118      5.0000      14.0067
     440     4 N    7   11.016430   15.912829   28.841545      5.0000      14.0067
     441     4 N    7   17.235110   16.029787   28.733223      5.0000      14.0067
     442     4 N    7   23.578890   16.028243   28.731863      5.0000      14.0067
     443     4 N    7   29.740691   16.254204   28.756246      5.0000      14.0067
     444     4 N    7   36.028541   15.912564   28.856836      5.0000      14.0067
     445     4 N    7   11.013757   22.134521   28.721758      5.0000      14.0067
     446     4 N    7   17.333633   22.145716   28.737695      5.0000      14.0067
     447     4 N    7   23.576075   22.141892   28.846940      5.0000      14.0067
     448     4 N    7   29.946562   22.140262   28.873089      5.0000      14.0067
     449     4 N    7   36.037248   22.043731   28.950003      5.0000      14.0067
     450     4 N    7   10.888913   28.472331   28.847541      5.0000      14.0067
     451     4 N    7   17.340533   28.463491   28.735717      5.0000      14.0067
     452     4 N    7   23.576267   28.356030   28.735452      5.0000      14.0067
     453     4 N    7   29.821810   28.132991   28.752011      5.0000      14.0067
     454     4 N    7   35.817437   28.563722   28.960997      5.0000      14.0067
     455     4 N    7   17.335595   34.562744   28.504224      5.0000      14.0067
     456     4 N    7   23.593276   34.440539   28.397570      5.0000      14.0067
     457     4 N    7   29.707337   34.348401   28.166104      5.0000      14.0067
     458     4 N    7   17.546048   16.146136   35.479852      5.0000      14.0067
     459     4 N    7   23.567906   16.252978   35.700766      5.0000      14.0067
     460     4 N    7   29.402286   16.385389   35.490658      5.0000      14.0067
     461     4 N    7   17.272174   22.271793   35.202962      5.0000      14.0067
     462     4 N    7   23.720231   22.272754   35.394963      5.0000      14.0067
     463     4 N    7   29.817013   22.262102   35.473711      5.0000      14.0067
     464     4 N    7   17.450174   28.455855   35.353580      5.0000      14.0067
     465     4 N    7   23.564863   28.223128   35.360796      5.0000      14.0067
     466     4 N    7   29.807238   28.449036   35.271783      5.0000      14.0067
     467     5 H    1   15.431622   15.975784    7.980426      1.0000       1.0079
     468     5 H    1   14.796711   16.729091    9.431345      1.0000       1.0079
     469     5 H    1   14.974091   14.979635    9.347441      1.0000       1.0079
     470     5 H    1   17.252011   16.958723    9.295314      1.0000       1.0079
     471     5 H    1   17.425519   15.271649    9.203881      1.0000       1.0079
     472     5 H    1   16.869886   15.986818   10.625963      1.0000       1.0079
     473     5 H    1   22.164467   16.217864    7.664297      1.0000       1.0079
     474     5 H    1   21.436137   17.048990    9.007400      1.0000       1.0079
     475     5 H    1   21.326329   15.301879    8.904323      1.0000       1.0079
     476     5 H    1   23.885694   16.847429    9.241750      1.0000       1.0079
     477     5 H    1   23.758116   15.129535    9.305354      1.0000       1.0079
     478     5 H    1   23.083787   16.097301   10.517940      1.0000       1.0079
     479     5 H    1   27.861655   16.076874    7.962871      1.0000       1.0079
     480     5 H    1   27.039777   16.826122    9.312245      1.0000       1.0079
     481     5 H    1   27.315491   15.096125    9.316301      1.0000       1.0079
     482     5 H    1   29.479960   17.197137    9.443823      1.0000       1.0079
     483     5 H    1   29.734053   15.499871    9.430281      1.0000       1.0079
     484     5 H    1   28.980641   16.237806   10.746123      1.0000       1.0079
     485     5 H    1   15.876315   22.427673    7.790882      1.0000       1.0079
     486     5 H    1   15.143383   23.194435    9.200752      1.0000       1.0079
     487     5 H    1   15.114813   21.448527    9.033353      1.0000       1.0079
     488     5 H    1   17.595388   23.107921    9.394518      1.0000       1.0079
     489     5 H    1   17.551388   21.390828    9.304871      1.0000       1.0079
     490     5 H    1   16.858515   22.200754   10.619014      1.0000       1.0079
     491     5 H    1   21.635921   21.982383    7.872346      1.0000       1.0079
     492     5 H    1   21.214091   23.049396    9.213697      1.0000       1.0079
     493     5 H    1   21.181995   21.309648    9.425943      1.0000       1.0079
     494     5 H    1   23.633211   22.986475    8.981693      1.0000       1.0079
     495     5 H    1   23.643385   21.278901    9.033767      1.0000       1.0079
     496     5 H    1   23.260489   22.183572   10.411323      1.0000       1.0079
     497     5 H    1   27.961900   22.286476    8.226756      1.0000       1.0079
     498     5 H    1   27.121558   23.080781    9.552457      1.0000       1.0079
     499     5 H    1   27.267883   21.330390    9.531005      1.0000       1.0079
     500     5 H    1   29.578393   23.239950    9.783976      1.0000       1.0079
     501     5 H    1   29.679807   21.525109    9.772381      1.0000       1.0079
     502     5 H    1   28.924303   22.322714   11.061094      1.0000       1.0079
     503     5 H    1   15.028185   28.844037    7.906145      1.0000       1.0079
     504     5 H    1   15.068860   29.743903    9.423776      1.0000       1.0079
     505     5 H    1   15.005204   27.993747    9.439569      1.0000       1.0079
     506     5 H    1   17.332536   29.543076    8.328059      1.0000       1.0079
     507     5 H    1   17.249988   27.862611    8.546772      1.0000       1.0079
     508     5 H    1   17.287908   28.871424    9.902201      1.0000       1.0079
     509     5 H    1   22.102601   28.193362    7.897148      1.0000       1.0079
     510     5 H    1   21.359640   29.273100    9.090109      1.0000       1.0079
     511     5 H    1   21.355320   27.534793    9.333343      1.0000       1.0079
     512     5 H    1   23.761606   29.340196    9.453652      1.0000       1.0079
     513     5 H    1   23.845529   27.624652    9.439796      1.0000       1.0079
     514     5 H    1   23.091864   28.430701   10.720316      1.0000       1.0079
     515     5 H    1   28.126217   28.401361    7.731070      1.0000       1.0079
     516     5 H    1   27.206012   29.383404    8.859579      1.0000       1.0079
     517     5 H    1   27.127783   27.631845    8.947620      1.0000       1.0079
     518     5 H    1   29.548062   29.316239    9.542683      1.0000       1.0079
     519     5 H    1   29.527817   27.597216    9.562681      1.0000       1.0079
     520     5 H    1   28.609614   28.497942   10.685256      1.0000       1.0079
     521     5 H    1   15.562448    9.438119   14.364157      1.0000       1.0079
     522     5 H    1   14.646956   10.537780   15.377007      1.0000       1.0079
     523     5 H    1   14.203149    8.840979   15.295972      1.0000       1.0079
     524     5 H    1   16.793529    9.885670   16.421054      1.0000       1.0079
     525     5 H    1   16.287138    8.252595   16.482539      1.0000       1.0079
     526     5 H    1   15.461269    9.436241   17.361763      1.0000       1.0079
     527     5 H    1   21.844679    9.889563   14.715330      1.0000       1.0079
     528     5 H    1   21.495103   10.635193   16.257786      1.0000       1.0079
     529     5 H    1   21.536343    8.886315   16.121069      1.0000       1.0079
     530     5 H    1   23.855783   10.788992   15.964436      1.0000       1.0079
     531     5 H    1   23.977828    9.212978   15.416955      1.0000       1.0079
     532     5 H    1   23.690593    9.528122   17.084107      1.0000       1.0079
     533     5 H    1   27.941889    9.757480   14.418919      1.0000       1.0079
     534     5 H    1   27.486738   10.514874   15.932777      1.0000       1.0079
     535     5 H    1   27.630654    8.763838   15.833805      1.0000       1.0079
     536     5 H    1   29.880678   10.758978   15.647913      1.0000       1.0079
     537     5 H    1   30.083494    9.100860   15.395657      1.0000       1.0079
     538     5 H    1   29.665687    9.673242   16.921681      1.0000       1.0079
     539     5 H    1    9.376365   15.734304   14.419278      1.0000       1.0079
     540     5 H    1    8.679293   16.610572   15.766013      1.0000       1.0079
     541     5 H    1    8.821692   14.871353   15.846825      1.0000       1.0079
     542     5 H    1   11.160701   16.778345   15.761815      1.0000       1.0079
     543     5 H    1   11.268724   15.075089   15.872653      1.0000       1.0079
     544     5 H    1   10.616464   15.977372   17.146674      1.0000       1.0079
     545     5 H    1   15.284356   16.059703   14.412667      1.0000       1.0079
     546     5 H    1   14.742191   16.870413   15.866589      1.0000       1.0079
     547     5 H    1   14.789304   15.116719   15.812510      1.0000       1.0079
     548     5 H    1   17.183938   16.947282   15.749141      1.0000       1.0079
     549     5 H    1   17.266711   15.276907   15.586092      1.0000       1.0079
     550     5 H    1   16.770061   15.949723   17.049792      1.0000       1.0079
     551     5 H    1   21.949494   15.861088   14.419474      1.0000       1.0079
     552     5 H    1   21.356258   16.840473   15.743468      1.0000       1.0079
[...]
 flops   416 x   256 x   160         301801144320       0.0%    100.0%      0.0%
 flops   416 x   264 x   128         310107832320       0.0%    100.0%      0.0%
 flops   416 x   263 x   128         311173857280       0.0%    100.0%      0.0%
 flops   391 x   256 x   197         317395607552       0.0%    100.0%      0.0%
 flops   392 x   256 x   197         318207361024       0.0%    100.0%      0.0%
 flops   392 x   288 x   128         318782177280       0.0%    100.0%      0.0%
 flops   391 x   288 x   128         320275169280       0.0%    100.0%      0.0%
 flops   416 x   256 x   193         330832805888       0.0%    100.0%      0.0%
 flops   384 x   288 x   197         350677499904       0.0%    100.0%      0.0%
 flops   587 x   288 x   196         403981627392       0.0%    100.0%      0.0%
 flops   588 x   288 x   196         404669841408       0.0%    100.0%      0.0%
 flops   587 x   256 x   193         471464574976       0.0%    100.0%      0.0%
 flops   588 x   256 x   193         472267751424       0.0%    100.0%      0.0%
 flops   391 x   256 x   196         473676693504       0.0%    100.0%      0.0%
 flops   392 x   256 x   196         474888142848       0.0%    100.0%      0.0%
 flops   587 x   256 x   160         480870400000       0.0%    100.0%      0.0%
 flops   588 x   256 x   160         481689600000       0.0%    100.0%      0.0%
 flops   587 x   263 x   128         494019200000       0.0%    100.0%      0.0%
 flops   588 x   263 x   128         494860800000       0.0%    100.0%      0.0%
 flops   587 x   264 x   128         495897600000       0.0%    100.0%      0.0%
 flops   588 x   264 x   128         496742400000       0.0%    100.0%      0.0%
 flops   384 x   288 x   196         523346116608       0.0%    100.0%      0.0%
 flops   384 x   256 x   160         557171343360       0.0%    100.0%      0.0%
 flops   384 x   264 x   128         572506767360       0.0%    100.0%      0.0%
 flops   384 x   263 x   128         574474813440       0.0%    100.0%      0.0%
 flops   384 x   256 x   193         610768257024       0.0%    100.0%      0.0%
 flops   416 x   256 x   197         675378888704       0.0%    100.0%      0.0%
 flops   416 x   288 x   128         679052574720       0.0%    100.0%      0.0%
 flops   587 x   256 x   197         962471723008       0.0%    100.0%      0.0%
 flops   588 x   256 x   197         964111368192       0.0%    100.0%      0.0%
 flops   416 x   256 x   196        1007925854208       0.0%    100.0%      0.0%
 flops   587 x   288 x   128        1081958400000       0.0%    100.0%      0.0%
 flops   588 x   288 x   128        1083801600000       0.0%    100.0%      0.0%
 flops   392 x   256 x   128        1133447741440       0.0%    100.0%      0.0%
 flops   391 x   256 x   128        1138756157440       0.0%    100.0%      0.0%
 flops     4 x    32 x     4        1165442396160       0.0%    100.0%      0.0%
 flops   384 x   256 x   197        1246853332992       0.0%    100.0%      0.0%
 flops   384 x   288 x   128        1253635522560       0.0%    100.0%      0.0%
 flops   587 x   256 x   196        1436379119616       0.0%    100.0%      0.0%
 flops   588 x   256 x   196        1438826102784       0.0%    100.0%      0.0%
 flops   384 x   256 x   196        1860786192384       0.0%    100.0%      0.0%
 flops   416 x   256 x   128        2414409154560       0.0%    100.0%      0.0%
 flops   587 x   256 x   128        3846963200000       0.0%    100.0%      0.0%
 flops   588 x   256 x   128        3853516800000       0.0%    100.0%      0.0%
 flops   384 x   256 x   128        4457370746880       0.0%    100.0%      0.0%
 flops inhomo. stacks                           0       0.0%      0.0%      0.0%
 flops total                        54.770880E+12       0.0%    100.0%      0.0%
 flops max/rank                      2.578249E+12       0.0%    100.0%      0.0%
 matmuls inhomo. stacks                         0       0.0%      0.0%      0.0%
 matmuls total                         4354046020       0.0%    100.0%      0.0%
 number of processed stacks               6242358       0.0%    100.0%      0.0%
 average stack size                                     0.0     697.5       0.0
 marketing flops                    66.470248E+12
 -------------------------------------------------------------------------------
 # multiplications                           5807
 max memory usage/rank               1.808749E+09
 # max total images/rank                        3
 # max 3D layers                                1
 # MPI messages exchanged                 2647992
 MPI messages size (bytes):
  total size                         1.141506E+12
  min size                           0.000000E+00
  max size                           1.089536E+06
  average size                     431.083438E+03
 MPI breakdown and total messages size (bytes):
             size <=      128                5736                        0
       128 < size <=     8192                   0                        0
      8192 < size <=    32768                 480                  9840600
     32768 < size <=   131072                 624                 79533360
    131072 < size <=  4194304             2641152            1141360348224
   4194304 < size <= 16777216                   0                        0
  16777216 < size                               0                        0
 -------------------------------------------------------------------------------

 *** WARNING in dbcsr_mm.F:294 :: Using a non-square number of MPI ranks ***
 *** might lead to poor performance. Used ranks: 24 Suggested: 25 49     ***

 -------------------------------------------------------------------------------
 -                                                                             -
 -                      DBCSR MESSAGE PASSING PERFORMANCE                      -
 -                                                                             -
 -------------------------------------------------------------------------------
 ROUTINE             CALLS      AVE VOLUME [Bytes]
 MP_Bcast              383                     12.
 MP_Allreduce        32106                     87.
 MP_Alltoall         19629                 225331.
 MP_ISend           268270                 206126.
 MP_IRecv           263382                 206874.
 -------------------------------------------------------------------------------

 -------------------------------------------------------------------------------
 -                                                                             -
 -                                GRID STATISTICS                              -
 -                                                                             -
 -------------------------------------------------------------------------------
 LP    KERNEL             BACKEND                              COUNT     PERCENT
 1     collocate ortho    REF                               98302932      24.57%
 1     integrate ortho    REF                               97522750      24.38%
 2     collocate ortho    REF                               52519824      13.13%
 2     integrate ortho    REF                               52103000      13.02%
 0     collocate ortho    REF                               49950936      12.49%
 0     integrate ortho    REF                               49554500      12.39%
 0     collocate general  REF                                  45696       0.01%
 0     integrate general  REF                                  45696       0.01%
 -------------------------------------------------------------------------------

 MEMORY| Estimated peak process memory [MiB]                                1731

 -------------------------------------------------------------------------------
 ----                             MULTIGRID INFO                            ----
 -------------------------------------------------------------------------------
 count for grid        1:         358076          cutoff [a.u.]          110.00
 count for grid        2:         291383          cutoff [a.u.]           36.67
 count for grid        3:         281879          cutoff [a.u.]           12.22
 count for grid        4:         161063          cutoff [a.u.]            4.07
 total gridlevel count  :        1092401

 -------------------------------------------------------------------------------
 -                                                                             -
 -                         MESSAGE PASSING PERFORMANCE                         -
 -                                                                             -
 -------------------------------------------------------------------------------

 ROUTINE             CALLS      AVE VOLUME [Bytes]
 MP_Group                4
 MP_Bcast            14693                  75267.
 MP_Allreduce        42172                   3169.
 MP_Sync               265
 MP_Alltoall          4652              110428408.
 MP_ISendRecv        23092                 533400.
 MP_Wait             39220
 MP_comm_split           2
 MP_ISend            12096                3370255.
 MP_IRecv            12096                3370255.
 MP_Recv               658                 601600.
 -------------------------------------------------------------------------------


 -------------------------------------------------------------------------------
 -                                                                             -
 -                           R E F E R E N C E S                               -
 -                                                                             -
 -------------------------------------------------------------------------------
 
 CP2K version 8.2, the CP2K developers group (2021).
 CP2K is freely available from https://www.cp2k.org/ .

 Kuehne,Thomas D.; Iannuzzi,Marcella; Del Ben,Mauro;
 Rybkin,Vladimir V.; Seewald,Patrick; Stein,Frederick; Laino,Teodoro;
 Khaliullin,Rustam Z.; Schuett,Ole; Schiffmann,Florian; Golze,Dorothea;
 Wilhelm,Jan; Chulkov,Sergey; Bani-Hashemian,Mohammad Hossein;
 Weber,Valery; Borstnik,Urban; Taillefumier,Mathieu;
 Jakobovits,Alice Shoshana; Lazzaro,Alfio; Pabst,Hans; Mueller,Tiziano;
 Schade,Robert; Guidon,Manuel; Andermatt,Samuel; Holmberg,Nico;
 Schenter,Gregory K.; Hehn,Anna; Bussy,Augustin; Belleflamme,Fabian;
 Tabacchi,Gloria; Gloess,Andreas; Lass,Michael; Bethune,Iain;
 Mundy,Christopher J.; Plessl,Christian; Watkins,Matt;
 VandeVondele,Joost; Krack,Matthias; Hutter,Juerg. 
 The Journal of Chemical Physics, 152 (19), (2020). 
 CP2K: An electronic structure and molecular dynamics software package -
 Quickstep: Efficient and accurate electronic structure calculations.
 https://doi.org/10.1063/5.0007045

 Goerigk, Lars; Hansen, Andreas; Bauer, Christoph; Ehrlich, Stephan;
 Najibi, Asim; Grimme, Stefan. , 19 (48), (2017). 
 A look at the density functional theory zoo with the advanced GMTKN55 database
 for general main group thermochemistry, kinetics and noncovalent interactions.
 https://doi.org/10.1039/C7CP04913G

 Schuett, Ole; Messmer, Peter; Hutter, Juerg; VandeVondele, Joost. 
 Electronic Structure Calculations on Graphics Processing Units, John
 Wiley & Sons, Ltd, 173-190 (2016). 
 GPU-Accelerated Sparse Matrix-Matrix Multiplication for
 Linear Scaling Density Functional Theory.
 https://doi.org/10.1002/9781118670712.ch8

 Heinecke, A; Henry, G; Hutchinson, M; Pabst, H. 
 Proceedings of Intl. Supercomputing Conference, 981-991 (2016). 
 LIBXSMM: Accelerating Small Matrix Multiplications
 by Runtime Code Generation.
 https://doi.org/10.1109/SC.2016.83

 Borstnik, U; VandeVondele, J; Weber, V; Hutter, J. 
 PARALLEL COMPUTING, 40 (5-6), 47-58 (2014). 
 Sparse matrix multiplication: The distributed block-compressed sparse
 row library.
 https://doi.org/10.1016/j.parco.2014.03.012

 Hutter, J; Iannuzzi, M; Schiffmann, F; VandeVondele, J. 
 WIREs Comput Mol Sci., 4 (1), 15-25 (2014). 
 CP2K: atomistic simulations of condensed matter systems.
 https://doi.org/10.1002/wcms.1159

 Grimme, S; Ehrlich, S; Goerigk, L. 
 JOURNAL OF COMPUTATIONAL CHEMISTRY, 32, 1456 (2011). 
 Effect of the damping function in dispersion corrected density functional theory.
 https://doi.org/10.1002/jcc.21759

 Grimme, S; Antony, J; Ehrlich, S; Krieg, H. 
 JOURNAL OF CHEMICAL PHYSICS, 132 (15), 154104 (2010). 
 A consistent and accurate ab initio parametrization of density
 functional dispersion correction (DFT-D) for the 94 elements H-Pu.
 https://doi.org/10.1063/1.3382344

 VandeVondele, J; Hutter, J. 
 JOURNAL OF CHEMICAL PHYSICS, 127 (11), 114105 (2007). 
 Gaussian basis sets for accurate calculations on molecular systems in
 gas and condensed phases.
 https://doi.org/10.1063/1.2770708

 Krack, M. 
 THEORETICAL CHEMISTRY ACCOUNTS, 114 (1-3), 145-152 (2005). 
 Pseudopotentials for H to Kr optimized for gradient-corrected
 exchange-correlation functionals.
 https://doi.org/10.1007/s00214-005-0655-y

 VandeVondele, J; Krack, M; Mohamed, F; Parrinello, M; Chassaing, T;
 Hutter, J. COMPUTER PHYSICS COMMUNICATIONS, 167 (2), 103-128 (2005). 
 QUICKSTEP: Fast and accurate density functional calculations using a
 mixed Gaussian and plane waves approach.
 https://doi.org/10.1016/j.cpc.2004.12.014

 Frigo, M; Johnson, SG. 
 PROCEEDINGS OF THE IEEE, 93 (2), 216-231 (2005). 
 The design and implementation of FFTW3.
 https://doi.org/10.1109/JPROC.2004.840301

 VandeVondele, J; Hutter, J. 
 JOURNAL OF CHEMICAL PHYSICS, 118 (10), 4365-4369 (2003). 
 An efficient orbital transformation method for electronic structure
 calculations.
 https://doi.org/10.1063/1.1543154

 Hartwigsen, C; Goedecker, S; Hutter, J. 
 PHYSICAL REVIEW B, 58 (7), 3641-3662 (1998). 
 Relativistic separable dual-space Gaussian pseudopotentials from H to Rn.
 https://doi.org/10.1103/PhysRevB.58.3641

 Lippert, G; Hutter, J; Parrinello, M. 
 MOLECULAR PHYSICS, 92 (3), 477-487 (1997). 
 A hybrid Gaussian and plane wave density functional scheme.
 https://doi.org/10.1080/002689797170220

 Perdew, JP; Burke, K; Ernzerhof, M. 
 PHYSICAL REVIEW LETTERS, 77 (18), 3865-3868 (1996). 
 Generalized gradient approximation made simple.
 https://doi.org/10.1103/PhysRevLett.77.3865

 Goedecker, S; Teter, M; Hutter, J. 
 PHYSICAL REVIEW B, 54 (3), 1703-1710 (1996). 
 Separable dual-space Gaussian pseudopotentials.
 https://doi.org/10.1103/PhysRevB.54.1703


 -------------------------------------------------------------------------------
 -                                                                             -
 -                                T I M I N G                                  -
 -                                                                             -
 -------------------------------------------------------------------------------
 SUBROUTINE                       CALLS  ASD         SELF TIME        TOTAL TIME
                                MAXIMUM       AVERAGE  MAXIMUM  AVERAGE  MAXIMUM
 CP2K                                 1  1.0    0.797    0.885 3590.032 3590.036
 qs_energies                          1  2.0    0.000    0.001 3584.519 3584.526
 scf_env_do_scf                       1  3.0    0.000    0.001 3567.163 3567.166
 scf_env_do_scf_inner_loop          125  4.0    0.004    0.024 3456.121 3456.150
 qs_ks_update_qs_env                127  5.0    0.002    0.002 1739.868 1740.188
 rebuild_ks_matrix                  125  6.0    0.001    0.001 1739.130 1739.450
 qs_ks_build_kohn_sham_matrix       125  7.0    0.028    0.031 1739.129 1739.449
 pw_transfer                       4386  9.7    0.406    0.510 1363.013 1496.180
 fft_wrap_pw1pw2                   4136 10.8    0.064    0.082 1358.408 1492.834
 fft_wrap_pw1pw2_110               2630 11.9  114.377  148.042 1283.524 1418.360
 qs_scf_new_mos                     125  5.0    0.001    0.001 1184.195 1184.391
 qs_scf_loop_do_ot                  125  6.0    0.001    0.002 1184.194 1184.390
 qs_vxc_create                      125  8.0    0.004    0.005 1171.839 1176.092
 xc_vxc_pw_create                   125  9.0   23.589   25.321 1171.834 1176.088
 ot_scf_mini                        125  7.0    0.005    0.006 1171.919 1172.063
 fft3d_ps                          4136 12.8  361.564  403.253  931.120 1092.193
 cp_dbcsr_syevd                     249  9.9    0.022    0.030  940.197  940.501
 cp_fm_syevd                        259 10.8    0.004    0.005  926.081  926.298
 qs_ot_get_p                        258  8.0    0.002    0.003  925.501  925.932
 cp_fm_syevd_base                   259 11.8  925.738  925.917  925.738  925.917
 qs_ot_p2m_diag                     241  9.0    2.306    2.667  888.633  889.514
 mp_alltoall_z22v                  4136 14.8  438.322  657.958  438.322  657.958
 xc_rho_set_and_dset_create         125 10.0    7.384   10.042  539.571  603.386
 qs_rho_update_rho                  126  5.0    0.001    0.002  570.208  570.311
 calculate_rho_elec                 252  6.0    3.701    3.840  570.207  570.309
 yz_to_x                           2009 13.1   62.340   69.322  314.571  477.729
 sum_up_and_integrate               125  8.0    2.456    3.595  465.459  465.516
 integrate_v_rspace                 250  9.0    0.011    0.014  463.002  463.841
 density_rs2pw                      252  7.0    0.016    0.026  385.598  411.954
 x_to_yz                           2127 14.4   68.782  103.042  254.873  301.463
 dbcsr_multiply_generic            5807 10.2    0.372    0.420  290.468  292.378
 potential_pw2rs                    250 10.0    0.202    0.271  239.553  240.609
 rs_pw_transfer                    2012  9.5    0.041    0.052  210.919  237.091
 grid_collocate_task_list           252  7.0  169.371  230.478  169.371  230.478
 xc_functional_eval                 125 11.0    0.002    0.002  158.070  221.167
 pbe_lsd_eval                       125 12.0  158.068  221.165  158.068  221.165
 ot_mini                            127  8.0    0.002    0.002  210.545  210.828
 grid_integrate_task_list           250 10.0  162.917  205.753  162.917  205.753
 pw_gather_p                       2009 12.1  180.768  191.511  180.768  191.511
 multiply_cannon                   5807 11.2    0.546    0.722  154.383  164.579
 qs_ot_get_derivative               252  9.0    0.003    0.004  161.121  161.375
 multiply_cannon_loop              5807 12.2    0.470    0.520  135.979  145.852
 pw_scatter_p                      2127 13.4  130.029  138.793  130.029  138.793
 mp_waitany                       12096 11.5  104.898  136.656  104.898  136.656
 rs_pw_transfer_RS2PW_110           254  9.0   23.150   26.692   94.940  126.029
 qs_ot_get_derivative_diag          237 10.0    0.009    0.011  120.793  120.977
 init_scf_loop                        2  4.0    0.000    0.000  111.012  111.024
 multiply_cannon_multrec          69684 13.2   99.494  108.548   99.544  108.600
 mp_waitall_1                    352316 14.2   75.552   92.803   75.552   92.803
 mp_alltoall_d11v                  4225 12.3   70.311   89.240   70.311   89.240
 rs_gather_matrices                 250 10.0    0.280    0.317   60.520   79.724
 prepare_preconditioner               2  5.0    0.000    0.000   77.081   77.094
 subspace_eigenvalues_ks_dbcsr        8  6.5    0.000    0.000   72.568   72.580
 -------------------------------------------------------------------------------

 The number of warnings for this run is : 2
 
 -------------------------------------------------------------------------------
  **** **** ******  **  PROGRAM ENDED AT                 2023-12-06 01:10:31.228
 ***** ** ***  *** **   PROGRAM RAN ON               milan14.int.triton.aalto.fi
 **    ****   ******    PROGRAM RAN BY                                   huangj4
 ***** **    ** ** **   PROGRAM PROCESS ID                                 46520
  **** **  *******  **  PROGRAM STOPPED IN /scratch/phys/sin/Jie/Github/cp2kTest
                                           /PDOSNaked234/Cluster_444
