 DBCSR| CPU Multiplication driver                                           XSMM
 DBCSR| Multrec recursion limit                                              512
 DBCSR| Multiplication stack size                                           1000
 DBCSR| Maximum elements for images                                    UNLIMITED
 DBCSR| Multiplicative factor virtual images                                   1
 DBCSR| Use multiplication densification                                       T
 DBCSR| Multiplication size stacks                                             3
 DBCSR| Use memory pool for CPU allocation                                     F
 DBCSR| Number of 3D layers                                               SINGLE
 DBCSR| Use MPI memory allocation                                              F
 DBCSR| Use RMA algorithm                                                      F
 DBCSR| Use Communication thread                                               T
 DBCSR| Communication thread load                                             87
 DBCSR| MPI: My node id                                                        0
 DBCSR| MPI: Number of nodes                                                  48
 DBCSR| OMP: Current number of threads                                         1
 DBCSR| OMP: Max number of threads                                             1
 DBCSR| Split modifier for TAS multiplication algorithm                  1.0E+00


  **** **** ******  **  PROGRAM STARTED AT               2023-12-08 17:15:56.091
 ***** ** ***  *** **   PROGRAM STARTED ON           milan19.int.triton.aalto.fi
 **    ****   ******    PROGRAM STARTED BY                               huangj4
 ***** **    ** ** **   PROGRAM PROCESS ID                                   311
  **** **  *******  **  PROGRAM STARTED IN /scratch/phys/sin/Jie/Github/cp2kTest
                                           /PDOSNaked234/Cluster_444

 CP2K| version string:                                          CP2K version 8.2
 CP2K| source code revision number:                                  git:310b7ab
 CP2K| cp2kflags: omp libint fftw3 libxc parallel mpi3 scalapack xsmm           
 CP2K| is freely available from                            https://www.cp2k.org/
 CP2K| Program compiled at                          Thu May 12 10:08:29 UTC 2022
 CP2K| Program compiled on                                          80d7174ae3e8
 CP2K| Program compiled for                            linux-centos7-haswell-gcc
 CP2K| Data directory path    /share/apps/spack/envs/fgci-centos7-haswell/softwa
 CP2K| Input file name                                                 input.inp

 GLOBAL| Force Environment number                                              1
 GLOBAL| Basis set file name                                        BASIS_MOLOPT
 GLOBAL| Potential file name                                      GTH_POTENTIALS
 GLOBAL| MM Potential file name                                     MM_POTENTIAL
 GLOBAL| Coordinate file name                                MAPbI3-pos-last.xyz
 GLOBAL| Method name                                                        CP2K
 GLOBAL| Project name                                                 MAPbI3_DOS
 GLOBAL| Run type                                                         ENERGY
 GLOBAL| FFT library                                                       FFTW3
 GLOBAL| Diagonalization library                                       ScaLAPACK
 GLOBAL| Orthonormality check for eigenvectors                          DISABLED
 GLOBAL| Matrix multiplication library                                    SCALAP
 GLOBAL| All-to-all communication in single precision                          F
 GLOBAL| FFTs using library dependent lengths                                  F
 GLOBAL| Grid backend                                                       AUTO
 GLOBAL| Global print level                                               MEDIUM
 GLOBAL| MPI I/O enabled                                                       T
 GLOBAL| Total number of message passing processes                            48
 GLOBAL| Number of threads for this process                                    1
 GLOBAL| This output is from process                                           0
 GLOBAL| CPU model name                          AMD EPYC 7713 64-Core Processor
 GLOBAL| CPUID                                                              1002

 MEMORY| system memory details [Kb]
 MEMORY|                        rank 0           min           max       average
 MEMORY| MemTotal            528041892     528041892     528041892     528041892
 MEMORY| MemFree             435278612     419365144     435316064     427338620
 MEMORY| Buffers                289192             0        289192        144596
 MEMORY| Cached               13192260      10970740      13194000      12081919
 MEMORY| Slab                  8576068       6484132       8576396       7530162
 MEMORY| SReclaimable          1344500       1344500       1467728       1406139
 MEMORY| MemLikelyFree       450104564     431803612     450143916     440971275


 *** Fundamental physical constants (SI units) ***

 *** Literature: B. J. Mohr and B. N. Taylor,
 ***             CODATA recommended values of the fundamental physical
 ***             constants: 2006, Web Version 5.1
 ***             http://physics.nist.gov/constants

 Speed of light in vacuum [m/s]                             2.99792458000000E+08
 Magnetic constant or permeability of vacuum [N/A**2]       1.25663706143592E-06
 Electric constant or permittivity of vacuum [F/m]          8.85418781762039E-12
 Planck constant (h) [J*s]                                  6.62606896000000E-34
 Planck constant (h-bar) [J*s]                              1.05457162825177E-34
 Elementary charge [C]                                      1.60217648700000E-19
 Electron mass [kg]                                         9.10938215000000E-31
 Electron g factor [ ]                                     -2.00231930436220E+00
 Proton mass [kg]                                           1.67262163700000E-27
 Fine-structure constant                                    7.29735253760000E-03
 Rydberg constant [1/m]                                     1.09737315685270E+07
 Avogadro constant [1/mol]                                  6.02214179000000E+23
 Boltzmann constant [J/K]                                   1.38065040000000E-23
 Atomic mass unit [kg]                                      1.66053878200000E-27
 Bohr radius [m]                                            5.29177208590000E-11

 *** Conversion factors ***

 [u] -> [a.u.]                                              1.82288848426455E+03
 [Angstrom] -> [Bohr] = [a.u.]                              1.88972613288564E+00
 [a.u.] = [Bohr] -> [Angstrom]                              5.29177208590000E-01
 [a.u.] -> [s]                                              2.41888432650478E-17
 [a.u.] -> [fs]                                             2.41888432650478E-02
 [a.u.] -> [J]                                              4.35974393937059E-18
 [a.u.] -> [N]                                              8.23872205491840E-08
 [a.u.] -> [K]                                              3.15774647902944E+05
 [a.u.] -> [kJ/mol]                                         2.62549961709828E+03
 [a.u.] -> [kcal/mol]                                       6.27509468713739E+02
 [a.u.] -> [Pa]                                             2.94210107994716E+13
 [a.u.] -> [bar]                                            2.94210107994716E+08
 [a.u.] -> [atm]                                            2.90362800883016E+08
 [a.u.] -> [eV]                                             2.72113838565563E+01
 [a.u.] -> [Hz]                                             6.57968392072181E+15
 [a.u.] -> [1/cm] (wave numbers)                            2.19474631370540E+05
 [a.u./Bohr**2] -> [1/cm]                                   5.14048714338585E+03
 

 CELL_TOP| Volume [angstrom^3]:                                     90738.965184
 CELL_TOP| Vector a [angstrom    45.640     0.000     0.000   |a| =    45.640000
 CELL_TOP| Vector b [angstrom     0.000    44.940     0.000   |b| =    44.940000
 CELL_TOP| Vector c [angstrom     0.000     0.000    44.240   |c| =    44.240000
 CELL_TOP| Angle (b,c), alpha [degree]:                                90.000000
 CELL_TOP| Angle (a,c), beta  [degree]:                                90.000000
 CELL_TOP| Angle (a,b), gamma [degree]:                                90.000000
 CELL_TOP| Numerically orthorhombic:                                         YES

 GENERATE|  Preliminary Number of Bonds generated:                             0
 GENERATE|  Achieved consistency in connectivity generation.

 CELL| Volume [angstrom^3]:                                         90738.965184
 CELL| Vector a [angstrom]:      45.640     0.000     0.000   |a| =    45.640000
 CELL| Vector b [angstrom]:       0.000    44.940     0.000   |b| =    44.940000
 CELL| Vector c [angstrom]:       0.000     0.000    44.240   |c| =    44.240000
 CELL| Angle (b,c), alpha [degree]:                                    90.000000
 CELL| Angle (a,c), beta  [degree]:                                    90.000000
 CELL| Angle (a,b), gamma [degree]:                                    90.000000
 CELL| Numerically orthorhombic:                                             YES

 CELL_REF| Volume [angstrom^3]:                                     90738.965184
 CELL_REF| Vector a [angstrom    45.640     0.000     0.000   |a| =    45.640000
 CELL_REF| Vector b [angstrom     0.000    44.940     0.000   |b| =    44.940000
 CELL_REF| Vector c [angstrom     0.000     0.000    44.240   |c| =    44.240000
 CELL_REF| Angle (b,c), alpha [degree]:                                90.000000
 CELL_REF| Angle (a,c), beta  [degree]:                                90.000000
 CELL_REF| Angle (a,b), gamma [degree]:                                90.000000
 CELL_REF| Numerically orthorhombic:                                         YES

 *******************************************************************************
 *******************************************************************************
 **                                                                           **
 **     #####                         ##              ##                      **
 **    ##   ##            ##          ##              ##                      **
 **   ##     ##                       ##            ######                    **
 **   ##     ##  ##   ##  ##   #####  ##  ##   ####   ##    #####    #####    **
 **   ##     ##  ##   ##  ##  ##      ## ##   ##      ##   ##   ##  ##   ##   **
 **   ##  ## ##  ##   ##  ##  ##      ####     ###    ##   ######   ######    **
 **    ##  ###   ##   ##  ##  ##      ## ##      ##   ##   ##       ##        **
 **     #######   #####   ##   #####  ##  ##  ####    ##    #####   ##        **
 **           ##                                                    ##        **
 **                                                                           **
 **                                                ... make the atoms dance   **
 **                                                                           **
 **            Copyright (C) by CP2K developers group (2000-2021)             **
 **                      J. Chem. Phys. 152, 194103 (2020)                    **
 **                                                                           **
 *******************************************************************************

 DFT| Spin unrestricted (spin-polarized) Kohn-Sham calculation               UKS
 DFT| Multiplicity                                                             2
 DFT| Number of spin states                                                    2
 DFT| Charge                                                                   0
 DFT| Self-interaction correction (SIC)                                       NO
 DFT| Cutoffs: density                                              1.000000E-10
 DFT|          gradient                                             1.000000E-10
 DFT|          tau                                                  1.000000E-10
 DFT|          cutoff_smoothing_range                               0.000000E+00
 DFT| XC density smoothing                                                  NONE
 DFT| XC derivatives                                                          PW
 FUNCTIONAL| ROUTINE=NEW
 FUNCTIONAL| PBE:
 FUNCTIONAL| J.P.Perdew, K.Burke, M.Ernzerhof, Phys. Rev. Letter, vol. 77, n 18,
 FUNCTIONAL|  pp. 3865-3868, (1996){spin polarized}                             
 vdW POTENTIAL|                                                   Pair Potential
 vdW POTENTIAL|          DFT-D3 (Version 3.1)
 vdW POTENTIAL|          Potential Form: S. Grimme et al, JCP 132: 154104 (2010)
 vdW POTENTIAL|          Zero Damping
 vdW POTENTIAL|          Cutoff Radius [Bohr]:                             20.00
 vdW POTENTIAL|          s6 Scaling Factor:                               1.0000
 vdW POTENTIAL|          sr6 Scaling Factor:                              1.2170
 vdW POTENTIAL|          s8 Scaling Factor:                               0.7220
 vdW POTENTIAL|          Cutoff for CN calculation:                   0.1000E-05

 QS| Method:                                                                 GPW
 QS| Density plane wave grid type                        NON-SPHERICAL FULLSPACE
 QS| Number of grid levels:                                                    4
 QS| Density cutoff [a.u.]:                                                110.0
 QS| Multi grid cutoff [a.u.]: 1) grid level                               110.0
 QS|                           2) grid level                                36.7
 QS|                           3) grid level                                12.2
 QS|                           4) grid level                                 4.1
 QS| Grid level progression factor:                                          3.0
 QS| Relative density cutoff [a.u.]:                                        30.0
 QS| Interaction thresholds: eps_pgf_orb:                                1.0E-05
 QS|                         eps_filter_matrix:                          0.0E+00
 QS|                         eps_core_charge:                            1.0E-12
 QS|                         eps_rho_gspace:                             1.0E-10
 QS|                         eps_rho_rspace:                             1.0E-10
 QS|                         eps_gvg_rspace:                             1.0E-05
 QS|                         eps_ppl:                                    1.0E-02
 QS|                         eps_ppnl:                                   1.0E-07


 ATOMIC KIND INFORMATION

  1. Atomic kind: I                                     Number of atoms:     240

     Orbital Basis Set                                         SZV-MOLOPT-SR-GTH

       Number of orbital shell sets:                                           1
       Number of orbital shells:                                               2
       Number of primitive Cartesian functions:                                5
       Number of Cartesian basis functions:                                    4
       Number of spherical basis functions:                                    4
       Norm type:                                                              2

       Normalised Cartesian orbitals:

                        Set   Shell   Orbital            Exponent    Coefficient

                          1       1    2s                0.966173      -0.369082
                                                         0.828886      -0.032154
                                                         0.367159       0.255166
                                                         0.201369       0.106471
                                                         0.083015       0.018311

                          1       2    3px               0.966173      -1.009678
                                                         0.828886       0.783764
                                                         0.367159       0.107863
                                                         0.201369       0.101262
                                                         0.083015       0.016495
                          1       2    3py               0.966173      -1.009678
                                                         0.828886       0.783764
                                                         0.367159       0.107863
                                                         0.201369       0.101262
                                                         0.083015       0.016495
                          1       2    3pz               0.966173      -1.009678
                                                         0.828886       0.783764
                                                         0.367159       0.107863
                                                         0.201369       0.101262
                                                         0.083015       0.016495

       Atomic covalent radius [Angstrom]:                                  1.330

       Atomic van der Waals radius [Angstrom]:                             1.980

     GTH Potential information for                                       GTH-PBE

       Description:                       Goedecker-Teter-Hutter pseudopotential
                                           Goedecker et al., PRB 54, 1703 (1996)
                                          Hartwigsen et al., PRB 58, 3641 (1998)
                                                      Krack, TCA 114, 145 (2005)

       Gaussian exponent of the core charge distribution:               1.594388
       Electronic configuration (s p d ...):                               2   5

       Parameters of the local part of the GTH pseudopotential:

                          rloc        C1          C2          C3          C4
                        0.560000    8.207102

       Parameters of the non-local part of the GTH pseudopotential:

                   l      r(l)      h(i,j,l)

                   0    0.531928    2.308146    1.003909   -0.959156
                                    1.003909   -2.856109    2.476530
                                   -0.959156    2.476530   -1.965685
                   1    0.589182    0.906482    0.425071
                                    0.425071   -0.502950
                   2    0.739721    0.479195

  2. Atomic kind: Pb                                    Number of atoms:      64

     Orbital Basis Set                                         SZV-MOLOPT-SR-GTH

       Number of orbital shell sets:                                           1
       Number of orbital shells:                                               2
       Number of primitive Cartesian functions:                                5
       Number of Cartesian basis functions:                                    4
       Number of spherical basis functions:                                    4
       Norm type:                                                              2

       Normalised Cartesian orbitals:

                        Set   Shell   Orbital            Exponent    Coefficient

                          1       1    2s                1.933598      -0.156134
                                                         0.981425       0.419979
                                                         0.222223      -0.230246
                                                         0.077759      -0.022545
                                                         0.073968      -0.008640

                          1       2    3px               1.933598       0.064608
                                                         0.981425      -0.243154
                                                         0.222223       0.142297
                                                         0.077759       0.018505
                                                         0.073968       0.009435
                          1       2    3py               1.933598       0.064608
                                                         0.981425      -0.243154
                                                         0.222223       0.142297
                                                         0.077759       0.018505
                                                         0.073968       0.009435
                          1       2    3pz               1.933598       0.064608
                                                         0.981425      -0.243154
                                                         0.222223       0.142297
                                                         0.077759       0.018505
                                                         0.073968       0.009435

       Atomic covalent radius [Angstrom]:                                  1.470

       Atomic van der Waals radius [Angstrom]:                             2.020

     GTH Potential information for                                       GTH-PBE

       Description:                       Goedecker-Teter-Hutter pseudopotential
                                           Goedecker et al., PRB 54, 1703 (1996)
                                          Hartwigsen et al., PRB 58, 3641 (1998)
                                                      Krack, TCA 114, 145 (2005)

       Gaussian exponent of the core charge distribution:               1.311282
       Electronic configuration (s p d ...):                               2   2

       Parameters of the local part of the GTH pseudopotential:

                          rloc        C1          C2          C3          C4
                        0.617500    4.672384

       Parameters of the non-local part of the GTH pseudopotential:

                   l      r(l)      h(i,j,l)

                   0    0.622359    0.879918    2.081148   -1.431257
                                    2.081148   -5.014690    3.695490
                                   -1.431257    3.695490   -2.933204
                   1    0.812002    0.153457    0.478898
                                    0.478898   -0.566640
                   2    1.025015    0.301702

  3. Atomic kind: C                                     Number of atoms:      81

     Orbital Basis Set                                            SZV-MOLOPT-GTH

       Number of orbital shell sets:                                           1
       Number of orbital shells:                                               2
       Number of primitive Cartesian functions:                                7
       Number of Cartesian basis functions:                                    4
       Number of spherical basis functions:                                    4
       Norm type:                                                              2

       Normalised Cartesian orbitals:

                        Set   Shell   Orbital            Exponent    Coefficient

                          1       1    2s                6.132625      -0.263661
                                                         2.625196      -0.231112
                                                         1.045457       0.042712
                                                         0.478316       0.306085
                                                         0.178617       0.065483
                                                         0.075145       0.000568
                                                         0.030287       0.000417

                          1       2    3px               6.132625       0.562677
                                                         2.625196       0.633910
                                                         1.045457       0.379157
                                                         0.478316       0.235193
                                                         0.178617       0.052379
                                                         0.075145       0.003677
                                                         0.030287       0.000105
                          1       2    3py               6.132625       0.562677
                                                         2.625196       0.633910
                                                         1.045457       0.379157
                                                         0.478316       0.235193
                                                         0.178617       0.052379
                                                         0.075145       0.003677
                                                         0.030287       0.000105
                          1       2    3pz               6.132625       0.562677
                                                         2.625196       0.633910
                                                         1.045457       0.379157
                                                         0.478316       0.235193
                                                         0.178617       0.052379
                                                         0.075145       0.003677
                                                         0.030287       0.000105

       Atomic covalent radius [Angstrom]:                                  0.770

       Atomic van der Waals radius [Angstrom]:                             1.700

     GTH Potential information for                                       GTH-PBE

       Description:                       Goedecker-Teter-Hutter pseudopotential
                                           Goedecker et al., PRB 54, 1703 (1996)
                                          Hartwigsen et al., PRB 58, 3641 (1998)
                                                      Krack, TCA 114, 145 (2005)

       Gaussian exponent of the core charge distribution:               4.364419
       Electronic configuration (s p d ...):                               2   2

       Parameters of the local part of the GTH pseudopotential:

                          rloc        C1          C2          C3          C4
                        0.338471   -8.803674    1.339211

       Parameters of the non-local part of the GTH pseudopotential:

                   l      r(l)      h(i,j,l)

                   0    0.302576    9.622487
                   1    0.291507

  4. Atomic kind: N                                     Number of atoms:      81

     Orbital Basis Set                                            SZV-MOLOPT-GTH

       Number of orbital shell sets:                                           1
       Number of orbital shells:                                               2
       Number of primitive Cartesian functions:                                7
       Number of Cartesian basis functions:                                    4
       Number of spherical basis functions:                                    4
       Norm type:                                                              2

       Normalised Cartesian orbitals:

                        Set   Shell   Orbital            Exponent    Coefficient

                          1       1    2s                9.042730      -0.237404
                                                         3.882225      -0.265910
                                                         1.512880       0.102064
                                                         0.586631       0.295369
                                                         0.222851       0.088647
                                                         0.084583       0.003860
                                                         0.039194       0.000722

                          1       2    3px               9.042730       0.822162
                                                         3.882225       0.990771
                                                         1.512880       0.665657
                                                         0.586631       0.321705
                                                         0.222851       0.063706
                                                         0.084583       0.004155
                                                         0.039194      -0.000005
                          1       2    3py               9.042730       0.822162
                                                         3.882225       0.990771
                                                         1.512880       0.665657
                                                         0.586631       0.321705
                                                         0.222851       0.063706
                                                         0.084583       0.004155
                                                         0.039194      -0.000005
                          1       2    3pz               9.042730       0.822162
                                                         3.882225       0.990771
                                                         1.512880       0.665657
                                                         0.586631       0.321705
                                                         0.222851       0.063706
                                                         0.084583       0.004155
                                                         0.039194      -0.000005

       Atomic covalent radius [Angstrom]:                                  0.750

       Atomic van der Waals radius [Angstrom]:                             1.550

     GTH Potential information for                                       GTH-PBE

       Description:                       Goedecker-Teter-Hutter pseudopotential
                                           Goedecker et al., PRB 54, 1703 (1996)
                                          Hartwigsen et al., PRB 58, 3641 (1998)
                                                      Krack, TCA 114, 145 (2005)

       Gaussian exponent of the core charge distribution:               6.208322
       Electronic configuration (s p d ...):                               2   3

       Parameters of the local part of the GTH pseudopotential:

                          rloc        C1          C2          C3          C4
                        0.283791  -12.415226    1.868096

       Parameters of the non-local part of the GTH pseudopotential:

                   l      r(l)      h(i,j,l)

                   0    0.255405   13.630263
                   1    0.245495

  5. Atomic kind: H                                     Number of atoms:     486

     Orbital Basis Set                                            SZV-MOLOPT-GTH

       Number of orbital shell sets:                                           1
       Number of orbital shells:                                               1
       Number of primitive Cartesian functions:                                7
       Number of Cartesian basis functions:                                    1
       Number of spherical basis functions:                                    1
       Norm type:                                                              2

       Normalised Cartesian orbitals:

                        Set   Shell   Orbital            Exponent    Coefficient

                          1       1    2s               11.478000       0.129129
                                                         3.700759       0.177012
                                                         1.446884       0.141285
                                                         0.716815       0.245670
                                                         0.247919       0.094768
                                                         0.066918       0.004062
                                                         0.021708      -0.000053

       Atomic covalent radius [Angstrom]:                                  0.320

       Atomic van der Waals radius [Angstrom]:                             1.090

     GTH Potential information for                                    GTH-PBE-q1

       Description:                       Goedecker-Teter-Hutter pseudopotential
                                           Goedecker et al., PRB 54, 1703 (1996)
                                          Hartwigsen et al., PRB 58, 3641 (1998)
                                                      Krack, TCA 114, 145 (2005)

       Gaussian exponent of the core charge distribution:              12.500000
       Electronic configuration (s p d ...):                                   1

       Parameters of the local part of the GTH pseudopotential:

                          rloc        C1          C2          C3          C4
                        0.200000   -4.178900    0.724463


 MOLECULE KIND INFORMATION


 All atoms are their own molecule, skipping detailed information


 TOTAL NUMBERS AND MAXIMUM NUMBERS

  Total number of            - Atomic kinds:                                   5
                             - Atoms:                                        952
                             - Shell sets:                                   952
                             - Shells:                                      1418
                             - Primitive Cartesian functions:               6056
                             - Cartesian basis functions:                   2350
                             - Spherical basis functions:                   2350

  Maximum angular momentum of- Orbital basis functions:                        1
                             - Local part of the GTH pseudopotential:          2
                             - Non-local part of the GTH pseudopotential:      4


 MODULE QUICKSTEP:  ATOMIC COORDINATES IN angstrom

  Atom  Kind  Element       X           Y           Z          Z(eff)       Mass

       1     1 I   53   12.243052   12.765428    9.040520      7.0000     126.9045
       2     1 I   53   19.141874   13.440421    8.971475      7.0000     126.9045
       3     1 I   53   25.003591   12.930442    9.202071      7.0000     126.9045
       4     1 I   53   30.981975   13.491101    9.038762      7.0000     126.9045
       5     1 I   53   12.911705   19.382861    8.831833      7.0000     126.9045
       6     1 I   53   18.660315   19.181368    8.909416      7.0000     126.9045
       7     1 I   53   25.080377   19.174510    9.071766      7.0000     126.9045
       8     1 I   53   30.841604   19.307806    9.109241      7.0000     126.9045
       9     1 I   53   12.703961   25.577161    9.079356      7.0000     126.9045
      10     1 I   53   18.527092   25.542037    8.999658      7.0000     126.9045
      11     1 I   53   24.948779   25.396693    8.987626      7.0000     126.9045
      12     1 I   53   30.687611   25.506921    9.186065      7.0000     126.9045
      13     1 I   53   12.059793   31.986211    9.203818      7.0000     126.9045
      14     1 I   53   19.384528   31.873050    9.165251      7.0000     126.9045
      15     1 I   53   24.802124   31.812145    9.075236      7.0000     126.9045
      16     1 I   53   30.724470   31.527591    9.051774      7.0000     126.9045
      17     1 I   53   12.569412    9.340875   12.375963      7.0000     126.9045
      18     1 I   53   18.585601    9.565595   13.049094      7.0000     126.9045
      19     1 I   53   24.737178    9.529625   12.845926      7.0000     126.9045
      20     1 I   53   31.505297    9.897074   12.271862      7.0000     126.9045
      21     1 I   53    9.690740   11.501204   12.544530      7.0000     126.9045
      22     1 I   53   12.529127   12.907589   15.550476      7.0000     126.9045
      23     1 I   53   11.727969   15.986078   12.015895      7.0000     126.9045
      24     1 I   53   15.686554   12.500659   11.533559      7.0000     126.9045
      25     1 I   53   18.490408   11.790837   15.412836      7.0000     126.9045
      26     1 I   53   18.078834   15.970700   12.688210      7.0000     126.9045
      27     1 I   53   21.941221   13.189813   12.550515      7.0000     126.9045
      28     1 I   53   25.241630   12.924725   15.721739      7.0000     126.9045
      29     1 I   53   25.744938   16.006284   12.373319      7.0000     126.9045
      30     1 I   53   28.263817   12.457968   12.410057      7.0000     126.9045
      31     1 I   53   31.066192   12.977057   15.710932      7.0000     126.9045
      32     1 I   53   30.777068   16.198423   12.721919      7.0000     126.9045
      33     1 I   53   34.644589   13.822584   12.290991      7.0000     126.9045
      34     1 I   53    8.974224   19.075121   13.747334      7.0000     126.9045
      35     1 I   53   12.315517   18.951137   15.313763      7.0000     126.9045
      36     1 I   53   11.696857   22.192597   12.036424      7.0000     126.9045
      37     1 I   53   15.784850   19.909018   12.276594      7.0000     126.9045
      38     1 I   53   18.732433   19.111490   15.434354      7.0000     126.9045
      39     1 I   53   19.641668   22.310486   12.240170      7.0000     126.9045
      40     1 I   53   22.073251   18.283930   12.239145      7.0000     126.9045
      41     1 I   53   25.019636   19.079958   15.579779      7.0000     126.9045
      42     1 I   53   24.510902   22.334270   12.505758      7.0000     126.9045
      43     1 I   53   28.384484   19.858636   12.597506      7.0000     126.9045
      44     1 I   53   31.546689   19.264243   15.597640      7.0000     126.9045
      45     1 I   53   31.902693   22.415800   12.415699      7.0000     126.9045
      46     1 I   53   34.969428   19.248957   12.509145      7.0000     126.9045
      47     1 I   53    9.249549   25.631812   12.442270      7.0000     126.9045
      48     1 I   53   12.492866   25.423101   15.546026      7.0000     126.9045
      49     1 I   53   12.709704   28.709956   12.412531      7.0000     126.9045
      50     1 I   53   15.707620   24.632130   12.313601      7.0000     126.9045
      51     1 I   53   18.733136   25.407373   15.510625      7.0000     126.9045
      52     1 I   53   17.897950   28.714640   12.262852      7.0000     126.9045
      53     1 I   53   21.983626   26.257049   12.213776      7.0000     126.9045
      54     1 I   53   24.926175   25.441642   15.535031      7.0000     126.9045
      55     1 I   53   25.918642   28.715048   12.142342      7.0000     126.9045
      56     1 I   53   28.285562   24.838667   12.744207      7.0000     126.9045
      57     1 I   53   31.589716   25.579096   15.633838      7.0000     126.9045
      58     1 I   53   31.067832   28.771188   12.446473      7.0000     126.9045
      59     1 I   53   34.737096   25.637156   12.224521      7.0000     126.9045
      60     1 I   53    9.180819   31.962062   12.669978      7.0000     126.9045
      61     1 I   53   12.408502   31.775596   15.751358      7.0000     126.9045
      62     1 I   53   12.259179   35.323592   12.656572      7.0000     126.9045
      63     1 I   53   15.720195   32.659891   11.754327      7.0000     126.9045
      64     1 I   53   18.707677   31.564928   15.622493      7.0000     126.9045
      65     1 I   53   19.155117   35.199721   13.006192      7.0000     126.9045
      66     1 I   53   21.983558   31.181734   12.604925      7.0000     126.9045
      67     1 I   53   25.226526   31.599526   15.635758      7.0000     126.9045
      68     1 I   53   24.599057   35.374575   12.816839      7.0000     126.9045
      69     1 I   53   28.162058   32.452843   12.389321      7.0000     126.9045
      70     1 I   53   31.254217   31.527419   15.596403      7.0000     126.9045
      71     1 I   53   30.982020   35.412389   12.877795      7.0000     126.9045
      72     1 I   53   34.634881   31.715759   12.254881      7.0000     126.9045
      73     1 I   53   12.800675    9.616688   19.141196      7.0000     126.9045
      74     1 I   53   18.765824    9.324834   19.225649      7.0000     126.9045
      75     1 I   53   24.905290    9.365384   19.187928      7.0000     126.9045
      76     1 I   53   31.180888    9.770515   18.953424      7.0000     126.9045
      77     1 I   53    9.508589   13.292228   18.886739      7.0000     126.9045
      78     1 I   53   12.742575   12.950781   21.990257      7.0000     126.9045
      79     1 I   53   13.022695   16.014011   18.875879      7.0000     126.9045
      80     1 I   53   15.822635   12.654718   18.508081      7.0000     126.9045
      81     1 I   53   19.078344   12.898168   21.948439      7.0000     126.9045
      82     1 I   53   18.624588   15.869677   18.841296      7.0000     126.9045
      83     1 I   53   22.068946   12.953680   18.404676      7.0000     126.9045
      84     1 I   53   24.651711   12.702492   22.133974      7.0000     126.9045
      85     1 I   53   25.537416   15.885445   19.028484      7.0000     126.9045
      86     1 I   53   28.429555   12.682316   19.256628      7.0000     126.9045
      87     1 I   53   31.853761   12.985741   22.172251      7.0000     126.9045
      88     1 I   53   31.777937   15.873435   18.890106      7.0000     126.9045
      89     1 I   53   36.154118   14.148165   19.079460      7.0000     126.9045
      90     1 I   53    9.225936   18.697516   18.546728      7.0000     126.9045
      91     1 I   53   12.643045   19.098861   21.952633      7.0000     126.9045
      92     1 I   53   11.977591   22.339533   18.888965      7.0000     126.9045
      93     1 I   53   15.709946   19.584814   18.481376      7.0000     126.9045
      94     1 I   53   18.912635   19.099136   21.918549      7.0000     126.9045
      95     1 I   53   19.420745   22.294220   18.803050      7.0000     126.9045
      96     1 I   53   22.146905   18.660144   18.663442      7.0000     126.9045
      97     1 I   53   25.265308   19.084189   21.998805      7.0000     126.9045
      98     1 I   53   25.031940   22.298176   18.995034      7.0000     126.9045
      99     1 I   53   28.644685   19.245894   18.658476      7.0000     126.9045
     100     1 I   53   31.747836   19.175445   21.992627      7.0000     126.9045
     101     1 I   53   32.001333   22.295340   18.769502      7.0000     126.9045
     102     1 I   53   35.404239   19.016063   18.658365      7.0000     126.9045
     103     1 I   53    9.261250   25.995657   18.588926      7.0000     126.9045
     104     1 I   53   12.552675   25.384240   21.993132      7.0000     126.9045
     105     1 I   53   12.823422   28.766101   18.993580      7.0000     126.9045
     106     1 I   53   15.758502   25.072271   18.684566      7.0000     126.9045
     107     1 I   53   18.866185   25.350991   21.966217      7.0000     126.9045
     108     1 I   53   18.602375   28.721300   19.018379      7.0000     126.9045
     109     1 I   53   22.170718   26.001896   18.752260      7.0000     126.9045
     110     1 I   53   25.305438   25.454696   21.975853      7.0000     126.9045
     111     1 I   53   25.783176   28.745355   18.797321      7.0000     126.9045
     112     1 I   53   28.604838   25.163996   18.607288      7.0000     126.9045
     113     1 I   53   31.586809   25.251230   21.975996      7.0000     126.9045
     114     1 I   53   31.391634   28.707138   19.177606      7.0000     126.9045
     115     1 I   53   35.430069   25.328472   18.612801      7.0000     126.9045
     116     1 I   53    9.294653   31.746166   19.010278      7.0000     126.9045
     117     1 I   53   13.057903   31.552186   22.075323      7.0000     126.9045
     118     1 I   53   12.469159   35.651223   19.261626      7.0000     126.9045
     119     1 I   53   15.739276   32.199266   18.695960      7.0000     126.9045
     120     1 I   53   18.785490   31.601686   22.084201      7.0000     126.9045
     121     1 I   53   18.600749   35.428189   19.003762      7.0000     126.9045
     122     1 I   53   22.202158   31.815270   18.886679      7.0000     126.9045
     123     1 I   53   25.262307   31.526598   22.053532      7.0000     126.9045
     124     1 I   53   25.072187   35.362129   19.078395      7.0000     126.9045
     125     1 I   53   28.759896   32.628368   18.908307      7.0000     126.9045
     126     1 I   53   32.241780   32.168902   21.924797      7.0000     126.9045
     127     1 I   53   30.754735   36.802538   20.554238      7.0000     126.9045
     128     1 I   53   35.551231   30.666094   18.969820      7.0000     126.9045
     129     1 I   53   13.412955    9.408862   24.878864      7.0000     126.9045
     130     1 I   53   18.756140    9.411309   25.456413      7.0000     126.9045
     131     1 I   53   25.700426    9.438255   25.277076      7.0000     126.9045
     132     1 I   53   30.824815    9.590488   25.491944      7.0000     126.9045
     133     1 I   53    9.675292   13.269677   25.064253      7.0000     126.9045
     134     1 I   53   12.846299   12.610676   28.410308      7.0000     126.9045
     135     1 I   53   12.540697   15.911826   25.518832      7.0000     126.9045
     136     1 I   53   16.067834   13.255982   24.944867      7.0000     126.9045
     137     1 I   53   18.780578   12.870795   28.438887      7.0000     126.9045
     138     1 I   53   19.701825   15.900466   25.150454      7.0000     126.9045
     139     1 I   53   22.385140   12.197602   25.700998      7.0000     126.9045
     140     1 I   53   26.022522   13.022717   28.371477      7.0000     126.9045
     141     1 I   53   25.108686   15.931828   25.371191      7.0000     126.9045
     142     1 I   53   28.606909   13.108471   24.500175      7.0000     126.9045
     143     1 I   53   31.336807   13.130957   28.352020      7.0000     126.9045
     144     1 I   53   32.037518   15.951824   25.336171      7.0000     126.9045
     145     1 I   53   35.754419   13.379466   24.892163      7.0000     126.9045
     146     1 I   53    9.758286   19.405401   25.406795      7.0000     126.9045
     147     1 I   53   12.959886   19.087321   28.488201      7.0000     126.9045
     148     1 I   53   13.190064   22.281030   25.298712      7.0000     126.9045
     149     1 I   53   16.105631   18.617028   25.030910      7.0000     126.9045
     150     1 I   53   19.136788   19.099217   28.406207      7.0000     126.9045
     151     1 I   53   18.675443   22.282181   25.375250      7.0000     126.9045
     152     1 I   53   22.432953   19.698827   25.113337      7.0000     126.9045
     153     1 I   53   25.471114   19.176793   28.428992      7.0000     126.9045
     154     1 I   53   26.144801   22.278504   25.103177      7.0000     126.9045
     155     1 I   53   28.831838   18.801974   25.062277      7.0000     126.9045
     156     1 I   53   31.977696   19.303999   28.448466      7.0000     126.9045
     157     1 I   53   31.987937   22.314120   25.210557      7.0000     126.9045
     158     1 I   53   35.634309   19.142329   25.124398      7.0000     126.9045
     159     1 I   53    9.291413   25.009531   25.014088      7.0000     126.9045
     160     1 I   53   12.506201   25.346223   28.447421      7.0000     126.9045
     161     1 I   53   12.344135   28.691970   25.559200      7.0000     126.9045
     162     1 I   53   15.867114   25.896275   25.078987      7.0000     126.9045
     163     1 I   53   19.172878   25.447220   28.428100      7.0000     126.9045
     164     1 I   53   19.332123   28.727632   25.254959      7.0000     126.9045
     165     1 I   53   22.369068   25.020293   25.030065      7.0000     126.9045
     166     1 I   53   25.444730   25.329887   28.437652      7.0000     126.9045
     167     1 I   53   25.227556   28.651136   25.394014      7.0000     126.9045
     168     1 I   53   28.875331   25.848946   25.121204      7.0000     126.9045
     169     1 I   53   31.865236   25.242583   28.419254      7.0000     126.9045
     170     1 I   53   32.295443   28.776370   24.823424      7.0000     126.9045
     171     1 I   53   35.551253   25.272082   24.945650      7.0000     126.9045
     172     1 I   53    9.428032   31.899637   24.440668      7.0000     126.9045
     173     1 I   53   11.816799   32.140390   28.311927      7.0000     126.9045
     174     1 I   53   12.672051   35.270828   24.861800      7.0000     126.9045
     175     1 I   53   15.794088   31.908899   25.723474      7.0000     126.9045
     176     1 I   53   19.222713   31.573269   28.478127      7.0000     126.9045
     177     1 I   53   18.290089   35.772045   25.325789      7.0000     126.9045
     178     1 I   53   22.251024   32.195503   25.221435      7.0000     126.9045
     179     1 I   53   25.715059   31.478213   28.491750      7.0000     126.9045
     180     1 I   53   25.151746   35.259430   25.313683      7.0000     126.9045
     181     1 I   53   28.804931   31.753339   24.921693      7.0000     126.9045
     182     1 I   53   31.591734   31.319341   28.246072      7.0000     126.9045
     183     1 I   53   30.372979   36.554943   25.433508      7.0000     126.9045
     184     1 I   53   35.910968   31.112308   25.467906      7.0000     126.9045
     185     1 I   53   13.030898    9.825843   32.149282      7.0000     126.9045
     186     1 I   53   19.228348    9.977002   31.878566      7.0000     126.9045
     187     1 I   53   25.745133    9.733258   31.181001      7.0000     126.9045
     188     1 I   53   31.183173    9.708462   31.736799      7.0000     126.9045
     189     1 I   53    9.745130   13.221418   31.276271      7.0000     126.9045
     190     1 I   53   12.825070   13.248412   35.070216      7.0000     126.9045
     191     1 I   53   12.596968   16.286943   32.029082      7.0000     126.9045
     192     1 I   53   16.096596   13.433700   31.524797      7.0000     126.9045
     193     1 I   53   20.083421   13.440540   34.951048      7.0000     126.9045
     194     1 I   53   19.306767   16.268875   31.717884      7.0000     126.9045
     195     1 I   53   22.444592   13.147102   30.954200      7.0000     126.9045
     196     1 I   53   25.141941   12.791099   34.969330      7.0000     126.9045
     197     1 I   53   25.574515   16.096392   31.678805      7.0000     126.9045
     198     1 I   53   28.728525   13.313759   31.461688      7.0000     126.9045
     199     1 I   53   30.984042   13.311888   34.830043      7.0000     126.9045
     200     1 I   53   32.337853   16.001047   31.397913      7.0000     126.9045
     201     1 I   53   35.292576   12.489954   30.215552      7.0000     126.9045
     202     1 I   53    9.650199   19.439492   31.198940      7.0000     126.9045
     203     1 I   53   13.056473   19.600503   35.014341      7.0000     126.9045
     204     1 I   53   12.190453   22.565351   31.958245      7.0000     126.9045
     205     1 I   53   16.200189   19.460280   31.573245      7.0000     126.9045
     206     1 I   53   19.578299   19.389614   35.173745      7.0000     126.9045
     207     1 I   53   19.514211   22.415851   31.608633      7.0000     126.9045
     208     1 I   53   22.634337   19.403923   31.489322      7.0000     126.9045
     209     1 I   53   25.904927   19.271329   35.127748      7.0000     126.9045
     210     1 I   53   26.176975   22.339098   31.496040      7.0000     126.9045
     211     1 I   53   29.060433   19.024711   31.419890      7.0000     126.9045
     212     1 I   53   31.769430   19.182382   35.080026      7.0000     126.9045
     213     1 I   53   32.464094   22.343833   32.032718      7.0000     126.9045
     214     1 I   53   35.699306   19.073768   31.461060      7.0000     126.9045
     215     1 I   53    9.812408   26.143036   31.763055      7.0000     126.9045
     216     1 I   53   13.325417   25.553885   34.927955      7.0000     126.9045
     217     1 I   53   13.577073   28.714613   31.225949      7.0000     126.9045
     218     1 I   53   16.178392   25.107759   31.371795      7.0000     126.9045
     219     1 I   53   19.358323   25.353185   35.160704      7.0000     126.9045
     220     1 I   53   19.133207   28.672557   31.872930      7.0000     126.9045
     221     1 I   53   22.587594   25.492272   31.572182      7.0000     126.9045
     222     1 I   53   25.975779   25.276657   35.138266      7.0000     126.9045
     223     1 I   53   25.494857   28.613768   31.804112      7.0000     126.9045
     224     1 I   53   29.098077   25.827520   31.651671      7.0000     126.9045
     225     1 I   53   32.357671   25.876866   34.966946      7.0000     126.9045
     226     1 I   53   32.832077   28.671886   31.294233      7.0000     126.9045
     227     1 I   53   35.701303   25.345811   31.400568      7.0000     126.9045
     228     1 I   53    9.765278   31.371525   31.284069      7.0000     126.9045
     229     1 I   53   13.089577   31.331063   34.798723      7.0000     126.9045
     230     1 I   53   12.830995   35.117669   31.833040      7.0000     126.9045
     231     1 I   53   16.191946   32.019750   31.285561      7.0000     126.9045
     232     1 I   53   20.006993   31.810104   35.018549      7.0000     126.9045
     233     1 I   53   19.602200   35.105418   31.301776      7.0000     126.9045
     234     1 I   53   22.564887   31.683625   31.110821      7.0000     126.9045
     235     1 I   53   25.100470   31.488681   35.054584      7.0000     126.9045
     236     1 I   53   25.484087   35.328967   31.345632      7.0000     126.9045
     237     1 I   53   28.953880   31.109492   31.224438      7.0000     126.9045
     238     1 I   53   30.741947   31.567024   34.365492      7.0000     126.9045
     239     1 I   53   30.469109   36.237583   30.885279      7.0000     126.9045
     240     1 I   53   35.567432   32.543295   29.939458      7.0000     126.9045
     241     2 Pb  82   12.526333   12.951735   12.149907      4.0000     207.2000
     242     2 Pb  82   18.789914   13.026609   12.027317      4.0000     207.2000
     243     2 Pb  82   25.128908   12.617831   12.368555      4.0000     207.2000
     244     2 Pb  82   31.496145   13.062435   12.085812      4.0000     207.2000
     245     2 Pb  82   12.823379   19.342285   11.932678      4.0000     207.2000
     246     2 Pb  82   19.152614   19.244477   12.187892      4.0000     207.2000
     247     2 Pb  82   25.361094   19.148890   12.278244      4.0000     207.2000
     248     2 Pb  82   31.760977   19.249200   12.395827      4.0000     207.2000
     249     2 Pb  82   12.467907   25.635289   12.217808      4.0000     207.2000
     250     2 Pb  82   18.731261   25.670355   12.165502      4.0000     207.2000
     251     2 Pb  82   25.163283   25.553312   12.251434      4.0000     207.2000
     252     2 Pb  82   31.433956   25.572471   12.329775      4.0000     207.2000
     253     2 Pb  82   12.254137   32.221182   12.356610      4.0000     207.2000
     254     2 Pb  82   18.804353   32.103289   12.270253      4.0000     207.2000
     255     2 Pb  82   24.982499   32.086557   12.239881      4.0000     207.2000
     256     2 Pb  82   31.335877   32.044678   12.199616      4.0000     207.2000
     257     2 Pb  82   12.621399   12.674259   18.819380      4.0000     207.2000
     258     2 Pb  82   19.026131   12.463314   18.842199      4.0000     207.2000
     259     2 Pb  82   25.388153   12.521429   19.045017      4.0000     207.2000
     260     2 Pb  82   32.802227   12.383425   18.218245      4.0000     207.2000
     261     2 Pb  82   12.507565   19.100401   18.747573      4.0000     207.2000
     262     2 Pb  82   19.068142   19.017463   18.757523      4.0000     207.2000
     263     2 Pb  82   25.584791   19.051131   18.822521      4.0000     207.2000
     264     2 Pb  82   32.330713   18.916484   18.837651      4.0000     207.2000
     265     2 Pb  82   12.500949   25.585622   18.770421      4.0000     207.2000
     266     2 Pb  82   19.083249   25.452925   18.759507      4.0000     207.2000
     267     2 Pb  82   25.559156   25.466946   18.787143      4.0000     207.2000
     268     2 Pb  82   32.350223   25.372608   18.786712      4.0000     207.2000
     269     2 Pb  82   12.433450   32.282694   18.891024      4.0000     207.2000
     270     2 Pb  82   18.998318   31.914055   18.852185      4.0000     207.2000
     271     2 Pb  82   25.661110   31.994712   18.834314      4.0000     207.2000
     272     2 Pb  82   32.572973   31.541168   18.814196      4.0000     207.2000
     273     2 Pb  82   13.020386   12.466595   25.245146      4.0000     207.2000
     274     2 Pb  82   19.285065   12.504667   25.404387      4.0000     207.2000
     275     2 Pb  82   25.693140   12.576858   25.266723      4.0000     207.2000
     276     2 Pb  82   32.645531   12.339940   25.561119      4.0000     207.2000
     277     2 Pb  82   12.861989   19.098252   25.354102      4.0000     207.2000
     278     2 Pb  82   19.358869   19.008740   25.297761      4.0000     207.2000
     279     2 Pb  82   25.762129   19.027524   25.297968      4.0000     207.2000
     280     2 Pb  82   32.531528   19.006098   25.289515      4.0000     207.2000
     281     2 Pb  82   12.712086   25.510730   25.295467      4.0000     207.2000
     282     2 Pb  82   19.288599   25.361462   25.295025      4.0000     207.2000
     283     2 Pb  82   25.822952   25.382017   25.305699      4.0000     207.2000
     284     2 Pb  82   32.435215   25.421820   25.222498      4.0000     207.2000
     285     2 Pb  82   12.623964   32.139076   25.164255      4.0000     207.2000
     286     2 Pb  82   19.149021   31.829236   25.352933      4.0000     207.2000
     287     2 Pb  82   25.742359   31.769277   25.310387      4.0000     207.2000
     288     2 Pb  82   32.909275   31.892952   25.518798      4.0000     207.2000
     289     2 Pb  82   12.861140   13.009554   31.926806      4.0000     207.2000
     290     2 Pb  82   19.466666   13.093520   31.940376      4.0000     207.2000
     291     2 Pb  82   25.606721   12.832479   31.803838      4.0000     207.2000
     292     2 Pb  82   32.618694   12.553121   31.898202      4.0000     207.2000
     293     2 Pb  82   13.014947   19.415252   31.879166      4.0000     207.2000
     294     2 Pb  82   19.528837   19.334729   32.121443      4.0000     207.2000
     295     2 Pb  82   25.909742   19.168450   32.047030      4.0000     207.2000
     296     2 Pb  82   32.336866   19.041843   31.895230      4.0000     207.2000
     297     2 Pb  82   13.024657   25.717281   31.848691      4.0000     207.2000
     298     2 Pb  82   19.459172   25.539069   32.067320      4.0000     207.2000
     299     2 Pb  82   25.990218   25.392353   32.046849      4.0000     207.2000
     300     2 Pb  82   32.548209   25.503717   31.824095      4.0000     207.2000
     301     2 Pb  82   13.026085   32.010021   31.781663      4.0000     207.2000
     302     2 Pb  82   19.478005   31.972180   31.947631      4.0000     207.2000
     303     2 Pb  82   25.685557   31.684369   31.974233      4.0000     207.2000
     304     2 Pb  82   33.017200   31.871614   31.599035      4.0000     207.2000
     305     3 C    6   15.377780   15.951214    9.032611      4.0000      12.0107
     306     3 C    6   21.962734   16.179702    8.780616      4.0000      12.0107
     307     3 C    6   27.722078   16.091406    9.001549      4.0000      12.0107
     308     3 C    6   15.713040   22.388692    8.797118      4.0000      12.0107
     309     3 C    6   21.689493   22.091257    8.912426      4.0000      12.0107
     310     3 C    6   27.765170   22.275019    9.249345      4.0000      12.0107
     311     3 C    6   15.398164   28.845693    8.904201      4.0000      12.0107
     312     3 C    6   21.917672   28.407784    8.911932      4.0000      12.0107
     313     3 C    6   27.716178   28.518672    8.637073      4.0000      12.0107
     314     3 C    6   15.086231    9.476193   15.288800      4.0000      12.0107
     315     3 C    6   21.958527    9.744706   15.884241      4.0000      12.0107
     316     3 C    6   28.033061    9.636607   15.467400      4.0000      12.0107
     317     3 C    6    9.280909   15.624717   15.483038      4.0000      12.0107
     318     3 C    6   15.250585   16.075057   15.558808      4.0000      12.0107
     319     3 C    6   21.865401   15.933716   15.461969      4.0000      12.0107
     320     3 C    6   27.974327   16.080824   15.552635      4.0000      12.0107
     321     3 C    6   34.456901   16.401905   15.449441      4.0000      12.0107
     322     3 C    6    9.386412   22.307810   15.546234      4.0000      12.0107
     323     3 C    6   15.567848   22.268396   15.528771      4.0000      12.0107
     324     3 C    6   21.821703   22.148547   15.465296      4.0000      12.0107
     325     3 C    6   28.023306   22.168600   15.677496      4.0000      12.0107
     326     3 C    6   34.413146   22.512702   15.481848      4.0000      12.0107
     327     3 C    6    9.405636   28.507794   15.448920      4.0000      12.0107
     328     3 C    6   15.441674   28.501559   15.578766      4.0000      12.0107
     329     3 C    6   21.822800   28.521264   15.452484      4.0000      12.0107
     330     3 C    6   28.030482   28.385886   15.439396      4.0000      12.0107
     331     3 C    6   34.514521   28.767473   15.319149      4.0000      12.0107
     332     3 C    6   15.542751   34.753319   15.564724      4.0000      12.0107
     333     3 C    6   21.837975   34.514855   15.895004      4.0000      12.0107
     334     3 C    6   27.712838   34.844846   15.551994      4.0000      12.0107
     335     3 C    6   15.673029    9.894244   21.858837      4.0000      12.0107
     336     3 C    6   21.826378    9.641126   21.990661      4.0000      12.0107
     337     3 C    6   28.342821    9.629091   21.947986      4.0000      12.0107
     338     3 C    6    9.591796   16.101695   21.876137      4.0000      12.0107
     339     3 C    6   15.747333   15.959176   21.753529      4.0000      12.0107
     340     3 C    6   21.954996   15.978610   21.754118      4.0000      12.0107
     341     3 C    6   28.437065   16.092027   21.751180      4.0000      12.0107
     342     3 C    6   34.505248   16.394137   22.016678      4.0000      12.0107
     343     3 C    6    9.546633   22.067773   21.972371      4.0000      12.0107
     344     3 C    6   15.687315   22.154049   21.766745      4.0000      12.0107
     345     3 C    6   22.081910   22.194430   21.755983      4.0000      12.0107
     346     3 C    6   28.342564   22.193775   21.724363      4.0000      12.0107
     347     3 C    6   34.779706   22.062038   21.616389      4.0000      12.0107
     348     3 C    6    9.570766   28.401390   21.971207      4.0000      12.0107
     349     3 C    6   15.655297   28.424882   21.728250      4.0000      12.0107
     350     3 C    6   22.029536   28.602867   21.814827      4.0000      12.0107
     351     3 C    6   28.227092   28.412519   21.754533      4.0000      12.0107
     352     3 C    6   34.532492   27.733652   21.751505      4.0000      12.0107
     353     3 C    6   15.611234   34.690921   22.083969      4.0000      12.0107
     354     3 C    6   21.960718   34.729569   22.080321      4.0000      12.0107
     355     3 C    6   27.879479   34.497335   22.196681      4.0000      12.0107
     356     3 C    6   15.632211    9.665241   28.493612      4.0000      12.0107
     357     3 C    6   21.743581    9.978928   28.720182      4.0000      12.0107
     358     3 C    6   28.141310    9.623881   28.280080      4.0000      12.0107
     359     3 C    6    9.581630   15.967379   28.293121      4.0000      12.0107
     360     3 C    6   15.832930   16.040776   28.096507      4.0000      12.0107
     361     3 C    6   22.186991   16.071736   28.066876      4.0000      12.0107
     362     3 C    6   28.448779   16.215370   28.057647      4.0000      12.0107
     363     3 C    6   34.823428   16.096363   27.904977      4.0000      12.0107
     364     3 C    6    9.554068   22.311145   28.281799      4.0000      12.0107
     365     3 C    6   15.904144   22.223319   28.176704      4.0000      12.0107
     366     3 C    6   22.192031   22.276132   28.174118      4.0000      12.0107
     367     3 C    6   28.610182   22.221094   28.156181      4.0000      12.0107
     368     3 C    6   34.818838   22.182839   28.022116      4.0000      12.0107
     369     3 C    6    9.477905   28.393906   28.268171      4.0000      12.0107
     370     3 C    6   15.952415   28.520684   28.062854      4.0000      12.0107
     371     3 C    6   22.177690   28.440878   28.085817      4.0000      12.0107
     372     3 C    6   28.479577   28.308236   28.083372      4.0000      12.0107
     373     3 C    6   34.747310   28.069722   27.934711      4.0000      12.0107
     374     3 C    6   15.859947   34.961808   28.625457      4.0000      12.0107
     375     3 C    6   22.103987   34.739288   28.390781      4.0000      12.0107
     376     3 C    6   28.184248   34.396352   28.173522      4.0000      12.0107
     377     3 C    6   16.194990   15.971798   34.801538      4.0000      12.0107
     378     3 C    6   22.662873   16.432420   34.378901      4.0000      12.0107
     379     3 C    6   28.265908   16.086075   34.477493      4.0000      12.0107
     380     3 C    6   15.979251   22.337555   34.381892      4.0000      12.0107
     381     3 C    6   22.689237   22.307046   34.409315      4.0000      12.0107
     382     3 C    6   28.893892   22.272423   34.228689      4.0000      12.0107
     383     3 C    6   16.130642   28.634888   34.569096      4.0000      12.0107
     384     3 C    6   22.372210   28.347486   34.397202      4.0000      12.0107
     385     3 C    6   28.467082   28.387699   34.608181      4.0000      12.0107
     386     4 N    7   16.875875   16.099102    9.439324      5.0000      14.0067
     387     4 N    7   23.301675   16.083490    9.585525      5.0000      14.0067
     388     4 N    7   29.101129   16.308271    9.694167      5.0000      14.0067
     389     4 N    7   17.062987   22.299766    9.584591      5.0000      14.0067
     390     4 N    7   23.186214   22.183272    9.358194      5.0000      14.0067
     391     4 N    7   29.118658   22.295501   10.024875      5.0000      14.0067
     392     4 N    7   16.966111   28.832128    8.897962      5.0000      14.0067
     393     4 N    7   23.285899   28.503609    9.676797      5.0000      14.0067
     394     4 N    7   28.884605   28.514810    9.680395      5.0000      14.0067
     395     4 N    7   15.994988    9.186469   16.548935      5.0000      14.0067
     396     4 N    7   23.500843    9.871766   16.094659      5.0000      14.0067
     397     4 N    7   29.542725    9.747551   15.875494      5.0000      14.0067
     398     4 N    7   10.705999   15.847370   16.097014      5.0000      14.0067
     399     4 N    7   16.751897   16.084414   15.995490      5.0000      14.0067
     400     4 N    7   23.294408   15.970442   16.106594      5.0000      14.0067
     401     4 N    7   29.426753   16.203421   16.128855      5.0000      14.0067
     402     4 N    7   35.651513   15.501120   15.871193      5.0000      14.0067
     403     4 N    7   10.935175   22.190152   15.664602      5.0000      14.0067
     404     4 N    7   17.059093   22.193864   16.000251      5.0000      14.0067
     405     4 N    7   23.293617   22.186673   15.993551      5.0000      14.0067
     406     4 N    7   29.530571   22.192109   16.111446      5.0000      14.0067
     407     4 N    7   35.548447   22.081646   16.460954      5.0000      14.0067
     408     4 N    7   10.832385   28.519869   16.088924      5.0000      14.0067
     409     4 N    7   16.952686   28.508552   15.986578      5.0000      14.0067
     410     4 N    7   23.289251   28.519164   16.007250      5.0000      14.0067
     411     4 N    7   29.442168   28.397531   16.112162      5.0000      14.0067
     412     4 N    7   35.860613   28.393835   16.001474      5.0000      14.0067
     413     4 N    7   17.068050   34.608985   15.877369      5.0000      14.0067
     414     4 N    7   23.398630   34.499299   15.996692      5.0000      14.0067
     415     4 N    7   29.204946   34.383668   15.662142      5.0000      14.0067
     416     4 N    7   17.173595    9.972983   22.294384      5.0000      14.0067
     417     4 N    7   23.183458    9.093054   22.522027      5.0000      14.0067
     418     4 N    7   29.842089    9.990652   22.200671      5.0000      14.0067
     419     4 N    7   11.051157   15.974927   22.402730      5.0000      14.0067
     420     4 N    7   17.169395   15.966343   22.414235      5.0000      14.0067
     421     4 N    7   23.387225   15.980091   22.387888      5.0000      14.0067
     422     4 N    7   29.857418   16.077540   22.412525      5.0000      14.0067
     423     4 N    7   35.854227   15.637656   22.185290      5.0000      14.0067
     424     4 N    7   11.039488   22.178769   22.421539      5.0000      14.0067
     425     4 N    7   17.161805   22.186765   22.289016      5.0000      14.0067
     426     4 N    7   23.506332   22.192051   22.416802      5.0000      14.0067
     427     4 N    7   29.748560   22.178019   22.413414      5.0000      14.0067
     428     4 N    7   35.535969   22.067355   22.971885      5.0000      14.0067
     429     4 N    7   11.058957   28.512078   22.407297      5.0000      14.0067
     430     4 N    7   17.062244   28.393365   22.415447      5.0000      14.0067
     431     4 N    7   23.482463   28.505157   22.394073      5.0000      14.0067
     432     4 N    7   29.642105   28.287051   22.418713      5.0000      14.0067
     433     4 N    7   35.441892   28.734189   22.522081      5.0000      14.0067
     434     4 N    7   17.168612   34.608634   22.193666      5.0000      14.0067
     435     4 N    7   23.504398   34.497746   22.183647      5.0000      14.0067
     436     4 N    7   29.414308   34.286613   22.411215      5.0000      14.0067
     437     4 N    7   17.166342    9.736517   28.816890      5.0000      14.0067
     438     4 N    7   23.181457    9.418272   28.504113      5.0000      14.0067
     439     4 N    7   29.545291   10.208752   28.602454      5.0000      14.0067
     440     4 N    7   11.053328   15.861211   28.824855      5.0000      14.0067
     441     4 N    7   17.269292   16.075725   28.721109      5.0000      14.0067
     442     4 N    7   23.613549   16.083576   28.718623      5.0000      14.0067
     443     4 N    7   29.859877   16.303051   28.724928      5.0000      14.0067
     444     4 N    7   36.062237   15.950273   28.839988      5.0000      14.0067
     445     4 N    7   11.048109   22.180928   28.710548      5.0000      14.0067
     446     4 N    7   17.367328   22.196468   28.736184      5.0000      14.0067
     447     4 N    7   23.610356   22.190025   28.839830      5.0000      14.0067
     448     4 N    7   29.962897   22.184474   28.948935      5.0000      14.0067
     449     4 N    7   36.076098   22.082981   28.942971      5.0000      14.0067
     450     4 N    7   10.927869   28.519499   28.844086      5.0000      14.0067
     451     4 N    7   17.375216   28.511231   28.720046      5.0000      14.0067
     452     4 N    7   23.611384   28.402103   28.721984      5.0000      14.0067
     453     4 N    7   29.849260   28.178780   28.834040      5.0000      14.0067
     454     4 N    7   35.848761   28.504213   28.946629      5.0000      14.0067
     455     4 N    7   17.377983   34.609833   28.488644      5.0000      14.0067
     456     4 N    7   23.625383   34.382971   28.385362      5.0000      14.0067
     457     4 N    7   29.742973   34.388682   28.157466      5.0000      14.0067
     458     4 N    7   17.583081   16.196874   35.468141      5.0000      14.0067
     459     4 N    7   23.494188   16.304261   35.689541      5.0000      14.0067
     460     4 N    7   29.423805   16.413724   35.459305      5.0000      14.0067
     461     4 N    7   17.280810   22.294909   35.222611      5.0000      14.0067
     462     4 N    7   23.834698   22.280837   35.453846      5.0000      14.0067
     463     4 N    7   29.851753   22.300089   35.453020      5.0000      14.0067
     464     4 N    7   17.480936   28.503503   35.331008      5.0000      14.0067
     465     4 N    7   23.604455   28.171740   35.330795      5.0000      14.0067
     466     4 N    7   29.840401   28.396464   35.367052      5.0000      14.0067
     467     5 H    1   15.345203   15.923648    7.971172      1.0000       1.0079
     468     5 H    1   14.848169   16.790807    9.413029      1.0000       1.0079
     469     5 H    1   15.014343   15.039914    9.444489      1.0000       1.0079
     470     5 H    1   17.287159   16.990450    9.066729      1.0000       1.0079
     471     5 H    1   17.444071   15.293207    9.077932      1.0000       1.0079
     472     5 H    1   16.996413   16.112989   10.481533      1.0000       1.0079
     473     5 H    1   22.205896   16.258387    7.748926      1.0000       1.0079
     474     5 H    1   21.447899   17.052213    9.101541      1.0000       1.0079
     475     5 H    1   21.393139   15.306215    8.977290      1.0000       1.0079
     476     5 H    1   23.916621   16.897780    9.330080      1.0000       1.0079
     477     5 H    1   23.802062   15.178536    9.398309      1.0000       1.0079
     478     5 H    1   23.114165   16.144801   10.606427      1.0000       1.0079
     479     5 H    1   27.891709   16.121967    7.953285      1.0000       1.0079
     480     5 H    1   27.075832   16.879760    9.301566      1.0000       1.0079
     481     5 H    1   27.342708   15.147543    9.307472      1.0000       1.0079
     482     5 H    1   29.521816   17.238178    9.428314      1.0000       1.0079
     483     5 H    1   29.762435   15.538641    9.415486      1.0000       1.0079
     484     5 H    1   29.019340   16.280385   10.732413      1.0000       1.0079
     485     5 H    1   15.953252   22.502704    7.764046      1.0000       1.0079
     486     5 H    1   15.182652   23.229697    9.175031      1.0000       1.0079
     487     5 H    1   15.179615   21.484714    8.967510      1.0000       1.0079
     488     5 H    1   17.630125   23.164120    9.404946      1.0000       1.0079
     489     5 H    1   17.604598   21.447878    9.296294      1.0000       1.0079
     490     5 H    1   16.876686   22.239746   10.605058      1.0000       1.0079
     491     5 H    1   21.686724   21.970616    7.852440      1.0000       1.0079
     492     5 H    1   21.209964   22.992237    9.207118      1.0000       1.0079
     493     5 H    1   21.257528   21.249786    9.395634      1.0000       1.0079
     494     5 H    1   23.644950   23.032781    8.962862      1.0000       1.0079
     495     5 H    1   23.708890   21.325775    9.058575      1.0000       1.0079
     496     5 H    1   23.279354   22.245009   10.403948      1.0000       1.0079
     497     5 H    1   28.007935   22.272840    8.211152      1.0000       1.0079
     498     5 H    1   27.213824   23.140282    9.524387      1.0000       1.0079
     499     5 H    1   27.252970   21.385087    9.524285      1.0000       1.0079
     500     5 H    1   29.646963   23.175910    9.813182      1.0000       1.0079
     501     5 H    1   29.699028   21.461228    9.746062      1.0000       1.0079
     502     5 H    1   28.952887   22.241003   11.050277      1.0000       1.0079
     503     5 H    1   15.066524   28.721951    7.898109      1.0000       1.0079
     504     5 H    1   15.082719   29.776783    9.311256      1.0000       1.0079
     505     5 H    1   15.076920   28.036430    9.516814      1.0000       1.0079
     506     5 H    1   17.350807   29.589239    8.297611      1.0000       1.0079
     507     5 H    1   17.317052   27.910560    8.545389      1.0000       1.0079
     508     5 H    1   17.323664   28.943806    9.883201      1.0000       1.0079
     509     5 H    1   22.132077   28.240245    7.878729      1.0000       1.0079
     510     5 H    1   21.389993   29.317170    9.073857      1.0000       1.0079
     511     5 H    1   21.387184   27.579068    9.315217      1.0000       1.0079
     512     5 H    1   23.788577   29.389153    9.437126      1.0000       1.0079
     513     5 H    1   23.878071   27.672589    9.422744      1.0000       1.0079
     514     5 H    1   23.121991   28.473220   10.703034      1.0000       1.0079
     515     5 H    1   28.144576   28.438649    7.666832      1.0000       1.0079
     516     5 H    1   27.179650   29.430663    8.746256      1.0000       1.0079
     517     5 H    1   27.095028   27.682057    8.848072      1.0000       1.0079
     518     5 H    1   29.498142   29.355594    9.535489      1.0000       1.0079
     519     5 H    1   29.463007   27.641380    9.567595      1.0000       1.0079
     520     5 H    1   28.500182   28.552866   10.645573      1.0000       1.0079
     521     5 H    1   15.681285    9.372881   14.415001      1.0000       1.0079
     522     5 H    1   14.722094   10.472116   15.384772      1.0000       1.0079
     523     5 H    1   14.286140    8.773933   15.289854      1.0000       1.0079
     524     5 H    1   16.808966    9.837789   16.565036      1.0000       1.0079
     525     5 H    1   16.343518    8.197148   16.560706      1.0000       1.0079
     526     5 H    1   15.426219    9.349253   17.403969      1.0000       1.0079
     527     5 H    1   21.757267    9.932201   14.857073      1.0000       1.0079
     528     5 H    1   21.482876   10.471419   16.497516      1.0000       1.0079
     529     5 H    1   21.668802    8.762530   16.165511      1.0000       1.0079
     530     5 H    1   23.810510   10.866521   15.958644      1.0000       1.0079
     531     5 H    1   24.005937    9.313324   15.373585      1.0000       1.0079
     532     5 H    1   23.797708    9.578810   17.064177      1.0000       1.0079
     533     5 H    1   27.974397    9.696582   14.404573      1.0000       1.0079
     534     5 H    1   27.522230   10.454514   15.918558      1.0000       1.0079
     535     5 H    1   27.665226    8.702472   15.819000      1.0000       1.0079
     536     5 H    1   29.914391   10.698396   15.630503      1.0000       1.0079
     537     5 H    1   30.120451    9.039742   15.382746      1.0000       1.0079
     538     5 H    1   29.702609    9.617369   16.906468      1.0000       1.0079
     539     5 H    1    9.376917   15.646752   14.425334      1.0000       1.0079
     540     5 H    1    8.647618   16.402184   15.830891      1.0000       1.0079
     541     5 H    1    8.922204   14.683891   15.825123      1.0000       1.0079
     542     5 H    1   11.144226   16.725968   15.733306      1.0000       1.0079
     543     5 H    1   11.324990   15.027552   15.856681      1.0000       1.0079
     544     5 H    1   10.656247   15.914149   17.132815      1.0000       1.0079
     545     5 H    1   15.221684   16.170527   14.500655      1.0000       1.0079
     546     5 H    1   14.774677   16.897337   16.035704      1.0000       1.0079
     547     5 H    1   14.823849   15.150665   15.868223      1.0000       1.0079
     548     5 H    1   17.199035   17.008948   15.774910      1.0000       1.0079
     549     5 H    1   17.281104   15.356738   15.481368      1.0000       1.0079
     550     5 H    1   16.879651   15.915677   17.024310      1.0000       1.0079
     551     5 H    1   21.984155   15.903574   14.406182      1.0000       1.0079
     552     5 H    1   21.350422   16.815528   15.758031      1.0000       1.0079
[...]
 flops   588 x   128 x   135         245887488000       0.0%    100.0%      0.0%
 flops   588 x   135 x   128         245887488000       0.0%    100.0%      0.0%
 flops   587 x   128 x   136         247287603200       0.0%    100.0%      0.0%
 flops   587 x   136 x   128         247287603200       0.0%    100.0%      0.0%
 flops     4 x    32 x     1         247405452800       0.0%    100.0%      0.0%
 flops     1 x    32 x     4         247405452800       0.0%    100.0%      0.0%
 flops   588 x   128 x   136         247708876800       0.0%    100.0%      0.0%
 flops   588 x   136 x   128         247708876800       0.0%    100.0%      0.0%
 flops   384 x   160 x   196         281499402240       0.0%    100.0%      0.0%
 flops   384 x   128 x   135         284000256000       0.0%    100.0%      0.0%
 flops   384 x   135 x   128         284000256000       0.0%    100.0%      0.0%
 flops   384 x   128 x   136         286103961600       0.0%    100.0%      0.0%
 flops   384 x   136 x   128         286103961600       0.0%    100.0%      0.0%
 flops   416 x   160 x   128         364642304000       0.0%    100.0%      0.0%
 flops   416 x   128 x   160         364642304000       0.0%    100.0%      0.0%
 flops   391 x   128 x   197         384124405760       0.0%    100.0%      0.0%
 flops   392 x   128 x   197         385106821120       0.0%    100.0%      0.0%
 flops   416 x   128 x   193         400386621440       0.0%    100.0%      0.0%
 flops   587 x   128 x   193         570769121280       0.0%    100.0%      0.0%
 flops   588 x   128 x   193         571741470720       0.0%    100.0%      0.0%
 flops   391 x   128 x   196         573261803520       0.0%    100.0%      0.0%
 flops   392 x   128 x   196         574727946240       0.0%    100.0%      0.0%
 flops   587 x   128 x   160         581853184000       0.0%    100.0%      0.0%
 flops   587 x   160 x   128         581853184000       0.0%    100.0%      0.0%
 flops   588 x   160 x   128         582844416000       0.0%    100.0%      0.0%
 flops   588 x   128 x   160         582844416000       0.0%    100.0%      0.0%
 flops   384 x   128 x   160         673185792000       0.0%    100.0%      0.0%
 flops   384 x   160 x   128         673185792000       0.0%    100.0%      0.0%
 flops   384 x   128 x   193         739175301120       0.0%    100.0%      0.0%
 flops   416 x   128 x   197         817369579520       0.0%    100.0%      0.0%
 flops     4 x    32 x     4        1130503475200       0.0%    100.0%      0.0%
 flops   587 x   128 x   197        1165197066240       0.0%    100.0%      0.0%
 flops   588 x   128 x   197        1167182069760       0.0%    100.0%      0.0%
 flops   416 x   128 x   196        1219830743040       0.0%    100.0%      0.0%
 flops   391 x   128 x   128        1370914816000       0.0%    100.0%      0.0%
 flops   392 x   128 x   128        1374420992000       0.0%    100.0%      0.0%
 flops   384 x   128 x   197        1508989992960       0.0%    100.0%      0.0%
 flops   587 x   128 x   196        1738923540480       0.0%    100.0%      0.0%
 flops   588 x   128 x   196        1741885931520       0.0%    100.0%      0.0%
 flops   384 x   128 x   196        2251995217920       0.0%    100.0%      0.0%
 flops   416 x   128 x   128        2917138432000       0.0%    100.0%      0.0%
 flops   587 x   128 x   128        4654825472000       0.0%    100.0%      0.0%
 flops   588 x   128 x   128        4662755328000       0.0%    100.0%      0.0%
 flops   384 x   128 x   128        5385486336000       0.0%    100.0%      0.0%
 flops inhomo. stacks                           0       0.0%      0.0%      0.0%
 flops total                        53.008247E+12       0.0%    100.0%      0.0%
 flops max/rank                      1.384997E+12       0.0%    100.0%      0.0%
 matmuls inhomo. stacks                         0       0.0%      0.0%      0.0%
 matmuls total                         4223389436       0.0%    100.0%      0.0%
 number of processed stacks               8039298       0.0%    100.0%      0.0%
 average stack size                                     0.0     525.3       0.0
 marketing flops                    64.355673E+12
 -------------------------------------------------------------------------------
 # multiplications                           5621
 max memory usage/rank               1.193529E+09
 # max total images/rank                        3
 # max 3D layers                                1
 # MPI messages exchanged                 5396160
 MPI messages size (bytes):
  total size                         1.952479E+12
  min size                           0.000000E+00
  max size                           1.089536E+06
  average size                     361.827562E+03
 MPI breakdown and total messages size (bytes):
             size <=      128               12360                        0
       128 < size <=     8192                   0                        0
      8192 < size <=    32768                 480                  9840600
     32768 < size <=   131072             1014528             132631664112
    131072 < size <=  4194304             4368792            1819704810448
   4194304 < size <= 16777216                   0                        0
  16777216 < size                               0                        0
 -------------------------------------------------------------------------------

 *** WARNING in dbcsr_mm.F:294 :: Using a non-square number of MPI ranks ***
 *** might lead to poor performance. Used ranks: 48 Suggested: 49 100    ***

 -------------------------------------------------------------------------------
 -                                                                             -
 -                      DBCSR MESSAGE PASSING PERFORMANCE                      -
 -                                                                             -
 -------------------------------------------------------------------------------
 ROUTINE             CALLS      AVE VOLUME [Bytes]
 MP_Bcast              383                     12.
 MP_Allreduce        31104                     89.
 MP_Alltoall         19061                 130528.
 MP_ISend           260900                 174637.
 MP_IRecv           260900                 171858.
 -------------------------------------------------------------------------------

 -------------------------------------------------------------------------------
 -                                                                             -
 -                                GRID STATISTICS                              -
 -                                                                             -
 -------------------------------------------------------------------------------
 LP    KERNEL             BACKEND                              COUNT     PERCENT
 1     collocate ortho    REF                               95157316      24.57%
 1     integrate ortho    REF                               94377338      24.37%
 2     collocate ortho    REF                               50871560      13.14%
 2     integrate ortho    REF                               50454580      13.03%
 0     collocate ortho    REF                               48306144      12.47%
 0     integrate ortho    REF                               47910192      12.37%
 0     collocate general  REF                                  91392       0.02%
 0     integrate general  REF                                  91392       0.02%
 -------------------------------------------------------------------------------

 MEMORY| Estimated peak process memory [MiB]                                1139

 -------------------------------------------------------------------------------
 ----                             MULTIGRID INFO                            ----
 -------------------------------------------------------------------------------
 count for grid        1:         516766          cutoff [a.u.]          110.00
 count for grid        2:         368542          cutoff [a.u.]           36.67
 count for grid        3:         326999          cutoff [a.u.]           12.22
 count for grid        4:         175508          cutoff [a.u.]            4.07
 total gridlevel count  :        1387815

 -------------------------------------------------------------------------------
 -                                                                             -
 -                         MESSAGE PASSING PERFORMANCE                         -
 -                                                                             -
 -------------------------------------------------------------------------------

 ROUTINE             CALLS      AVE VOLUME [Bytes]
 MP_Group                4
 MP_Bcast            14695                  75443.
 MP_Allreduce        42290                   2974.
 MP_Sync               508
 MP_Alltoall          4504               55240375.
 MP_ISendRecv        45684                 266700.
 MP_Wait             67156
 MP_comm_split         252
 MP_ISend            17568                1381222.
 MP_IRecv            17568                1381222.
 MP_Recv               672                 601600.
 -------------------------------------------------------------------------------


 -------------------------------------------------------------------------------
 -                                                                             -
 -                           R E F E R E N C E S                               -
 -                                                                             -
 -------------------------------------------------------------------------------
 
 CP2K version 8.2, the CP2K developers group (2021).
 CP2K is freely available from https://www.cp2k.org/ .

 Kuehne,Thomas D.; Iannuzzi,Marcella; Del Ben,Mauro;
 Rybkin,Vladimir V.; Seewald,Patrick; Stein,Frederick; Laino,Teodoro;
 Khaliullin,Rustam Z.; Schuett,Ole; Schiffmann,Florian; Golze,Dorothea;
 Wilhelm,Jan; Chulkov,Sergey; Bani-Hashemian,Mohammad Hossein;
 Weber,Valery; Borstnik,Urban; Taillefumier,Mathieu;
 Jakobovits,Alice Shoshana; Lazzaro,Alfio; Pabst,Hans; Mueller,Tiziano;
 Schade,Robert; Guidon,Manuel; Andermatt,Samuel; Holmberg,Nico;
 Schenter,Gregory K.; Hehn,Anna; Bussy,Augustin; Belleflamme,Fabian;
 Tabacchi,Gloria; Gloess,Andreas; Lass,Michael; Bethune,Iain;
 Mundy,Christopher J.; Plessl,Christian; Watkins,Matt;
 VandeVondele,Joost; Krack,Matthias; Hutter,Juerg. 
 The Journal of Chemical Physics, 152 (19), (2020). 
 CP2K: An electronic structure and molecular dynamics software package -
 Quickstep: Efficient and accurate electronic structure calculations.
 https://doi.org/10.1063/5.0007045

 Goerigk, Lars; Hansen, Andreas; Bauer, Christoph; Ehrlich, Stephan;
 Najibi, Asim; Grimme, Stefan. , 19 (48), (2017). 
 A look at the density functional theory zoo with the advanced GMTKN55 database
 for general main group thermochemistry, kinetics and noncovalent interactions.
 https://doi.org/10.1039/C7CP04913G

 Schuett, Ole; Messmer, Peter; Hutter, Juerg; VandeVondele, Joost. 
 Electronic Structure Calculations on Graphics Processing Units, John
 Wiley & Sons, Ltd, 173-190 (2016). 
 GPU-Accelerated Sparse Matrix-Matrix Multiplication for
 Linear Scaling Density Functional Theory.
 https://doi.org/10.1002/9781118670712.ch8

 Heinecke, A; Henry, G; Hutchinson, M; Pabst, H. 
 Proceedings of Intl. Supercomputing Conference, 981-991 (2016). 
 LIBXSMM: Accelerating Small Matrix Multiplications
 by Runtime Code Generation.
 https://doi.org/10.1109/SC.2016.83

 Borstnik, U; VandeVondele, J; Weber, V; Hutter, J. 
 PARALLEL COMPUTING, 40 (5-6), 47-58 (2014). 
 Sparse matrix multiplication: The distributed block-compressed sparse
 row library.
 https://doi.org/10.1016/j.parco.2014.03.012

 Hutter, J; Iannuzzi, M; Schiffmann, F; VandeVondele, J. 
 WIREs Comput Mol Sci., 4 (1), 15-25 (2014). 
 CP2K: atomistic simulations of condensed matter systems.
 https://doi.org/10.1002/wcms.1159

 Grimme, S; Ehrlich, S; Goerigk, L. 
 JOURNAL OF COMPUTATIONAL CHEMISTRY, 32, 1456 (2011). 
 Effect of the damping function in dispersion corrected density functional theory.
 https://doi.org/10.1002/jcc.21759

 Grimme, S; Antony, J; Ehrlich, S; Krieg, H. 
 JOURNAL OF CHEMICAL PHYSICS, 132 (15), 154104 (2010). 
 A consistent and accurate ab initio parametrization of density
 functional dispersion correction (DFT-D) for the 94 elements H-Pu.
 https://doi.org/10.1063/1.3382344

 VandeVondele, J; Hutter, J. 
 JOURNAL OF CHEMICAL PHYSICS, 127 (11), 114105 (2007). 
 Gaussian basis sets for accurate calculations on molecular systems in
 gas and condensed phases.
 https://doi.org/10.1063/1.2770708

 Krack, M. 
 THEORETICAL CHEMISTRY ACCOUNTS, 114 (1-3), 145-152 (2005). 
 Pseudopotentials for H to Kr optimized for gradient-corrected
 exchange-correlation functionals.
 https://doi.org/10.1007/s00214-005-0655-y

 VandeVondele, J; Krack, M; Mohamed, F; Parrinello, M; Chassaing, T;
 Hutter, J. COMPUTER PHYSICS COMMUNICATIONS, 167 (2), 103-128 (2005). 
 QUICKSTEP: Fast and accurate density functional calculations using a
 mixed Gaussian and plane waves approach.
 https://doi.org/10.1016/j.cpc.2004.12.014

 Frigo, M; Johnson, SG. 
 PROCEEDINGS OF THE IEEE, 93 (2), 216-231 (2005). 
 The design and implementation of FFTW3.
 https://doi.org/10.1109/JPROC.2004.840301

 VandeVondele, J; Hutter, J. 
 JOURNAL OF CHEMICAL PHYSICS, 118 (10), 4365-4369 (2003). 
 An efficient orbital transformation method for electronic structure
 calculations.
 https://doi.org/10.1063/1.1543154

 Hartwigsen, C; Goedecker, S; Hutter, J. 
 PHYSICAL REVIEW B, 58 (7), 3641-3662 (1998). 
 Relativistic separable dual-space Gaussian pseudopotentials from H to Rn.
 https://doi.org/10.1103/PhysRevB.58.3641

 Lippert, G; Hutter, J; Parrinello, M. 
 MOLECULAR PHYSICS, 92 (3), 477-487 (1997). 
 A hybrid Gaussian and plane wave density functional scheme.
 https://doi.org/10.1080/002689797170220

 Perdew, JP; Burke, K; Ernzerhof, M. 
 PHYSICAL REVIEW LETTERS, 77 (18), 3865-3868 (1996). 
 Generalized gradient approximation made simple.
 https://doi.org/10.1103/PhysRevLett.77.3865

 Goedecker, S; Teter, M; Hutter, J. 
 PHYSICAL REVIEW B, 54 (3), 1703-1710 (1996). 
 Separable dual-space Gaussian pseudopotentials.
 https://doi.org/10.1103/PhysRevB.54.1703


 -------------------------------------------------------------------------------
 -                                                                             -
 -                                T I M I N G                                  -
 -                                                                             -
 -------------------------------------------------------------------------------
 SUBROUTINE                       CALLS  ASD         SELF TIME        TOTAL TIME
                                MAXIMUM       AVERAGE  MAXIMUM  AVERAGE  MAXIMUM
 CP2K                                 1  1.0    0.447    0.519 1631.802 1631.838
 qs_energies                          1  2.0    0.000    0.000 1628.108 1628.111
 scf_env_do_scf                       1  3.0    0.000    0.001 1614.629 1614.631
 scf_env_do_scf_inner_loop          121  4.0    0.003    0.023 1590.513 1590.581
 qs_ks_update_qs_env                123  5.0    0.002    0.002 1016.439 1016.902
 rebuild_ks_matrix                  121  6.0    0.001    0.001 1016.310 1016.773
 qs_ks_build_kohn_sham_matrix       121  7.0    0.025    0.030 1016.309 1016.772
 pw_transfer                       4246  9.7    0.376    0.496  839.317  902.317
 fft_wrap_pw1pw2                   4004 10.8    0.061    0.084  836.786  900.079
 fft_wrap_pw1pw2_110               2546 11.9   29.511   45.021  787.009  852.651
 fft3d_ps                          4004 12.8  161.297  203.956  668.937  752.197
 qs_vxc_create                      121  8.0    0.004    0.005  678.967  681.062
 xc_vxc_pw_create                   121  9.0   11.288   13.040  678.963  681.059
 mp_alltoall_z22v                  4004 14.8  454.836  576.020  454.836  576.020
 xc_rho_set_and_dset_create         121 10.0    3.953    5.461  309.027  347.739
 yz_to_x                           1945 13.1   27.420   33.537  267.624  346.300
 qs_rho_update_rho                  122  5.0    0.001    0.002  335.867  336.019
 calculate_rho_elec                 244  6.0    1.787    1.941  335.866  336.017
 sum_up_and_integrate               121  8.0    1.270    1.931  282.133  282.156
 integrate_v_rspace                 242  9.0    0.010    0.014  280.863  281.418
 x_to_yz                           2059 14.4   25.267   38.080  239.899  279.083
 density_rs2pw                      244  7.0    0.014    0.018  246.346  265.876
 qs_scf_new_mos                     121  5.0    0.001    0.001  256.770  256.995
 qs_scf_loop_do_ot                  121  6.0    0.001    0.002  256.769  256.994
 ot_scf_mini                        121  7.0    0.005    0.006  250.300  250.457
 rs_pw_transfer                    1948  9.5    0.037    0.049  133.210  155.641
 potential_pw2rs                    242 10.0    0.108    0.150  148.547  149.306
 dbcsr_multiply_generic            5621 10.2    0.323    0.403  143.908  146.118
 qs_ot_get_p                        250  8.0    0.002    0.003  132.794  133.232
 grid_integrate_task_list           242 10.0   76.846  130.493   76.846  130.493
 grid_collocate_task_list           244  7.0   81.471  128.020   81.471  128.020
 qs_ot_p2m_diag                     234  9.0    1.152    1.426  121.649  122.216
 cp_fm_syevd                        252 10.8    0.004    0.006  114.616  114.649
 xc_functional_eval                 121 11.0    0.002    0.002   75.575  114.045
 pbe_lsd_eval                       121 12.0   75.573  114.044   75.573  114.044
 cp_dbcsr_syevd                     242  9.9    0.020    0.029  113.703  113.749
 mp_waitany                       17568 11.5   79.961  113.227   79.961  113.227
 cp_fm_redistribute_end             252 11.8   47.088  113.059   47.458  113.162
 cp_fm_syevd_base                   252 11.8   65.454  111.218   65.454  111.218
 pw_gather_p                       1945 12.1   80.495  103.804   80.495  103.804
 ot_mini                            123  8.0    0.002    0.002   98.696   98.977
 multiply_cannon                   5621 11.2    0.493    0.708   87.716   98.244
 multiply_cannon_loop              5621 12.2    0.415    0.520   81.251   91.449
 rs_pw_transfer_RS2PW_110           246  9.0    6.625    9.060   56.787   78.836
 mp_alltoall_d11v                  4119 12.3   58.640   76.887   58.640   76.887
 rs_gather_matrices                 242 10.0    0.142    0.167   55.460   73.617
 qs_ot_get_derivative               244  9.0    0.003    0.004   72.687   72.846
 multiply_cannon_multrec          67452 13.2   51.890   65.647   51.934   65.702
 pw_scatter_p                      2059 13.4   56.853   65.013   56.853   65.013
 mp_waitall_1                    499268 14.1   56.854   64.751   56.854   64.751
 qs_ot_get_derivative_diag          230 10.0    0.008    0.012   52.305   52.464
 fft_wrap_pw1pw2_40                 486 11.5    0.784    1.326   40.943   48.153
 make_m2s                         11242 11.2    0.244    0.290   34.087   35.885
 pw_derive                         1452 10.5   22.590   35.559   22.590   35.559
 -------------------------------------------------------------------------------

 The number of warnings for this run is : 2
 
 -------------------------------------------------------------------------------
  **** **** ******  **  PROGRAM ENDED AT                 2023-12-08 17:43:08.969
 ***** ** ***  *** **   PROGRAM RAN ON               milan19.int.triton.aalto.fi
 **    ****   ******    PROGRAM RAN BY                                   huangj4
 ***** **    ** ** **   PROGRAM PROCESS ID                                   311
  **** **  *******  **  PROGRAM STOPPED IN /scratch/phys/sin/Jie/Github/cp2kTest
                                           /PDOSNaked234/Cluster_444
