 DBCSR| CPU Multiplication driver                                           XSMM
 DBCSR| Multrec recursion limit                                              512
 DBCSR| Multiplication stack size                                           1000
 DBCSR| Maximum elements for images                                    UNLIMITED
 DBCSR| Multiplicative factor virtual images                                   1
 DBCSR| Use multiplication densification                                       T
 DBCSR| Multiplication size stacks                                             3
 DBCSR| Use memory pool for CPU allocation                                     F
 DBCSR| Number of 3D layers                                               SINGLE
 DBCSR| Use MPI memory allocation                                              F
 DBCSR| Use RMA algorithm                                                      F
 DBCSR| Use Communication thread                                               T
 DBCSR| Communication thread load                                             87
 DBCSR| MPI: My node id                                                        0
 DBCSR| MPI: Number of nodes                                                  24
 DBCSR| OMP: Current number of threads                                         1
 DBCSR| OMP: Max number of threads                                             1
 DBCSR| Split modifier for TAS multiplication algorithm                  1.0E+00


  **** **** ******  **  PROGRAM STARTED AT               2023-12-04 13:20:06.410
 ***** ** ***  *** **   PROGRAM STARTED ON              pe87.int.triton.aalto.fi
 **    ****   ******    PROGRAM STARTED BY                               huangj4
 ***** **    ** ** **   PROGRAM PROCESS ID                                 29502
  **** **  *******  **  PROGRAM STARTED IN /scratch/phys/sin/Jie/Github/cp2kTest
                                           /PDOSNaked234/Cluster_444

 CP2K| version string:                                          CP2K version 8.2
 CP2K| source code revision number:                                  git:310b7ab
 CP2K| cp2kflags: omp libint fftw3 libxc parallel mpi3 scalapack xsmm           
 CP2K| is freely available from                            https://www.cp2k.org/
 CP2K| Program compiled at                          Thu May 12 10:08:29 UTC 2022
 CP2K| Program compiled on                                          80d7174ae3e8
 CP2K| Program compiled for                            linux-centos7-haswell-gcc
 CP2K| Data directory path    /share/apps/spack/envs/fgci-centos7-haswell/softwa
 CP2K| Input file name                                                 input.inp

 GLOBAL| Force Environment number                                              1
 GLOBAL| Basis set file name                                        BASIS_MOLOPT
 GLOBAL| Potential file name                                      GTH_POTENTIALS
 GLOBAL| MM Potential file name                                     MM_POTENTIAL
 GLOBAL| Coordinate file name                                MAPbI3-pos-last.xyz
 GLOBAL| Method name                                                        CP2K
 GLOBAL| Project name                                                 MAPbI3_DOS
 GLOBAL| Run type                                                         ENERGY
 GLOBAL| FFT library                                                       FFTW3
 GLOBAL| Diagonalization library                                       ScaLAPACK
 GLOBAL| Orthonormality check for eigenvectors                          DISABLED
 GLOBAL| Matrix multiplication library                                    SCALAP
 GLOBAL| All-to-all communication in single precision                          F
 GLOBAL| FFTs using library dependent lengths                                  F
 GLOBAL| Grid backend                                                       AUTO
 GLOBAL| Global print level                                               MEDIUM
 GLOBAL| MPI I/O enabled                                                       T
 GLOBAL| Total number of message passing processes                            24
 GLOBAL| Number of threads for this process                                    1
 GLOBAL| This output is from process                                           0
 GLOBAL| CPU model name                Intel(R) Xeon(R) CPU E5-2680 v4 @ 2.40GHz
 GLOBAL| CPUID                                                              1002

 MEMORY| system memory details [Kb]
 MEMORY|                        rank 0           min           max       average
 MEMORY| MemTotal            131936832     131936832     131936832     131936832
 MEMORY| MemFree             120020688     120020688     120020688     120020688
 MEMORY| Buffers                306524        306524        306524        306524
 MEMORY| Cached                2680648       2680648       2680648       2680648
 MEMORY| Slab                  3865524       3865524       3865524       3865524
 MEMORY| SReclaimable           251728        251728        251728        251728
 MEMORY| MemLikelyFree       123259588     123259588     123259588     123259588


 *** Fundamental physical constants (SI units) ***

 *** Literature: B. J. Mohr and B. N. Taylor,
 ***             CODATA recommended values of the fundamental physical
 ***             constants: 2006, Web Version 5.1
 ***             http://physics.nist.gov/constants

 Speed of light in vacuum [m/s]                             2.99792458000000E+08
 Magnetic constant or permeability of vacuum [N/A**2]       1.25663706143592E-06
 Electric constant or permittivity of vacuum [F/m]          8.85418781762039E-12
 Planck constant (h) [J*s]                                  6.62606896000000E-34
 Planck constant (h-bar) [J*s]                              1.05457162825177E-34
 Elementary charge [C]                                      1.60217648700000E-19
 Electron mass [kg]                                         9.10938215000000E-31
 Electron g factor [ ]                                     -2.00231930436220E+00
 Proton mass [kg]                                           1.67262163700000E-27
 Fine-structure constant                                    7.29735253760000E-03
 Rydberg constant [1/m]                                     1.09737315685270E+07
 Avogadro constant [1/mol]                                  6.02214179000000E+23
 Boltzmann constant [J/K]                                   1.38065040000000E-23
 Atomic mass unit [kg]                                      1.66053878200000E-27
 Bohr radius [m]                                            5.29177208590000E-11

 *** Conversion factors ***

 [u] -> [a.u.]                                              1.82288848426455E+03
 [Angstrom] -> [Bohr] = [a.u.]                              1.88972613288564E+00
 [a.u.] = [Bohr] -> [Angstrom]                              5.29177208590000E-01
 [a.u.] -> [s]                                              2.41888432650478E-17
 [a.u.] -> [fs]                                             2.41888432650478E-02
 [a.u.] -> [J]                                              4.35974393937059E-18
 [a.u.] -> [N]                                              8.23872205491840E-08
 [a.u.] -> [K]                                              3.15774647902944E+05
 [a.u.] -> [kJ/mol]                                         2.62549961709828E+03
 [a.u.] -> [kcal/mol]                                       6.27509468713739E+02
 [a.u.] -> [Pa]                                             2.94210107994716E+13
 [a.u.] -> [bar]                                            2.94210107994716E+08
 [a.u.] -> [atm]                                            2.90362800883016E+08
 [a.u.] -> [eV]                                             2.72113838565563E+01
 [a.u.] -> [Hz]                                             6.57968392072181E+15
 [a.u.] -> [1/cm] (wave numbers)                            2.19474631370540E+05
 [a.u./Bohr**2] -> [1/cm]                                   5.14048714338585E+03
 

 CELL_TOP| Volume [angstrom^3]:                                     90738.965184
 CELL_TOP| Vector a [angstrom    45.640     0.000     0.000   |a| =    45.640000
 CELL_TOP| Vector b [angstrom     0.000    44.940     0.000   |b| =    44.940000
 CELL_TOP| Vector c [angstrom     0.000     0.000    44.240   |c| =    44.240000
 CELL_TOP| Angle (b,c), alpha [degree]:                                90.000000
 CELL_TOP| Angle (a,c), beta  [degree]:                                90.000000
 CELL_TOP| Angle (a,b), gamma [degree]:                                90.000000
 CELL_TOP| Numerically orthorhombic:                                         YES

 GENERATE|  Preliminary Number of Bonds generated:                             0
 GENERATE|  Achieved consistency in connectivity generation.

 CELL| Volume [angstrom^3]:                                         90738.965184
 CELL| Vector a [angstrom]:      45.640     0.000     0.000   |a| =    45.640000
 CELL| Vector b [angstrom]:       0.000    44.940     0.000   |b| =    44.940000
 CELL| Vector c [angstrom]:       0.000     0.000    44.240   |c| =    44.240000
 CELL| Angle (b,c), alpha [degree]:                                    90.000000
 CELL| Angle (a,c), beta  [degree]:                                    90.000000
 CELL| Angle (a,b), gamma [degree]:                                    90.000000
 CELL| Numerically orthorhombic:                                             YES

 CELL_REF| Volume [angstrom^3]:                                     90738.965184
 CELL_REF| Vector a [angstrom    45.640     0.000     0.000   |a| =    45.640000
 CELL_REF| Vector b [angstrom     0.000    44.940     0.000   |b| =    44.940000
 CELL_REF| Vector c [angstrom     0.000     0.000    44.240   |c| =    44.240000
 CELL_REF| Angle (b,c), alpha [degree]:                                90.000000
 CELL_REF| Angle (a,c), beta  [degree]:                                90.000000
 CELL_REF| Angle (a,b), gamma [degree]:                                90.000000
 CELL_REF| Numerically orthorhombic:                                         YES

 *******************************************************************************
 *******************************************************************************
 **                                                                           **
 **     #####                         ##              ##                      **
 **    ##   ##            ##          ##              ##                      **
 **   ##     ##                       ##            ######                    **
 **   ##     ##  ##   ##  ##   #####  ##  ##   ####   ##    #####    #####    **
 **   ##     ##  ##   ##  ##  ##      ## ##   ##      ##   ##   ##  ##   ##   **
 **   ##  ## ##  ##   ##  ##  ##      ####     ###    ##   ######   ######    **
 **    ##  ###   ##   ##  ##  ##      ## ##      ##   ##   ##       ##        **
 **     #######   #####   ##   #####  ##  ##  ####    ##    #####   ##        **
 **           ##                                                    ##        **
 **                                                                           **
 **                                                ... make the atoms dance   **
 **                                                                           **
 **            Copyright (C) by CP2K developers group (2000-2021)             **
 **                      J. Chem. Phys. 152, 194103 (2020)                    **
 **                                                                           **
 *******************************************************************************

 DFT| Spin unrestricted (spin-polarized) Kohn-Sham calculation               UKS
 DFT| Multiplicity                                                             2
 DFT| Number of spin states                                                    2
 DFT| Charge                                                                   0
 DFT| Self-interaction correction (SIC)                                       NO
 DFT| Cutoffs: density                                              1.000000E-10
 DFT|          gradient                                             1.000000E-10
 DFT|          tau                                                  1.000000E-10
 DFT|          cutoff_smoothing_range                               0.000000E+00
 DFT| XC density smoothing                                                  NONE
 DFT| XC derivatives                                                          PW
 FUNCTIONAL| ROUTINE=NEW
 FUNCTIONAL| PBE:
 FUNCTIONAL| J.P.Perdew, K.Burke, M.Ernzerhof, Phys. Rev. Letter, vol. 77, n 18,
 FUNCTIONAL|  pp. 3865-3868, (1996){spin polarized}                             
 vdW POTENTIAL|                                                   Pair Potential
 vdW POTENTIAL|          DFT-D3 (Version 3.1)
 vdW POTENTIAL|          Potential Form: S. Grimme et al, JCP 132: 154104 (2010)
 vdW POTENTIAL|          Zero Damping
 vdW POTENTIAL|          Cutoff Radius [Bohr]:                             20.00
 vdW POTENTIAL|          s6 Scaling Factor:                               1.0000
 vdW POTENTIAL|          sr6 Scaling Factor:                              1.2170
 vdW POTENTIAL|          s8 Scaling Factor:                               0.7220
 vdW POTENTIAL|          Cutoff for CN calculation:                   0.1000E-05

 QS| Method:                                                                 GPW
 QS| Density plane wave grid type                        NON-SPHERICAL FULLSPACE
 QS| Number of grid levels:                                                    4
 QS| Density cutoff [a.u.]:                                                110.0
 QS| Multi grid cutoff [a.u.]: 1) grid level                               110.0
 QS|                           2) grid level                                36.7
 QS|                           3) grid level                                12.2
 QS|                           4) grid level                                 4.1
 QS| Grid level progression factor:                                          3.0
 QS| Relative density cutoff [a.u.]:                                        30.0
 QS| Interaction thresholds: eps_pgf_orb:                                1.0E-05
 QS|                         eps_filter_matrix:                          0.0E+00
 QS|                         eps_core_charge:                            1.0E-12
 QS|                         eps_rho_gspace:                             1.0E-10
 QS|                         eps_rho_rspace:                             1.0E-10
 QS|                         eps_gvg_rspace:                             1.0E-05
 QS|                         eps_ppl:                                    1.0E-02
 QS|                         eps_ppnl:                                   1.0E-07


 ATOMIC KIND INFORMATION

  1. Atomic kind: I                                     Number of atoms:     240

     Orbital Basis Set                                         SZV-MOLOPT-SR-GTH

       Number of orbital shell sets:                                           1
       Number of orbital shells:                                               2
       Number of primitive Cartesian functions:                                5
       Number of Cartesian basis functions:                                    4
       Number of spherical basis functions:                                    4
       Norm type:                                                              2

       Normalised Cartesian orbitals:

                        Set   Shell   Orbital            Exponent    Coefficient

                          1       1    2s                0.966173      -0.369082
                                                         0.828886      -0.032154
                                                         0.367159       0.255166
                                                         0.201369       0.106471
                                                         0.083015       0.018311

                          1       2    3px               0.966173      -1.009678
                                                         0.828886       0.783764
                                                         0.367159       0.107863
                                                         0.201369       0.101262
                                                         0.083015       0.016495
                          1       2    3py               0.966173      -1.009678
                                                         0.828886       0.783764
                                                         0.367159       0.107863
                                                         0.201369       0.101262
                                                         0.083015       0.016495
                          1       2    3pz               0.966173      -1.009678
                                                         0.828886       0.783764
                                                         0.367159       0.107863
                                                         0.201369       0.101262
                                                         0.083015       0.016495

       Atomic covalent radius [Angstrom]:                                  1.330

       Atomic van der Waals radius [Angstrom]:                             1.980

     GTH Potential information for                                       GTH-PBE

       Description:                       Goedecker-Teter-Hutter pseudopotential
                                           Goedecker et al., PRB 54, 1703 (1996)
                                          Hartwigsen et al., PRB 58, 3641 (1998)
                                                      Krack, TCA 114, 145 (2005)

       Gaussian exponent of the core charge distribution:               1.594388
       Electronic configuration (s p d ...):                               2   5

       Parameters of the local part of the GTH pseudopotential:

                          rloc        C1          C2          C3          C4
                        0.560000    8.207102

       Parameters of the non-local part of the GTH pseudopotential:

                   l      r(l)      h(i,j,l)

                   0    0.531928    2.308146    1.003909   -0.959156
                                    1.003909   -2.856109    2.476530
                                   -0.959156    2.476530   -1.965685
                   1    0.589182    0.906482    0.425071
                                    0.425071   -0.502950
                   2    0.739721    0.479195

  2. Atomic kind: Pb                                    Number of atoms:      64

     Orbital Basis Set                                         SZV-MOLOPT-SR-GTH

       Number of orbital shell sets:                                           1
       Number of orbital shells:                                               2
       Number of primitive Cartesian functions:                                5
       Number of Cartesian basis functions:                                    4
       Number of spherical basis functions:                                    4
       Norm type:                                                              2

       Normalised Cartesian orbitals:

                        Set   Shell   Orbital            Exponent    Coefficient

                          1       1    2s                1.933598      -0.156134
                                                         0.981425       0.419979
                                                         0.222223      -0.230246
                                                         0.077759      -0.022545
                                                         0.073968      -0.008640

                          1       2    3px               1.933598       0.064608
                                                         0.981425      -0.243154
                                                         0.222223       0.142297
                                                         0.077759       0.018505
                                                         0.073968       0.009435
                          1       2    3py               1.933598       0.064608
                                                         0.981425      -0.243154
                                                         0.222223       0.142297
                                                         0.077759       0.018505
                                                         0.073968       0.009435
                          1       2    3pz               1.933598       0.064608
                                                         0.981425      -0.243154
                                                         0.222223       0.142297
                                                         0.077759       0.018505
                                                         0.073968       0.009435

       Atomic covalent radius [Angstrom]:                                  1.470

       Atomic van der Waals radius [Angstrom]:                             2.020

     GTH Potential information for                                       GTH-PBE

       Description:                       Goedecker-Teter-Hutter pseudopotential
                                           Goedecker et al., PRB 54, 1703 (1996)
                                          Hartwigsen et al., PRB 58, 3641 (1998)
                                                      Krack, TCA 114, 145 (2005)

       Gaussian exponent of the core charge distribution:               1.311282
       Electronic configuration (s p d ...):                               2   2

       Parameters of the local part of the GTH pseudopotential:

                          rloc        C1          C2          C3          C4
                        0.617500    4.672384

       Parameters of the non-local part of the GTH pseudopotential:

                   l      r(l)      h(i,j,l)

                   0    0.622359    0.879918    2.081148   -1.431257
                                    2.081148   -5.014690    3.695490
                                   -1.431257    3.695490   -2.933204
                   1    0.812002    0.153457    0.478898
                                    0.478898   -0.566640
                   2    1.025015    0.301702

  3. Atomic kind: C                                     Number of atoms:      81

     Orbital Basis Set                                            SZV-MOLOPT-GTH

       Number of orbital shell sets:                                           1
       Number of orbital shells:                                               2
       Number of primitive Cartesian functions:                                7
       Number of Cartesian basis functions:                                    4
       Number of spherical basis functions:                                    4
       Norm type:                                                              2

       Normalised Cartesian orbitals:

                        Set   Shell   Orbital            Exponent    Coefficient

                          1       1    2s                6.132625      -0.263661
                                                         2.625196      -0.231112
                                                         1.045457       0.042712
                                                         0.478316       0.306085
                                                         0.178617       0.065483
                                                         0.075145       0.000568
                                                         0.030287       0.000417

                          1       2    3px               6.132625       0.562677
                                                         2.625196       0.633910
                                                         1.045457       0.379157
                                                         0.478316       0.235193
                                                         0.178617       0.052379
                                                         0.075145       0.003677
                                                         0.030287       0.000105
                          1       2    3py               6.132625       0.562677
                                                         2.625196       0.633910
                                                         1.045457       0.379157
                                                         0.478316       0.235193
                                                         0.178617       0.052379
                                                         0.075145       0.003677
                                                         0.030287       0.000105
                          1       2    3pz               6.132625       0.562677
                                                         2.625196       0.633910
                                                         1.045457       0.379157
                                                         0.478316       0.235193
                                                         0.178617       0.052379
                                                         0.075145       0.003677
                                                         0.030287       0.000105

       Atomic covalent radius [Angstrom]:                                  0.770

       Atomic van der Waals radius [Angstrom]:                             1.700

     GTH Potential information for                                       GTH-PBE

       Description:                       Goedecker-Teter-Hutter pseudopotential
                                           Goedecker et al., PRB 54, 1703 (1996)
                                          Hartwigsen et al., PRB 58, 3641 (1998)
                                                      Krack, TCA 114, 145 (2005)

       Gaussian exponent of the core charge distribution:               4.364419
       Electronic configuration (s p d ...):                               2   2

       Parameters of the local part of the GTH pseudopotential:

                          rloc        C1          C2          C3          C4
                        0.338471   -8.803674    1.339211

       Parameters of the non-local part of the GTH pseudopotential:

                   l      r(l)      h(i,j,l)

                   0    0.302576    9.622487
                   1    0.291507

  4. Atomic kind: N                                     Number of atoms:      81

     Orbital Basis Set                                            SZV-MOLOPT-GTH

       Number of orbital shell sets:                                           1
       Number of orbital shells:                                               2
       Number of primitive Cartesian functions:                                7
       Number of Cartesian basis functions:                                    4
       Number of spherical basis functions:                                    4
       Norm type:                                                              2

       Normalised Cartesian orbitals:

                        Set   Shell   Orbital            Exponent    Coefficient

                          1       1    2s                9.042730      -0.237404
                                                         3.882225      -0.265910
                                                         1.512880       0.102064
                                                         0.586631       0.295369
                                                         0.222851       0.088647
                                                         0.084583       0.003860
                                                         0.039194       0.000722

                          1       2    3px               9.042730       0.822162
                                                         3.882225       0.990771
                                                         1.512880       0.665657
                                                         0.586631       0.321705
                                                         0.222851       0.063706
                                                         0.084583       0.004155
                                                         0.039194      -0.000005
                          1       2    3py               9.042730       0.822162
                                                         3.882225       0.990771
                                                         1.512880       0.665657
                                                         0.586631       0.321705
                                                         0.222851       0.063706
                                                         0.084583       0.004155
                                                         0.039194      -0.000005
                          1       2    3pz               9.042730       0.822162
                                                         3.882225       0.990771
                                                         1.512880       0.665657
                                                         0.586631       0.321705
                                                         0.222851       0.063706
                                                         0.084583       0.004155
                                                         0.039194      -0.000005

       Atomic covalent radius [Angstrom]:                                  0.750

       Atomic van der Waals radius [Angstrom]:                             1.550

     GTH Potential information for                                       GTH-PBE

       Description:                       Goedecker-Teter-Hutter pseudopotential
                                           Goedecker et al., PRB 54, 1703 (1996)
                                          Hartwigsen et al., PRB 58, 3641 (1998)
                                                      Krack, TCA 114, 145 (2005)

       Gaussian exponent of the core charge distribution:               6.208322
       Electronic configuration (s p d ...):                               2   3

       Parameters of the local part of the GTH pseudopotential:

                          rloc        C1          C2          C3          C4
                        0.283791  -12.415226    1.868096

       Parameters of the non-local part of the GTH pseudopotential:

                   l      r(l)      h(i,j,l)

                   0    0.255405   13.630263
                   1    0.245495

  5. Atomic kind: H                                     Number of atoms:     486

     Orbital Basis Set                                            SZV-MOLOPT-GTH

       Number of orbital shell sets:                                           1
       Number of orbital shells:                                               1
       Number of primitive Cartesian functions:                                7
       Number of Cartesian basis functions:                                    1
       Number of spherical basis functions:                                    1
       Norm type:                                                              2

       Normalised Cartesian orbitals:

                        Set   Shell   Orbital            Exponent    Coefficient

                          1       1    2s               11.478000       0.129129
                                                         3.700759       0.177012
                                                         1.446884       0.141285
                                                         0.716815       0.245670
                                                         0.247919       0.094768
                                                         0.066918       0.004062
                                                         0.021708      -0.000053

       Atomic covalent radius [Angstrom]:                                  0.320

       Atomic van der Waals radius [Angstrom]:                             1.090

     GTH Potential information for                                    GTH-PBE-q1

       Description:                       Goedecker-Teter-Hutter pseudopotential
                                           Goedecker et al., PRB 54, 1703 (1996)
                                          Hartwigsen et al., PRB 58, 3641 (1998)
                                                      Krack, TCA 114, 145 (2005)

       Gaussian exponent of the core charge distribution:              12.500000
       Electronic configuration (s p d ...):                                   1

       Parameters of the local part of the GTH pseudopotential:

                          rloc        C1          C2          C3          C4
                        0.200000   -4.178900    0.724463


 MOLECULE KIND INFORMATION


 All atoms are their own molecule, skipping detailed information


 TOTAL NUMBERS AND MAXIMUM NUMBERS

  Total number of            - Atomic kinds:                                   5
                             - Atoms:                                        952
                             - Shell sets:                                   952
                             - Shells:                                      1418
                             - Primitive Cartesian functions:               6056
                             - Cartesian basis functions:                   2350
                             - Spherical basis functions:                   2350

  Maximum angular momentum of- Orbital basis functions:                        1
                             - Local part of the GTH pseudopotential:          2
                             - Non-local part of the GTH pseudopotential:      4


 MODULE QUICKSTEP:  ATOMIC COORDINATES IN angstrom

  Atom  Kind  Element       X           Y           Z          Z(eff)       Mass

       1     1 I   53   12.296807   12.755325    9.045167      7.0000     126.9045
       2     1 I   53   19.043023   13.367772    8.972213      7.0000     126.9045
       3     1 I   53   25.002391   12.798594    9.181417      7.0000     126.9045
       4     1 I   53   30.928357   13.391764    9.005505      7.0000     126.9045
       5     1 I   53   12.880079   19.269615    8.928306      7.0000     126.9045
       6     1 I   53   18.619060   19.077286    8.913744      7.0000     126.9045
       7     1 I   53   25.042647   19.099417    9.061528      7.0000     126.9045
       8     1 I   53   30.772769   19.265977    9.105564      7.0000     126.9045
       9     1 I   53   12.721851   25.476809    9.121862      7.0000     126.9045
      10     1 I   53   18.440341   25.428069    8.954599      7.0000     126.9045
      11     1 I   53   24.943015   25.310646    8.985683      7.0000     126.9045
      12     1 I   53   30.709227   25.391381    9.165498      7.0000     126.9045
      13     1 I   53   12.065163   31.848827    9.201351      7.0000     126.9045
      14     1 I   53   19.338692   31.786598    9.140947      7.0000     126.9045
      15     1 I   53   24.860296   31.739881    9.109514      7.0000     126.9045
      16     1 I   53   30.646086   31.521192    9.055131      7.0000     126.9045
      17     1 I   53   12.614047    9.223922   12.390275      7.0000     126.9045
      18     1 I   53   18.520592    9.525150   13.074569      7.0000     126.9045
      19     1 I   53   24.694482    9.419555   12.806562      7.0000     126.9045
      20     1 I   53   31.428121    9.831167   12.256313      7.0000     126.9045
      21     1 I   53    9.562776   11.533551   12.423662      7.0000     126.9045
      22     1 I   53   12.413278   12.818682   15.552061      7.0000     126.9045
      23     1 I   53   11.663456   15.917424   12.090289      7.0000     126.9045
      24     1 I   53   15.631325   12.650915   11.810038      7.0000     126.9045
      25     1 I   53   18.451111   11.698949   15.464714      7.0000     126.9045
      26     1 I   53   18.327287   15.839360   12.841847      7.0000     126.9045
      27     1 I   53   21.924556   13.009168   12.538419      7.0000     126.9045
      28     1 I   53   25.197928   12.809601   15.731787      7.0000     126.9045
      29     1 I   53   25.621252   15.891840   12.359647      7.0000     126.9045
      30     1 I   53   28.241244   12.516516   12.458936      7.0000     126.9045
      31     1 I   53   31.086718   12.932307   15.696872      7.0000     126.9045
      32     1 I   53   30.774232   16.113488   12.688150      7.0000     126.9045
      33     1 I   53   34.622275   13.732657   12.260988      7.0000     126.9045
      34     1 I   53    8.772533   19.118370   13.295060      7.0000     126.9045
      35     1 I   53   12.320361   18.929051   15.424508      7.0000     126.9045
      36     1 I   53   11.769690   22.105910   12.185775      7.0000     126.9045
      37     1 I   53   15.734098   19.380946   12.285273      7.0000     126.9045
      38     1 I   53   18.721403   19.027594   15.456229      7.0000     126.9045
      39     1 I   53   19.523429   22.189892   12.257583      7.0000     126.9045
      40     1 I   53   22.061041   18.238168   12.173825      7.0000     126.9045
      41     1 I   53   24.975114   18.966353   15.563436      7.0000     126.9045
      42     1 I   53   24.592506   22.202629   12.540494      7.0000     126.9045
      43     1 I   53   28.369298   19.719308   12.575706      7.0000     126.9045
      44     1 I   53   31.514415   19.156910   15.570078      7.0000     126.9045
      45     1 I   53   31.815663   22.320136   12.498870      7.0000     126.9045
      46     1 I   53   35.003543   19.142224   12.512639      7.0000     126.9045
      47     1 I   53    9.234368   25.503970   12.372506      7.0000     126.9045
      48     1 I   53   12.390653   25.272098   15.563926      7.0000     126.9045
      49     1 I   53   12.671532   28.632057   12.515245      7.0000     126.9045
      50     1 I   53   15.683788   24.595943   12.351833      7.0000     126.9045
      51     1 I   53   18.755139   25.295586   15.500620      7.0000     126.9045
      52     1 I   53   18.058368   28.601495   12.337990      7.0000     126.9045
      53     1 I   53   21.968545   26.022218   12.176924      7.0000     126.9045
      54     1 I   53   24.892325   25.325622   15.533073      7.0000     126.9045
      55     1 I   53   25.742013   28.586281   12.266428      7.0000     126.9045
      56     1 I   53   28.296990   24.851836   12.727517      7.0000     126.9045
      57     1 I   53   31.603748   25.514114   15.611481      7.0000     126.9045
      58     1 I   53   31.092653   28.686383   12.486808      7.0000     126.9045
      59     1 I   53   34.762032   25.595189   12.130826      7.0000     126.9045
      60     1 I   53    9.146918   31.917693   12.615592      7.0000     126.9045
      61     1 I   53   12.202807   31.778521   15.767491      7.0000     126.9045
      62     1 I   53   12.171551   35.276797   12.619127      7.0000     126.9045
      63     1 I   53   15.677373   32.465838   11.804573      7.0000     126.9045
      64     1 I   53   18.712062   31.493656   15.612530      7.0000     126.9045
      65     1 I   53   19.129265   35.138995   12.971356      7.0000     126.9045
      66     1 I   53   21.966962   31.178357   12.552552      7.0000     126.9045
      67     1 I   53   25.075783   31.554401   15.646481      7.0000     126.9045
      68     1 I   53   24.621389   35.375798   12.793544      7.0000     126.9045
      69     1 I   53   28.146542   32.135637   12.530208      7.0000     126.9045
      70     1 I   53   31.232150   31.449301   15.623103      7.0000     126.9045
      71     1 I   53   30.913285   35.327735   12.793887      7.0000     126.9045
      72     1 I   53   34.608233   31.616470   12.227246      7.0000     126.9045
      73     1 I   53   12.755983    9.548475   19.197653      7.0000     126.9045
      74     1 I   53   18.681237    9.215148   19.238400      7.0000     126.9045
      75     1 I   53   25.233248    9.327994   19.066028      7.0000     126.9045
      76     1 I   53   31.127442    9.710106   18.945876      7.0000     126.9045
      77     1 I   53    9.449134   13.235400   18.851768      7.0000     126.9045
      78     1 I   53   12.726379   12.868558   21.981893      7.0000     126.9045
      79     1 I   53   12.981851   15.922853   18.866776      7.0000     126.9045
      80     1 I   53   15.780006   12.627657   18.488096      7.0000     126.9045
      81     1 I   53   19.036448   12.809269   21.952876      7.0000     126.9045
      82     1 I   53   18.774198   15.767237   18.851048      7.0000     126.9045
      83     1 I   53   22.052601   12.603454   18.378707      7.0000     126.9045
      84     1 I   53   24.693720   12.593942   22.099441      7.0000     126.9045
      85     1 I   53   25.231845   15.792321   19.060688      7.0000     126.9045
      86     1 I   53   28.452772   12.784859   19.205926      7.0000     126.9045
      87     1 I   53   31.750710   12.949186   22.201867      7.0000     126.9045
      88     1 I   53   31.797875   15.815987   18.870479      7.0000     126.9045
      89     1 I   53   36.149753   14.076287   19.130149      7.0000     126.9045
      90     1 I   53    9.136549   18.695931   18.477799      7.0000     126.9045
      91     1 I   53   12.615991   18.991435   21.981313      7.0000     126.9045
      92     1 I   53   12.074134   22.258933   18.980792      7.0000     126.9045
      93     1 I   53   15.675787   19.445431   18.482408      7.0000     126.9045
      94     1 I   53   18.857518   18.997883   21.928909      7.0000     126.9045
      95     1 I   53   19.299851   22.218730   18.834584      7.0000     126.9045
      96     1 I   53   22.118212   18.774739   18.643126      7.0000     126.9045
      97     1 I   53   25.260858   19.010593   21.987927      7.0000     126.9045
      98     1 I   53   25.088598   22.199689   18.965437      7.0000     126.9045
      99     1 I   53   28.616613   19.038326   18.633329      7.0000     126.9045
     100     1 I   53   31.707598   19.108060   21.966550      7.0000     126.9045
     101     1 I   53   31.958974   22.221174   18.741112      7.0000     126.9045
     102     1 I   53   35.400264   19.020903   18.649891      7.0000     126.9045
     103     1 I   53    9.192524   25.813438   18.550610      7.0000     126.9045
     104     1 I   53   12.557022   25.307557   22.011490      7.0000     126.9045
     105     1 I   53   12.787103   28.703751   18.965052      7.0000     126.9045
     106     1 I   53   15.712297   25.040919   18.581285      7.0000     126.9045
     107     1 I   53   18.775448   25.276057   21.979714      7.0000     126.9045
     108     1 I   53   18.645759   28.666184   19.026790      7.0000     126.9045
     109     1 I   53   22.142131   25.843124   18.731261      7.0000     126.9045
     110     1 I   53   25.287292   25.343840   21.972336      7.0000     126.9045
     111     1 I   53   25.663308   28.663547   18.808199      7.0000     126.9045
     112     1 I   53   28.600261   25.134046   18.564043      7.0000     126.9045
     113     1 I   53   31.547237   25.170372   21.961165      7.0000     126.9045
     114     1 I   53   31.359882   28.613817   19.172301      7.0000     126.9045
     115     1 I   53   35.391818   25.281697   18.620542      7.0000     126.9045
     116     1 I   53    9.216603   31.644228   19.093400      7.0000     126.9045
     117     1 I   53   12.952850   31.480316   22.090653      7.0000     126.9045
     118     1 I   53   12.396546   35.618148   19.241329      7.0000     126.9045
     119     1 I   53   15.650210   32.079150   18.661956      7.0000     126.9045
     120     1 I   53   18.852551   31.576693   22.071445      7.0000     126.9045
     121     1 I   53   18.488542   35.365454   18.993131      7.0000     126.9045
     122     1 I   53   22.113951   31.908249   18.834413      7.0000     126.9045
     123     1 I   53   25.152047   31.477854   22.036568      7.0000     126.9045
     124     1 I   53   25.073312   35.293814   19.109737      7.0000     126.9045
     125     1 I   53   28.710103   32.410921   18.925058      7.0000     126.9045
     126     1 I   53   32.158333   32.059697   21.912633      7.0000     126.9045
     127     1 I   53   30.560101   36.809567   20.513502      7.0000     126.9045
     128     1 I   53   35.535665   30.557640   18.998902      7.0000     126.9045
     129     1 I   53   13.363956    9.200188   24.914600      7.0000     126.9045
     130     1 I   53   18.728232    9.290409   25.448533      7.0000     126.9045
     131     1 I   53   25.631311    9.365628   25.357569      7.0000     126.9045
     132     1 I   53   30.864420    9.407378   25.460263      7.0000     126.9045
     133     1 I   53    9.645481   13.123779   25.079949      7.0000     126.9045
     134     1 I   53   12.664971   12.429999   28.392892      7.0000     126.9045
     135     1 I   53   12.798241   15.755770   25.493404      7.0000     126.9045
     136     1 I   53   16.001617   12.978882   24.925577      7.0000     126.9045
     137     1 I   53   18.773281   12.804568   28.420355      7.0000     126.9045
     138     1 I   53   19.468341   15.812751   25.207631      7.0000     126.9045
     139     1 I   53   22.307646   12.305904   25.531343      7.0000     126.9045
     140     1 I   53   25.736712   12.965453   28.371392      7.0000     126.9045
     141     1 I   53   25.172635   15.858566   25.328207      7.0000     126.9045
     142     1 I   53   28.562457   12.981283   24.607492      7.0000     126.9045
     143     1 I   53   31.297602   13.021744   28.374675      7.0000     126.9045
     144     1 I   53   31.942520   15.829173   25.351031      7.0000     126.9045
     145     1 I   53   35.698266   13.277197   24.880194      7.0000     126.9045
     146     1 I   53    9.686258   19.035284   25.349203      7.0000     126.9045
     147     1 I   53   12.854010   18.988456   28.494994      7.0000     126.9045
     148     1 I   53   12.849624   22.177370   25.395001      7.0000     126.9045
     149     1 I   53   16.051775   18.845938   25.041884      7.0000     126.9045
     150     1 I   53   19.110628   18.997863   28.416449      7.0000     126.9045
     151     1 I   53   18.895546   22.230384   25.386929      7.0000     126.9045
     152     1 I   53   22.389055   19.429282   25.051657      7.0000     126.9045
     153     1 I   53   25.428422   19.076755   28.428367      7.0000     126.9045
     154     1 I   53   25.853245   22.221028   25.186992      7.0000     126.9045
     155     1 I   53   28.826421   18.864542   25.076490      7.0000     126.9045
     156     1 I   53   31.936609   19.192389   28.415917      7.0000     126.9045
     157     1 I   53   32.081949   22.203091   25.136267      7.0000     126.9045
     158     1 I   53   35.600829   18.994836   25.078865      7.0000     126.9045
     159     1 I   53    9.190987   25.230848   24.970075      7.0000     126.9045
     160     1 I   53   12.430042   25.253043   28.474881      7.0000     126.9045
     161     1 I   53   12.377628   28.631987   25.546841      7.0000     126.9045
     162     1 I   53   15.813402   25.651801   25.126310      7.0000     126.9045
     163     1 I   53   19.140208   25.369361   28.442079      7.0000     126.9045
     164     1 I   53   19.220136   28.691150   25.279804      7.0000     126.9045
     165     1 I   53   22.334746   25.239859   24.993309      7.0000     126.9045
     166     1 I   53   25.404388   25.259230   28.429209      7.0000     126.9045
     167     1 I   53   25.341261   28.628517   25.352292      7.0000     126.9045
     168     1 I   53   28.862616   25.635393   25.131547      7.0000     126.9045
     169     1 I   53   31.868449   25.137271   28.379145      7.0000     126.9045
     170     1 I   53   32.195077   28.668973   24.833150      7.0000     126.9045
     171     1 I   53   35.567367   25.212438   24.906773      7.0000     126.9045
     172     1 I   53    9.404937   31.926140   24.548416      7.0000     126.9045
     173     1 I   53   11.783626   32.052561   28.312316      7.0000     126.9045
     174     1 I   53   12.625067   35.198163   24.968692      7.0000     126.9045
     175     1 I   53   15.772656   31.761928   25.568916      7.0000     126.9045
     176     1 I   53   19.151969   31.511718   28.481332      7.0000     126.9045
     177     1 I   53   18.195758   35.706627   25.333899      7.0000     126.9045
     178     1 I   53   22.221835   32.099694   25.237439      7.0000     126.9045
     179     1 I   53   25.592326   31.467615   28.452292      7.0000     126.9045
     180     1 I   53   25.051687   35.294562   25.288503      7.0000     126.9045
     181     1 I   53   28.775800   31.829419   24.932502      7.0000     126.9045
     182     1 I   53   31.566286   31.228256   28.218179      7.0000     126.9045
     183     1 I   53   30.458386   36.457200   25.337619      7.0000     126.9045
     184     1 I   53   35.811792   31.036157   25.391344      7.0000     126.9045
     185     1 I   53   12.960788    9.758065   32.043440      7.0000     126.9045
     186     1 I   53   19.218617    9.833805   31.813104      7.0000     126.9045
     187     1 I   53   25.668969    9.579332   31.173949      7.0000     126.9045
     188     1 I   53   31.094421    9.641045   31.698744      7.0000     126.9045
     189     1 I   53    9.681544   13.223813   31.308667      7.0000     126.9045
     190     1 I   53   12.767474   13.200522   35.035558      7.0000     126.9045
     191     1 I   53   12.655325   16.217092   32.013826      7.0000     126.9045
     192     1 I   53   15.941508   13.237143   31.357515      7.0000     126.9045
     193     1 I   53   20.051502   13.363737   34.958249      7.0000     126.9045
     194     1 I   53   19.041502   16.133232   31.782774      7.0000     126.9045
     195     1 I   53   22.336510   13.062580   30.948560      7.0000     126.9045
     196     1 I   53   25.195351   12.700780   34.961412      7.0000     126.9045
     197     1 I   53   25.558911   15.988622   31.683879      7.0000     126.9045
     198     1 I   53   28.638920   13.188949   31.456553      7.0000     126.9045
     199     1 I   53   30.923096   13.203866   34.854773      7.0000     126.9045
     200     1 I   53   32.133839   15.926550   31.463398      7.0000     126.9045
     201     1 I   53   35.281903   12.378694   30.213447      7.0000     126.9045
     202     1 I   53    9.571313   19.391855   31.140901      7.0000     126.9045
     203     1 I   53   13.098089   19.530068   35.048415      7.0000     126.9045
     204     1 I   53   12.112486   22.494593   32.039490      7.0000     126.9045
     205     1 I   53   16.129044   19.475204   31.462017      7.0000     126.9045
     206     1 I   53   19.517762   19.254500   35.154958      7.0000     126.9045
     207     1 I   53   19.537054   22.304139   31.577501      7.0000     126.9045
     208     1 I   53   22.571178   19.150673   31.463202      7.0000     126.9045
     209     1 I   53   25.892248   19.200001   35.145352      7.0000     126.9045
     210     1 I   53   25.915913   22.261382   31.568388      7.0000     126.9045
     211     1 I   53   29.022190   19.096484   31.374828      7.0000     126.9045
     212     1 I   53   31.770363   19.120587   35.049373      7.0000     126.9045
     213     1 I   53   32.489745   22.258512   32.018294      7.0000     126.9045
     214     1 I   53   35.695730   18.947588   31.408877      7.0000     126.9045
     215     1 I   53    9.768252   26.047601   31.767604      7.0000     126.9045
     216     1 I   53   13.336704   25.454066   34.973623      7.0000     126.9045
     217     1 I   53   13.565505   28.618719   31.207719      7.0000     126.9045
     218     1 I   53   16.109360   24.934900   31.323484      7.0000     126.9045
     219     1 I   53   19.307407   25.235523   35.152656      7.0000     126.9045
     220     1 I   53   19.041601   28.590297   31.875709      7.0000     126.9045
     221     1 I   53   22.539611   25.473383   31.550765      7.0000     126.9045
     222     1 I   53   25.829604   25.200367   35.135201      7.0000     126.9045
     223     1 I   53   25.541541   28.569098   31.737886      7.0000     126.9045
     224     1 I   53   29.059885   25.653147   31.614599      7.0000     126.9045
     225     1 I   53   32.323430   25.808113   34.943338      7.0000     126.9045
     226     1 I   53   32.707539   28.581145   31.297917      7.0000     126.9045
     227     1 I   53   35.676232   25.302877   31.428274      7.0000     126.9045
     228     1 I   53    9.772146   31.200656   31.236050      7.0000     126.9045
     229     1 I   53   13.054028   31.209207   34.797388      7.0000     126.9045
     230     1 I   53   12.788646   35.003926   31.796454      7.0000     126.9045
     231     1 I   53   16.166519   31.929912   31.321856      7.0000     126.9045
     232     1 I   53   19.933820   31.678829   35.054431      7.0000     126.9045
     233     1 I   53   19.612129   35.048640   31.374308      7.0000     126.9045
     234     1 I   53   22.535252   31.554448   31.163902      7.0000     126.9045
     235     1 I   53   25.137430   31.379427   35.051720      7.0000     126.9045
     236     1 I   53   25.343502   35.349232   31.367694      7.0000     126.9045
     237     1 I   53   28.899185   31.100091   31.105928      7.0000     126.9045
     238     1 I   53   30.672148   31.544263   34.342355      7.0000     126.9045
     239     1 I   53   30.405361   36.148487   30.838120      7.0000     126.9045
     240     1 I   53   35.522118   32.412997   29.905980      7.0000     126.9045
     241     2 Pb  82   12.388051   12.853743   12.146736      4.0000     207.2000
     242     2 Pb  82   18.780473   12.915615   12.022887      4.0000     207.2000
     243     2 Pb  82   25.104202   12.487762   12.325656      4.0000     207.2000
     244     2 Pb  82   31.484474   12.973432   12.053111      4.0000     207.2000
     245     2 Pb  82   12.725920   19.190642   12.034262      4.0000     207.2000
     246     2 Pb  82   19.142216   19.118337   12.227229      4.0000     207.2000
     247     2 Pb  82   25.364421   19.054157   12.262890      4.0000     207.2000
     248     2 Pb  82   31.802350   19.136265   12.339845      4.0000     207.2000
     249     2 Pb  82   12.458024   25.550361   12.259470      4.0000     207.2000
     250     2 Pb  82   18.741076   25.534773   12.154411      4.0000     207.2000
     251     2 Pb  82   25.170721   25.471120   12.245687      4.0000     207.2000
     252     2 Pb  82   31.482255   25.493070   12.320605      4.0000     207.2000
     253     2 Pb  82   12.213875   32.177113   12.328669      4.0000     207.2000
     254     2 Pb  82   18.793393   32.052780   12.244007      4.0000     207.2000
     255     2 Pb  82   24.951228   32.158380   12.258675      4.0000     207.2000
     256     2 Pb  82   31.322111   31.987406   12.172425      4.0000     207.2000
     257     2 Pb  82   12.539287   12.611355   18.806740      4.0000     207.2000
     258     2 Pb  82   19.005546   12.349208   18.856134      4.0000     207.2000
     259     2 Pb  82   25.460968   12.467698   19.022931      4.0000     207.2000
     260     2 Pb  82   32.741493   12.302118   18.258929      4.0000     207.2000
     261     2 Pb  82   12.515501   19.021005   18.736693      4.0000     207.2000
     262     2 Pb  82   19.048835   18.937924   18.780122      4.0000     207.2000
     263     2 Pb  82   25.562306   18.963793   18.812335      4.0000     207.2000
     264     2 Pb  82   32.328708   18.859299   18.801457      4.0000     207.2000
     265     2 Pb  82   12.507858   25.499076   18.789149      4.0000     207.2000
     266     2 Pb  82   19.051766   25.380207   18.771822      4.0000     207.2000
     267     2 Pb  82   25.548212   25.388317   18.777865      4.0000     207.2000
     268     2 Pb  82   32.305808   25.301566   18.778735      4.0000     207.2000
     269     2 Pb  82   12.378482   32.180237   18.900115      4.0000     207.2000
     270     2 Pb  82   18.959625   31.876316   18.830960      4.0000     207.2000
     271     2 Pb  82   25.613290   31.923544   18.847687      4.0000     207.2000
     272     2 Pb  82   32.565957   31.436966   18.814726      4.0000     207.2000
     273     2 Pb  82   12.774601   12.425569   25.261143      4.0000     207.2000
     274     2 Pb  82   19.147246   12.403685   25.372450      4.0000     207.2000
     275     2 Pb  82   25.610951   12.490896   25.262049      4.0000     207.2000
     276     2 Pb  82   32.629509   12.356250   25.513577      4.0000     207.2000
     277     2 Pb  82   12.803681   18.968570   25.338575      4.0000     207.2000
     278     2 Pb  82   19.304164   18.924179   25.308419      4.0000     207.2000
     279     2 Pb  82   25.748191   18.952333   25.303535      4.0000     207.2000
     280     2 Pb  82   32.502507   18.885129   25.264269      4.0000     207.2000
     281     2 Pb  82   12.656395   25.448816   25.317924      4.0000     207.2000
     282     2 Pb  82   19.251437   25.328841   25.304402      4.0000     207.2000
     283     2 Pb  82   25.794390   25.334335   25.309260      4.0000     207.2000
     284     2 Pb  82   32.462525   25.314399   25.201180      4.0000     207.2000
     285     2 Pb  82   12.563386   32.074378   25.190037      4.0000     207.2000
     286     2 Pb  82   19.113630   31.795848   25.356027      4.0000     207.2000
     287     2 Pb  82   25.706814   31.756672   25.300014      4.0000     207.2000
     288     2 Pb  82   32.803868   31.768798   25.443973      4.0000     207.2000
     289     2 Pb  82   12.788403   12.852207   31.935984      4.0000     207.2000
     290     2 Pb  82   19.414754   12.938909   31.977886      4.0000     207.2000
     291     2 Pb  82   25.566635   12.724772   31.801207      4.0000     207.2000
     292     2 Pb  82   32.599861   12.475660   31.856016      4.0000     207.2000
     293     2 Pb  82   12.999182   19.327129   31.892582      4.0000     207.2000
     294     2 Pb  82   19.485845   19.205933   32.097201      4.0000     207.2000
     295     2 Pb  82   25.873193   19.085642   32.060026      4.0000     207.2000
     296     2 Pb  82   32.294830   18.969575   31.860175      4.0000     207.2000
     297     2 Pb  82   12.999622   25.617404   31.893795      4.0000     207.2000
     298     2 Pb  82   19.417936   25.454872   32.057587      4.0000     207.2000
     299     2 Pb  82   25.927507   25.346237   32.057865      4.0000     207.2000
     300     2 Pb  82   32.503548   25.408598   31.813438      4.0000     207.2000
     301     2 Pb  82   13.020138   31.891449   31.797997      4.0000     207.2000
     302     2 Pb  82   19.499409   31.905401   31.981724      4.0000     207.2000
     303     2 Pb  82   25.718656   31.668943   32.014110      4.0000     207.2000
     304     2 Pb  82   32.968156   31.763116   31.568198      4.0000     207.2000
     305     3 C    6   15.405593   15.868509    9.027686      4.0000      12.0107
     306     3 C    6   21.906999   16.101207    8.667692      4.0000      12.0107
     307     3 C    6   27.674436   15.988307    8.997332      4.0000      12.0107
     308     3 C    6   15.557298   22.276005    8.999972      4.0000      12.0107
     309     3 C    6   21.665606   22.068400    8.919356      4.0000      12.0107
     310     3 C    6   27.713523   22.200573    9.245819      4.0000      12.0107
     311     3 C    6   15.313355   28.738007    8.996890      4.0000      12.0107
     312     3 C    6   21.843677   28.305525    8.981648      4.0000      12.0107
     313     3 C    6   27.719293   28.402674    8.843036      4.0000      12.0107
     314     3 C    6   14.987356    9.465307   15.297757      4.0000      12.0107
     315     3 C    6   21.985595    9.719549   15.580727      4.0000      12.0107
     316     3 C    6   27.990431    9.642930   15.457719      4.0000      12.0107
     317     3 C    6    9.242851   15.740743   15.448368      4.0000      12.0107
     318     3 C    6   15.328940   15.901896   15.473781      4.0000      12.0107
     319     3 C    6   21.818186   15.870856   15.452239      4.0000      12.0107
     320     3 C    6   27.960781   15.998435   15.454174      4.0000      12.0107
     321     3 C    6   34.440787   16.314997   15.459729      4.0000      12.0107
     322     3 C    6    9.298069   22.199407   15.472421      4.0000      12.0107
     323     3 C    6   15.566438   22.109862   15.378319      4.0000      12.0107
     324     3 C    6   21.795100   22.114371   15.398906      4.0000      12.0107
     325     3 C    6   28.004693   22.115269   15.581402      4.0000      12.0107
     326     3 C    6   34.370474   22.433102   15.431026      4.0000      12.0107
     327     3 C    6    9.359226   28.403939   15.442302      4.0000      12.0107
     328     3 C    6   15.530546   28.395031   15.457770      4.0000      12.0107
     329     3 C    6   21.813321   28.418470   15.350059      4.0000      12.0107
     330     3 C    6   27.980757   28.284857   15.435840      4.0000      12.0107
     331     3 C    6   34.468117   28.669930   15.317052      4.0000      12.0107
     332     3 C    6   15.493945   34.652913   15.558197      4.0000      12.0107
     333     3 C    6   21.835933   34.510165   15.709075      4.0000      12.0107
     334     3 C    6   27.782090   34.541712   15.644146      4.0000      12.0107
     335     3 C    6   15.622807    9.790437   21.859092      4.0000      12.0107
     336     3 C    6   21.836797    9.529334   21.989305      4.0000      12.0107
     337     3 C    6   28.289436    9.636418   21.942314      4.0000      12.0107
     338     3 C    6    9.548563   15.997181   21.874319      4.0000      12.0107
     339     3 C    6   15.698888   15.857390   21.749645      4.0000      12.0107
     340     3 C    6   21.906810   15.899615   21.772021      4.0000      12.0107
     341     3 C    6   28.310200   16.003709   21.744336      4.0000      12.0107
     342     3 C    6   34.440966   16.332613   21.986191      4.0000      12.0107
     343     3 C    6    9.518820   22.029272   21.887579      4.0000      12.0107
     344     3 C    6   15.673409   22.117809   21.776868      4.0000      12.0107
     345     3 C    6   22.032997   22.121791   21.749883      4.0000      12.0107
     346     3 C    6   28.297784   22.114247   21.720376      4.0000      12.0107
     347     3 C    6   34.753903   22.181008   21.607359      4.0000      12.0107
     348     3 C    6    9.548651   28.358097   21.874462      4.0000      12.0107
     349     3 C    6   15.680094   28.369755   21.772259      4.0000      12.0107
     350     3 C    6   22.007848   28.452718   21.777890      4.0000      12.0107
     351     3 C    6   28.176124   28.310327   21.749630      4.0000      12.0107
     352     3 C    6   34.458501   27.744248   21.747673      4.0000      12.0107
     353     3 C    6   15.562327   34.556114   22.080099      4.0000      12.0107
     354     3 C    6   21.904347   34.645742   22.075731      4.0000      12.0107
     355     3 C    6   27.824227   34.402246   22.084713      4.0000      12.0107
     356     3 C    6   15.610990    9.646292   28.411955      4.0000      12.0107
     357     3 C    6   21.695845    9.891632   28.503359      4.0000      12.0107
     358     3 C    6   28.029467    9.650923   28.268299      4.0000      12.0107
     359     3 C    6    9.571218   15.953333   28.178084      4.0000      12.0107
     360     3 C    6   15.800398   15.967039   28.057797      4.0000      12.0107
     361     3 C    6   22.141987   15.968240   28.057158      4.0000      12.0107
     362     3 C    6   28.318510   16.086642   28.049506      4.0000      12.0107
     363     3 C    6   34.769248   16.084605   27.933878      4.0000      12.0107
     364     3 C    6    9.572739   22.177359   28.168784      4.0000      12.0107
     365     3 C    6   15.897491   22.125509   28.058634      4.0000      12.0107
     366     3 C    6   22.141236   22.139200   28.165527      4.0000      12.0107
     367     3 C    6   28.532140   22.122438   28.135978      4.0000      12.0107
     368     3 C    6   34.798994   22.097127   27.969092      4.0000      12.0107
     369     3 C    6    9.458119   28.317596   28.175781      4.0000      12.0107
     370     3 C    6   15.907669   28.417287   28.054785      4.0000      12.0107
     371     3 C    6   22.134191   28.343589   28.076534      4.0000      12.0107
     372     3 C    6   28.407317   28.205556   28.052263      4.0000      12.0107
     373     3 C    6   34.725190   28.083202   27.987843      4.0000      12.0107
     374     3 C    6   15.767262   34.656179   28.499272      4.0000      12.0107
     375     3 C    6   22.037356   34.631227   28.381544      4.0000      12.0107
     376     3 C    6   28.135132   34.391992   28.181700      4.0000      12.0107
     377     3 C    6   16.130770   15.876737   34.812509      4.0000      12.0107
     378     3 C    6   22.651424   16.318415   34.427927      4.0000      12.0107
     379     3 C    6   28.330043   16.087097   34.443741      4.0000      12.0107
     380     3 C    6   15.973417   22.202571   34.340672      4.0000      12.0107
     381     3 C    6   22.518232   22.118806   34.349612      4.0000      12.0107
     382     3 C    6   28.812960   22.187952   34.238357      4.0000      12.0107
     383     3 C    6   16.088805   28.531662   34.570054      4.0000      12.0107
     384     3 C    6   22.371636   28.299333   34.353561      4.0000      12.0107
     385     3 C    6   28.409330   28.297055   34.584646      4.0000      12.0107
     386     4 N    7   16.826458   15.995217    9.660218      5.0000      14.0067
     387     4 N    7   23.252878   15.983867    9.466331      5.0000      14.0067
     388     4 N    7   29.054496   16.209160    9.687712      5.0000      14.0067
     389     4 N    7   17.012028   22.200160    9.574081      5.0000      14.0067
     390     4 N    7   23.137745   22.090651    9.450711      5.0000      14.0067
     391     4 N    7   29.068965   22.294396   10.014751      5.0000      14.0067
     392     4 N    7   16.874908   28.669631    9.095004      5.0000      14.0067
     393     4 N    7   23.243846   28.407619    9.682808      5.0000      14.0067
     394     4 N    7   29.036253   28.413647    9.687344      5.0000      14.0067
     395     4 N    7   15.961458    9.183175   16.506948      5.0000      14.0067
     396     4 N    7   23.461506    9.760571   16.098281      5.0000      14.0067
     397     4 N    7   29.497686    9.753826   15.870625      5.0000      14.0067
     398     4 N    7   10.663284   15.855259   16.100349      5.0000      14.0067
     399     4 N    7   16.776106   15.865571   16.083357      5.0000      14.0067
     400     4 N    7   23.246663   15.868250   16.098175      5.0000      14.0067
     401     4 N    7   29.382018   16.098158   16.110488      5.0000      14.0067
     402     4 N    7   35.613442   15.425368   15.969143      5.0000      14.0067
     403     4 N    7   10.799029   22.094264   15.864015      5.0000      14.0067
     404     4 N    7   17.008901   22.092730   15.993853      5.0000      14.0067
     405     4 N    7   23.244463   22.088003   15.990477      5.0000      14.0067
     406     4 N    7   29.486475   22.091463   16.099538      5.0000      14.0067
     407     4 N    7   35.507203   22.077350   16.441250      5.0000      14.0067
     408     4 N    7   10.785378   28.416993   16.084333      5.0000      14.0067
     409     4 N    7   17.005721   28.404848   15.983714      5.0000      14.0067
     410     4 N    7   23.244215   28.413270   15.994889      5.0000      14.0067
     411     4 N    7   29.394205   28.295205   16.106386      5.0000      14.0067
     412     4 N    7   35.817308   28.301292   15.997325      5.0000      14.0067
     413     4 N    7   17.019776   34.509359   15.869911      5.0000      14.0067
     414     4 N    7   23.355238   34.513577   16.085571      5.0000      14.0067
     415     4 N    7   29.336310   34.356745   15.712870      5.0000      14.0067
     416     4 N    7   17.124814    9.872320   22.291114      5.0000      14.0067
     417     4 N    7   23.152354    8.991461   22.609736      5.0000      14.0067
     418     4 N    7   29.798601    9.945073   22.208189      5.0000      14.0067
     419     4 N    7   11.008562   15.872671   22.406271      5.0000      14.0067
     420     4 N    7   17.122166   15.863861   22.408873      5.0000      14.0067
     421     4 N    7   23.346583   15.875794   22.391992      5.0000      14.0067
     422     4 N    7   29.719941   16.079623   22.421393      5.0000      14.0067
     423     4 N    7   35.818095   15.643414   22.183922      5.0000      14.0067
     424     4 N    7   10.992547   22.080891   22.407663      5.0000      14.0067
     425     4 N    7   17.113481   22.087820   22.397927      5.0000      14.0067
     426     4 N    7   23.458286   22.088404   22.408729      5.0000      14.0067
     427     4 N    7   29.702959   22.077999   22.409925      5.0000      14.0067
     428     4 N    7   35.533188   21.915776   22.927864      5.0000      14.0067
     429     4 N    7   11.013835   28.413573   22.396487      5.0000      14.0067
     430     4 N    7   17.115441   28.406280   22.404409      5.0000      14.0067
     431     4 N    7   23.447031   28.399325   22.399820      5.0000      14.0067
     432     4 N    7   29.592511   28.184084   22.411841      5.0000      14.0067
     433     4 N    7   35.399509   28.728195   22.507473      5.0000      14.0067
     434     4 N    7   17.121107   34.512806   22.185301      5.0000      14.0067
     435     4 N    7   23.458715   34.506276   22.179536      5.0000      14.0067
     436     4 N    7   29.365723   34.276708   22.303585      5.0000      14.0067
     437     4 N    7   17.124315    9.754970   28.816140      5.0000      14.0067
     438     4 N    7   23.147032    9.325686   28.483946      5.0000      14.0067
     439     4 N    7   29.500134   10.101702   28.497336      5.0000      14.0067
     440     4 N    7   11.003355   15.856605   28.819735      5.0000      14.0067
     441     4 N    7   17.224668   15.975735   28.711522      5.0000      14.0067
     442     4 N    7   23.567164   15.973622   28.711733      5.0000      14.0067
     443     4 N    7   29.720051   16.198081   28.733561      5.0000      14.0067
     444     4 N    7   36.021331   15.859299   28.831709      5.0000      14.0067
     445     4 N    7   10.997867   22.077840   28.796529      5.0000      14.0067
     446     4 N    7   17.323672   22.090333   28.715826      5.0000      14.0067
     447     4 N    7   23.565465   22.089729   28.822944      5.0000      14.0067
     448     4 N    7   29.927477   22.084117   28.847832      5.0000      14.0067
     449     4 N    7   36.025216   21.986251   28.929581      5.0000      14.0067
     450     4 N    7   10.879961   28.417370   28.827647      5.0000      14.0067
     451     4 N    7   17.328895   28.410283   28.715376      5.0000      14.0067
     452     4 N    7   23.566458   28.303154   28.715719      5.0000      14.0067
     453     4 N    7   29.811469   28.076933   28.732730      5.0000      14.0067
     454     4 N    7   35.811729   28.507369   29.024464      5.0000      14.0067
     455     4 N    7   17.325195   34.495752   28.484597      5.0000      14.0067
     456     4 N    7   23.580707   34.385523   28.383076      5.0000      14.0067
     457     4 N    7   29.692834   34.292257   28.147436      5.0000      14.0067
     458     4 N    7   17.533044   16.090506   35.459651      5.0000      14.0067
     459     4 N    7   23.551105   16.198623   35.690890      5.0000      14.0067
     460     4 N    7   29.460897   16.333333   35.480070      5.0000      14.0067
     461     4 N    7   17.277125   22.131826   35.177068      5.0000      14.0067
     462     4 N    7   23.704407   22.111411   35.352171      5.0000      14.0067
     463     4 N    7   29.797525   22.201034   35.445806      5.0000      14.0067
     464     4 N    7   17.438997   28.399933   35.333352      5.0000      14.0067
     465     4 N    7   23.561741   28.169311   35.344268      5.0000      14.0067
     466     4 N    7   29.811481   28.380694   35.280212      5.0000      14.0067
     467     5 H    1   15.537580   15.924568    7.973553      1.0000       1.0079
     468     5 H    1   14.816474   16.677127    9.389187      1.0000       1.0079
     469     5 H    1   14.995854   14.928311    9.311980      1.0000       1.0079
     470     5 H    1   17.263617   16.913348    9.400453      1.0000       1.0079
     471     5 H    1   17.456265   15.230654    9.304151      1.0000       1.0079
     472     5 H    1   16.809856   15.927496   10.701365      1.0000       1.0079
     473     5 H    1   22.150260   16.141346    7.628383      1.0000       1.0079
     474     5 H    1   21.430949   17.003642    8.969484      1.0000       1.0079
     475     5 H    1   21.306169   15.255536    8.892407      1.0000       1.0079
     476     5 H    1   23.867855   16.800082    9.217618      1.0000       1.0079
     477     5 H    1   23.752538   15.085365    9.261808      1.0000       1.0079
     478     5 H    1   23.078496   16.032039   10.490423      1.0000       1.0079
     479     5 H    1   27.842145   16.021733    7.948880      1.0000       1.0079
     480     5 H    1   27.025689   16.774253    9.298677      1.0000       1.0079
     481     5 H    1   27.299618   15.042236    9.302415      1.0000       1.0079
     482     5 H    1   29.469646   17.140122    9.421155      1.0000       1.0079
     483     5 H    1   29.715741   15.439580    9.406159      1.0000       1.0079
     484     5 H    1   28.976487   16.181341   10.726243      1.0000       1.0079
     485     5 H    1   15.642379   22.354026    7.942475      1.0000       1.0079
     486     5 H    1   15.087564   23.133402    9.418799      1.0000       1.0079
     487     5 H    1   15.051339   21.383075    9.279714      1.0000       1.0079
     488     5 H    1   17.538585   23.069505    9.306479      1.0000       1.0079
     489     5 H    1   17.510257   21.349996    9.210881      1.0000       1.0079
     490     5 H    1   16.988331   22.146664   10.610898      1.0000       1.0079
     491     5 H    1   21.721358   21.929778    7.861665      1.0000       1.0079
     492     5 H    1   21.212309   22.995375    9.175666      1.0000       1.0079
     493     5 H    1   21.167471   21.254773    9.386277      1.0000       1.0079
     494     5 H    1   23.642442   22.925183    9.079637      1.0000       1.0079
     495     5 H    1   23.646367   21.218158    9.163958      1.0000       1.0079
     496     5 H    1   23.188877   22.143333   10.498177      1.0000       1.0079
     497     5 H    1   27.952120   22.235405    8.207092      1.0000       1.0079
     498     5 H    1   27.111644   23.027351    9.532955      1.0000       1.0079
     499     5 H    1   27.256571   21.276994    9.507932      1.0000       1.0079
     500     5 H    1   29.572060   23.181490    9.764507      1.0000       1.0079
     501     5 H    1   29.667284   21.467754    9.754388      1.0000       1.0079
     502     5 H    1   28.914543   22.268247   11.041901      1.0000       1.0079
     503     5 H    1   15.051150   28.790878    7.966732      1.0000       1.0079
     504     5 H    1   14.983955   29.598639    9.527954      1.0000       1.0079
     505     5 H    1   14.924353   27.851695    9.436511      1.0000       1.0079
     506     5 H    1   17.318302   29.467233    8.599281      1.0000       1.0079
     507     5 H    1   17.234972   27.769387    8.701845      1.0000       1.0079
     508     5 H    1   17.178373   28.702840   10.106438      1.0000       1.0079
     509     5 H    1   22.020840   28.132785    7.943677      1.0000       1.0079
     510     5 H    1   21.320773   29.214668    9.162040      1.0000       1.0079
     511     5 H    1   21.334409   27.477147    9.412656      1.0000       1.0079
     512     5 H    1   23.746190   29.280722    9.403836      1.0000       1.0079
     513     5 H    1   23.821441   27.565674    9.427056      1.0000       1.0079
     514     5 H    1   23.128436   28.421037   10.715989      1.0000       1.0079
     515     5 H    1   27.992375   28.347275    7.817181      1.0000       1.0079
     516     5 H    1   27.186842   29.297452    9.058642      1.0000       1.0079
     517     5 H    1   27.158874   27.548813    9.135890      1.0000       1.0079
     518     5 H    1   29.615718   29.256331    9.443135      1.0000       1.0079
     519     5 H    1   29.591004   27.533380    9.512467      1.0000       1.0079
     520     5 H    1   28.817421   28.465607   10.701968      1.0000       1.0079
     521     5 H    1   15.524644    9.307164   14.395567      1.0000       1.0079
     522     5 H    1   14.668425   10.478084   15.378315      1.0000       1.0079
     523     5 H    1   14.161015    8.798898   15.371215      1.0000       1.0079
     524     5 H    1   16.784992    9.824830   16.442294      1.0000       1.0079
     525     5 H    1   16.288398    8.189717   16.504713      1.0000       1.0079
     526     5 H    1   15.465333    9.376972   17.398008      1.0000       1.0079
     527     5 H    1   22.022107    9.728282   14.517825      1.0000       1.0079
     528     5 H    1   21.488302   10.584940   15.948116      1.0000       1.0079
     529     5 H    1   21.532812    8.831585   15.947947      1.0000       1.0079
     530     5 H    1   23.885964   10.709448   15.918832      1.0000       1.0079
     531     5 H    1   24.036498    9.064954   15.583006      1.0000       1.0079
     532     5 H    1   23.550876    9.575542   17.126594      1.0000       1.0079
     533     5 H    1   27.936791    9.701123   14.395027      1.0000       1.0079
     534     5 H    1   27.478811   10.460743   15.906813      1.0000       1.0079
     535     5 H    1   27.620759    8.710845   15.813159      1.0000       1.0079
     536     5 H    1   29.871948   10.704118   15.628111      1.0000       1.0079
     537     5 H    1   30.076394    9.046903   15.377596      1.0000       1.0079
     538     5 H    1   29.653150    9.619859   16.902362      1.0000       1.0079
     539     5 H    1    9.371413   15.689138   14.395182      1.0000       1.0079
     540     5 H    1    8.689781   16.601804   15.726713      1.0000       1.0079
     541     5 H    1    8.776368   14.861880   15.826892      1.0000       1.0079
     542     5 H    1   11.152418   16.734080   15.800832      1.0000       1.0079
     543     5 H    1   11.251327   15.023228   15.835685      1.0000       1.0079
     544     5 H    1   10.587198   15.868840   17.136321      1.0000       1.0079
     545     5 H    1   15.425132   15.911969   14.414442      1.0000       1.0079
     546     5 H    1   14.855444   16.789338   15.822249      1.0000       1.0079
     547     5 H    1   14.817080   15.032196   15.811349      1.0000       1.0079
     548     5 H    1   17.306218   16.728353   15.817923      1.0000       1.0079
     549     5 H    1   17.292610   15.043965   15.717007      1.0000       1.0079
     550     5 H    1   16.769065   15.803970   17.126885      1.0000       1.0079
     551     5 H    1   21.936298   15.805563   14.397585      1.0000       1.0079
     552     5 H    1   21.342496   16.783808   15.722208      1.0000       1.0079
[...]
 flops   590 x   416 x   196           1154549760       0.0%    100.0%      0.0%
 flops   588 x   128 x   160           1156055040       0.0%    100.0%      0.0%
 flops   427 x   288 x   196           1156958208       0.0%    100.0%      0.0%
 flops   428 x   288 x   196           1159667712       0.0%    100.0%      0.0%
 flops   608 x   416 x   196           1189773312       0.0%    100.0%      0.0%
 flops   416 x   128 x   160           1226833920       0.0%    100.0%      0.0%
 flops   576 x   128 x   197           1394343936       0.0%    100.0%      0.0%
 flops   590 x   384 x   193           1399234560       0.0%    100.0%      0.0%
 flops   608 x   384 x   193           1441923072       0.0%    100.0%      0.0%
 flops   576 x   398 x   197           1445179392       0.0%    100.0%      0.0%
 flops     1 x     1 x   139           1455246600       0.0%    100.0%      0.0%
 flops     1 x     1 x   140           1465716000       0.0%    100.0%      0.0%
 flops   416 x   256 x   196           1502871552       0.0%    100.0%      0.0%
 flops   416 x   128 x   197           1510539264       0.0%    100.0%      0.0%
 flops   576 x   416 x   197           1510539264       0.0%    100.0%      0.0%
 flops   587 x   128 x   128           1615724544       0.0%    100.0%      0.0%
 flops   588 x   128 x   128           1618477056       0.0%    100.0%      0.0%
 flops   576 x    96 x   192           1698693120       0.0%    100.0%      0.0%
 flops   416 x   128 x   128           1717567488       0.0%    100.0%      0.0%
 flops   587 x    96 x   192           1731133440       0.0%    100.0%      0.0%
 flops   588 x    96 x   192           1734082560       0.0%    100.0%      0.0%
 flops   590 x   128 x   192           1739980800       0.0%    100.0%      0.0%
 flops   608 x   128 x   192           1793064960       0.0%    100.0%      0.0%
 flops   576 x   128 x   196           2080899072       0.0%    100.0%      0.0%
 flops   576 x   398 x   196           2156765184       0.0%    100.0%      0.0%
 flops   416 x   288 x   193           2219802624       0.0%    100.0%      0.0%
 flops   416 x   128 x   196           2254307328       0.0%    100.0%      0.0%
 flops   576 x   416 x   196           2254307328       0.0%    100.0%      0.0%
 flops   576 x   384 x   193           2732064768       0.0%    100.0%      0.0%
 flops   590 x   384 x   197           2856468480       0.0%    100.0%      0.0%
 flops   608 x   384 x   197           2943614976       0.0%    100.0%      0.0%
 flops     4 x    32 x     1           3143909376       0.0%    100.0%      0.0%
 flops     1 x    32 x     4           3143909376       0.0%    100.0%      0.0%
 flops   576 x   128 x   192           3397386240       0.0%    100.0%      0.0%
 flops   587 x   128 x   192           3462266880       0.0%    100.0%      0.0%
 flops   588 x   128 x   192           3468165120       0.0%    100.0%      0.0%
 flops   590 x   384 x   196           4262952960       0.0%    100.0%      0.0%
 flops   608 x   384 x   196           4393009152       0.0%    100.0%      0.0%
 flops   416 x   288 x   197           4531617792       0.0%    100.0%      0.0%
 flops   576 x   384 x   197           5577375744       0.0%    100.0%      0.0%
 flops     4 x     1 x   139           6318717600       0.0%    100.0%      0.0%
 flops     1 x     4 x   139           6326056800       0.0%    100.0%      0.0%
 flops     4 x     1 x   140           6364176000       0.0%    100.0%      0.0%
 flops     1 x     4 x   140           6371568000       0.0%    100.0%      0.0%
 flops   416 x   288 x   196           6762921984       0.0%    100.0%      0.0%
 flops   576 x   384 x   196           8323596288       0.0%    100.0%      0.0%
 flops     1 x     1 x   160          13400832000       0.0%    100.0%      0.0%
 flops     4 x    32 x     4          14382489600       0.0%    100.0%      0.0%
 flops     1 x     1 x   128          18761164800       0.0%    100.0%      0.0%
 flops     4 x     4 x   139          29234035200       0.0%    100.0%      0.0%
 flops     4 x     4 x   140          29444352000       0.0%    100.0%      0.0%
 flops     4 x     1 x   160          58186752000       0.0%    100.0%      0.0%
 flops     1 x     4 x   160          58254336000       0.0%    100.0%      0.0%
 flops     4 x     1 x   128          81461452800       0.0%    100.0%      0.0%
 flops     1 x     4 x   128          81556070400       0.0%    100.0%      0.0%
 flops     4 x     4 x   160         269205504000       0.0%    100.0%      0.0%
 flops     4 x     4 x   128         376887705600       0.0%    100.0%      0.0%
 flops inhomo. stacks                           0       0.0%      0.0%      0.0%
 flops total                         1.223094E+12       0.0%    100.0%      0.0%
 flops max/rank                     54.459631E+09       0.0%    100.0%      0.0%
 matmuls inhomo. stacks                         0       0.0%      0.0%      0.0%
 matmuls total                          607897886       0.0%    100.0%      0.0%
 number of processed stacks                770743       0.0%    100.0%      0.0%
 average stack size                                     0.0     788.7       0.0
 marketing flops                    10.737694E+12
 -------------------------------------------------------------------------------
 # multiplications                            641
 max memory usage/rank               3.562672E+09
 # max total images/rank                        3
 # max 3D layers                                1
 # MPI messages exchanged                  292296
 MPI messages size (bytes):
  total size                       156.757492E+09
  min size                           0.000000E+00
  max size                           1.089536E+06
  average size                     536.297062E+03
 MPI breakdown and total messages size (bytes):
             size <=      128                3192                        0
       128 < size <=     8192                  60                   491520
      8192 < size <=    32768                 300                  4671000
     32768 < size <=   131072                 684                 79756464
    131072 < size <=  4194304              288060             156672694088
   4194304 < size <= 16777216                   0                        0
  16777216 < size                               0                        0
 -------------------------------------------------------------------------------

 *** WARNING in dbcsr_mm.F:294 :: Using a non-square number of MPI ranks ***
 *** might lead to poor performance. Used ranks: 24 Suggested: 25 49     ***

 -------------------------------------------------------------------------------
 -                                                                             -
 -                      DBCSR MESSAGE PASSING PERFORMANCE                      -
 -                                                                             -
 -------------------------------------------------------------------------------
 ROUTINE             CALLS      AVE VOLUME [Bytes]
 MP_Bcast              328                     12.
 MP_Allreduce         5064                     10.
 MP_Alltoall         17379                 356741.
 MP_ISend            30682                 242852.
 MP_IRecv            29456                 246853.
 -------------------------------------------------------------------------------

 -------------------------------------------------------------------------------
 -                                                                             -
 -                                GRID STATISTICS                              -
 -                                                                             -
 -------------------------------------------------------------------------------
 LP    KERNEL             BACKEND                              COUNT     PERCENT
 1     collocate ortho    REF                              235122538      24.52%
 1     integrate ortho    REF                              234341400      24.44%
 2     collocate ortho    REF                              125532050      13.09%
 2     integrate ortho    REF                              125115000      13.05%
 0     collocate ortho    REF                              119558404      12.47%
 0     integrate ortho    REF                              119161200      12.43%
 0     collocate general  REF                                  45696       0.00%
 0     integrate general  REF                                  45696       0.00%
 -------------------------------------------------------------------------------

 MEMORY| Estimated peak process memory [MiB]                                3398

 -------------------------------------------------------------------------------
 ----                             MULTIGRID INFO                            ----
 -------------------------------------------------------------------------------
 count for grid        1:         358296          cutoff [a.u.]          110.00
 count for grid        2:         291686          cutoff [a.u.]           36.67
 count for grid        3:         282084          cutoff [a.u.]           12.22
 count for grid        4:         161310          cutoff [a.u.]            4.07
 total gridlevel count  :        1093376

 -------------------------------------------------------------------------------
 -                                                                             -
 -                         MESSAGE PASSING PERFORMANCE                         -
 -                                                                             -
 -------------------------------------------------------------------------------

 ROUTINE             CALLS      AVE VOLUME [Bytes]
 MP_Group                4
 MP_Bcast              489                2208377.
 MP_Allreduce        10223                   8974.
 MP_Sync               610
 MP_Alltoall         11725              114548115.
 MP_ISendRecv        55292                 533400.
 MP_Wait             93820
 MP_comm_split           2
 MP_ISend            28896                3366405.
 MP_IRecv            28896                3366405.
 MP_Recv              1500                 601600.
 -------------------------------------------------------------------------------


 -------------------------------------------------------------------------------
 -                                                                             -
 -                           R E F E R E N C E S                               -
 -                                                                             -
 -------------------------------------------------------------------------------
 
 CP2K version 8.2, the CP2K developers group (2021).
 CP2K is freely available from https://www.cp2k.org/ .

 Kuehne,Thomas D.; Iannuzzi,Marcella; Del Ben,Mauro;
 Rybkin,Vladimir V.; Seewald,Patrick; Stein,Frederick; Laino,Teodoro;
 Khaliullin,Rustam Z.; Schuett,Ole; Schiffmann,Florian; Golze,Dorothea;
 Wilhelm,Jan; Chulkov,Sergey; Bani-Hashemian,Mohammad Hossein;
 Weber,Valery; Borstnik,Urban; Taillefumier,Mathieu;
 Jakobovits,Alice Shoshana; Lazzaro,Alfio; Pabst,Hans; Mueller,Tiziano;
 Schade,Robert; Guidon,Manuel; Andermatt,Samuel; Holmberg,Nico;
 Schenter,Gregory K.; Hehn,Anna; Bussy,Augustin; Belleflamme,Fabian;
 Tabacchi,Gloria; Gloess,Andreas; Lass,Michael; Bethune,Iain;
 Mundy,Christopher J.; Plessl,Christian; Watkins,Matt;
 VandeVondele,Joost; Krack,Matthias; Hutter,Juerg. 
 The Journal of Chemical Physics, 152 (19), (2020). 
 CP2K: An electronic structure and molecular dynamics software package -
 Quickstep: Efficient and accurate electronic structure calculations.
 https://doi.org/10.1063/5.0007045

 Goerigk, Lars; Hansen, Andreas; Bauer, Christoph; Ehrlich, Stephan;
 Najibi, Asim; Grimme, Stefan. , 19 (48), (2017). 
 A look at the density functional theory zoo with the advanced GMTKN55 database
 for general main group thermochemistry, kinetics and noncovalent interactions.
 https://doi.org/10.1039/C7CP04913G

 Schuett, Ole; Messmer, Peter; Hutter, Juerg; VandeVondele, Joost. 
 Electronic Structure Calculations on Graphics Processing Units, John
 Wiley & Sons, Ltd, 173-190 (2016). 
 GPU-Accelerated Sparse Matrix-Matrix Multiplication for
 Linear Scaling Density Functional Theory.
 https://doi.org/10.1002/9781118670712.ch8

 Heinecke, A; Henry, G; Hutchinson, M; Pabst, H. 
 Proceedings of Intl. Supercomputing Conference, 981-991 (2016). 
 LIBXSMM: Accelerating Small Matrix Multiplications
 by Runtime Code Generation.
 https://doi.org/10.1109/SC.2016.83

 Borstnik, U; VandeVondele, J; Weber, V; Hutter, J. 
 PARALLEL COMPUTING, 40 (5-6), 47-58 (2014). 
 Sparse matrix multiplication: The distributed block-compressed sparse
 row library.
 https://doi.org/10.1016/j.parco.2014.03.012

 Hutter, J; Iannuzzi, M; Schiffmann, F; VandeVondele, J. 
 WIREs Comput Mol Sci., 4 (1), 15-25 (2014). 
 CP2K: atomistic simulations of condensed matter systems.
 https://doi.org/10.1002/wcms.1159

 Grimme, S; Ehrlich, S; Goerigk, L. 
 JOURNAL OF COMPUTATIONAL CHEMISTRY, 32, 1456 (2011). 
 Effect of the damping function in dispersion corrected density functional theory.
 https://doi.org/10.1002/jcc.21759

 Grimme, S; Antony, J; Ehrlich, S; Krieg, H. 
 JOURNAL OF CHEMICAL PHYSICS, 132 (15), 154104 (2010). 
 A consistent and accurate ab initio parametrization of density
 functional dispersion correction (DFT-D) for the 94 elements H-Pu.
 https://doi.org/10.1063/1.3382344

 VandeVondele, J; Hutter, J. 
 JOURNAL OF CHEMICAL PHYSICS, 127 (11), 114105 (2007). 
 Gaussian basis sets for accurate calculations on molecular systems in
 gas and condensed phases.
 https://doi.org/10.1063/1.2770708

 Krack, M. 
 THEORETICAL CHEMISTRY ACCOUNTS, 114 (1-3), 145-152 (2005). 
 Pseudopotentials for H to Kr optimized for gradient-corrected
 exchange-correlation functionals.
 https://doi.org/10.1007/s00214-005-0655-y

 VandeVondele, J; Krack, M; Mohamed, F; Parrinello, M; Chassaing, T;
 Hutter, J. COMPUTER PHYSICS COMMUNICATIONS, 167 (2), 103-128 (2005). 
 QUICKSTEP: Fast and accurate density functional calculations using a
 mixed Gaussian and plane waves approach.
 https://doi.org/10.1016/j.cpc.2004.12.014

 Frigo, M; Johnson, SG. 
 PROCEEDINGS OF THE IEEE, 93 (2), 216-231 (2005). 
 The design and implementation of FFTW3.
 https://doi.org/10.1109/JPROC.2004.840301

 VandeVondele, J; Hutter, J. 
 JOURNAL OF CHEMICAL PHYSICS, 118 (10), 4365-4369 (2003). 
 An efficient orbital transformation method for electronic structure
 calculations.
 https://doi.org/10.1063/1.1543154

 Hartwigsen, C; Goedecker, S; Hutter, J. 
 PHYSICAL REVIEW B, 58 (7), 3641-3662 (1998). 
 Relativistic separable dual-space Gaussian pseudopotentials from H to Rn.
 https://doi.org/10.1103/PhysRevB.58.3641

 Lippert, G; Hutter, J; Parrinello, M. 
 MOLECULAR PHYSICS, 92 (3), 477-487 (1997). 
 A hybrid Gaussian and plane wave density functional scheme.
 https://doi.org/10.1080/002689797170220

 Perdew, JP; Burke, K; Ernzerhof, M. 
 PHYSICAL REVIEW LETTERS, 77 (18), 3865-3868 (1996). 
 Generalized gradient approximation made simple.
 https://doi.org/10.1103/PhysRevLett.77.3865

 Goedecker, S; Teter, M; Hutter, J. 
 PHYSICAL REVIEW B, 54 (3), 1703-1710 (1996). 
 Separable dual-space Gaussian pseudopotentials.
 https://doi.org/10.1103/PhysRevB.54.1703


 -------------------------------------------------------------------------------
 -                                                                             -
 -                                T I M I N G                                  -
 -                                                                             -
 -------------------------------------------------------------------------------
 SUBROUTINE                       CALLS  ASD         SELF TIME        TOTAL TIME
                                MAXIMUM       AVERAGE  MAXIMUM  AVERAGE  MAXIMUM
 CP2K                                 1  1.0     0.22     0.33 10590.58 10590.60
 qs_energies                          1  2.0     0.00     0.00 10586.19 10586.22
 scf_env_do_scf                       1  3.0     0.00     0.00 10548.88 10548.93
 scf_env_do_scf_inner_loop          300  4.0     0.01     0.09 10548.88 10548.93
 qs_ks_update_qs_env                300  5.0     0.00     0.00  5309.08  5309.25
 rebuild_ks_matrix                  300  6.0     0.00     0.00  5300.17  5300.39
 qs_ks_build_kohn_sham_matrix       300  7.0     0.06     0.08  5300.17  5300.39
 pw_transfer                      11109  9.5     1.23     1.31  4724.99  4963.63
 fft_wrap_pw1pw2                  10509 10.5     0.21     0.23  4706.87  4945.36
 fft_wrap_pw1pw2_110               6903 11.6   333.79   336.86  4368.84  4607.49
 fft3d_ps                         10509 12.5  1528.78  1546.79  3665.26  3904.59
 qs_vxc_create                      300  8.0     0.01     0.02  3594.47  3595.54
 xc_vxc_pw_create                   300  9.0    58.90    61.90  3594.46  3595.53
 qs_scf_new_mos                     300  5.0     0.01     0.02  2026.86  2027.10
 xc_rho_set_and_dset_create         300 10.0    24.95    25.57  1795.16  1879.55
 eigensolver                        600  6.0     0.04     0.06  1835.31  1836.21
 qs_rho_update_rho                  301  5.0     0.00     0.00  1805.00  1805.42
 calculate_rho_elec                 602  6.0     7.94     8.24  1805.00  1805.41
 mp_alltoall_z22v                 10509 14.5  1409.51  1643.08  1409.51  1643.08
 cp_fm_syevd                        604  7.0     0.01     0.03  1514.92  1517.41
 cp_fm_syevd_base                   604  8.0  1510.74  1514.35  1510.74  1514.35
 sum_up_and_integrate               300  8.0     8.00     8.11  1407.65  1407.80
 integrate_v_rspace                 600  9.0     0.03     0.03  1399.65  1399.82
 gspace_mixing                      299  5.0     7.93     8.14  1398.98  1399.08
 density_rs2pw                      602  7.0     0.04     0.06  1254.58  1320.50
 x_to_yz                           5700 13.9   478.27   480.21  1196.75  1208.96
 yz_to_x                           4809 13.1   248.40   255.01   939.43  1175.54
 broyden_mixing                     299  6.0   815.76   820.80   918.49   923.83
 potential_pw2rs                    600 10.0     0.83     0.88   816.29   816.68
 rs_pw_transfer                    4812  9.5     0.11     0.14   637.13   703.56
 grid_collocate_task_list           602  7.0   486.62   578.57   486.62   578.57
 xc_functional_eval                 300 11.0     0.01     0.02   471.60   556.56
 pbe_lsd_eval                       300 12.0   471.59   556.55   471.59   556.55
 grid_integrate_task_list           600 10.0   439.38   503.85   439.38   503.85
 pw_scatter_p                      5700 12.9   364.69   371.80   364.69   371.80
 mp_waitany                       28896 11.5   257.64   344.04   257.64   344.04
 pw_gather_p                       4809 12.1   334.46   343.40   334.46   343.40
 cp_fm_cholesky_restore            1800  7.0   315.43   319.57   315.43   319.57
 rs_pw_transfer_RS2PW_110           604  9.0    68.02    76.39   225.24   293.09
 mp_alltoall_d11v                  8639  9.3   217.15   270.64   217.15   270.64
 fft_wrap_pw1pw2_40                1202 11.5     7.21     7.46   231.37   236.33
 -------------------------------------------------------------------------------

 The number of warnings for this run is : 4
 
 -------------------------------------------------------------------------------
  **** **** ******  **  PROGRAM ENDED AT                 2023-12-04 16:16:37.850
 ***** ** ***  *** **   PROGRAM RAN ON                  pe87.int.triton.aalto.fi
 **    ****   ******    PROGRAM RAN BY                                   huangj4
 ***** **    ** ** **   PROGRAM PROCESS ID                                 29502
  **** **  *******  **  PROGRAM STOPPED IN /scratch/phys/sin/Jie/Github/cp2kTest
                                           /PDOSNaked234/Cluster_444
