 DBCSR| CPU Multiplication driver                                           XSMM
 DBCSR| Multrec recursion limit                                              512
 DBCSR| Multiplication stack size                                           1000
 DBCSR| Maximum elements for images                                    UNLIMITED
 DBCSR| Multiplicative factor virtual images                                   1
 DBCSR| Use multiplication densification                                       T
 DBCSR| Multiplication size stacks                                             3
 DBCSR| Use memory pool for CPU allocation                                     F
 DBCSR| Number of 3D layers                                               SINGLE
 DBCSR| Use MPI memory allocation                                              F
 DBCSR| Use RMA algorithm                                                      F
 DBCSR| Use Communication thread                                               T
 DBCSR| Communication thread load                                             87
 DBCSR| MPI: My node id                                                        0
 DBCSR| MPI: Number of nodes                                                  12
 DBCSR| OMP: Current number of threads                                         1
 DBCSR| OMP: Max number of threads                                             1
 DBCSR| Split modifier for TAS multiplication algorithm                  1.0E+00


  **** **** ******  **  PROGRAM STARTED AT               2023-12-04 02:04:16.730
 ***** ** ***  *** **   PROGRAM STARTED ON              pe85.int.triton.aalto.fi
 **    ****   ******    PROGRAM STARTED BY                               huangj4
 ***** **    ** ** **   PROGRAM PROCESS ID                                 17270
  **** **  *******  **  PROGRAM STARTED IN /scratch/phys/sin/Jie/Github/cp2kTest
                                           /PDOSNaked234/Cluster_333

 CP2K| version string:                                          CP2K version 8.2
 CP2K| source code revision number:                                  git:310b7ab
 CP2K| cp2kflags: omp libint fftw3 libxc parallel mpi3 scalapack xsmm           
 CP2K| is freely available from                            https://www.cp2k.org/
 CP2K| Program compiled at                          Thu May 12 10:08:29 UTC 2022
 CP2K| Program compiled on                                          80d7174ae3e8
 CP2K| Program compiled for                            linux-centos7-haswell-gcc
 CP2K| Data directory path    /share/apps/spack/envs/fgci-centos7-haswell/softwa
 CP2K| Input file name                                                 input.inp

 GLOBAL| Force Environment number                                              1
 GLOBAL| Basis set file name                                        BASIS_MOLOPT
 GLOBAL| Potential file name                                      GTH_POTENTIALS
 GLOBAL| MM Potential file name                                     MM_POTENTIAL
 GLOBAL| Coordinate file name                                MAPbI3-pos-last.xyz
 GLOBAL| Method name                                                        CP2K
 GLOBAL| Project name                                                 MAPbI3_DOS
 GLOBAL| Run type                                                         ENERGY
 GLOBAL| FFT library                                                       FFTW3
 GLOBAL| Diagonalization library                                       ScaLAPACK
 GLOBAL| Orthonormality check for eigenvectors                          DISABLED
 GLOBAL| Matrix multiplication library                                    SCALAP
 GLOBAL| All-to-all communication in single precision                          F
 GLOBAL| FFTs using library dependent lengths                                  F
 GLOBAL| Grid backend                                                       AUTO
 GLOBAL| Global print level                                               MEDIUM
 GLOBAL| MPI I/O enabled                                                       T
 GLOBAL| Total number of message passing processes                            12
 GLOBAL| Number of threads for this process                                    1
 GLOBAL| This output is from process                                           0
 GLOBAL| CPU model name                Intel(R) Xeon(R) CPU E5-2680 v4 @ 2.40GHz
 GLOBAL| CPUID                                                              1002

 MEMORY| system memory details [Kb]
 MEMORY|                        rank 0           min           max       average
 MEMORY| MemTotal            131936832     131936832     131936832     131936832
 MEMORY| MemFree             115017576     115017576     115017576     115017576
 MEMORY| Buffers                173448        173448        173448        173448
 MEMORY| Cached               11917480      11917480      11917480      11917480
 MEMORY| Slab                   920860        920860        920860        920860
 MEMORY| SReclaimable           445208        445208        445208        445208
 MEMORY| MemLikelyFree       127553712     127553712     127553712     127553712


 *** Fundamental physical constants (SI units) ***

 *** Literature: B. J. Mohr and B. N. Taylor,
 ***             CODATA recommended values of the fundamental physical
 ***             constants: 2006, Web Version 5.1
 ***             http://physics.nist.gov/constants

 Speed of light in vacuum [m/s]                             2.99792458000000E+08
 Magnetic constant or permeability of vacuum [N/A**2]       1.25663706143592E-06
 Electric constant or permittivity of vacuum [F/m]          8.85418781762039E-12
 Planck constant (h) [J*s]                                  6.62606896000000E-34
 Planck constant (h-bar) [J*s]                              1.05457162825177E-34
 Elementary charge [C]                                      1.60217648700000E-19
 Electron mass [kg]                                         9.10938215000000E-31
 Electron g factor [ ]                                     -2.00231930436220E+00
 Proton mass [kg]                                           1.67262163700000E-27
 Fine-structure constant                                    7.29735253760000E-03
 Rydberg constant [1/m]                                     1.09737315685270E+07
 Avogadro constant [1/mol]                                  6.02214179000000E+23
 Boltzmann constant [J/K]                                   1.38065040000000E-23
 Atomic mass unit [kg]                                      1.66053878200000E-27
 Bohr radius [m]                                            5.29177208590000E-11

 *** Conversion factors ***

 [u] -> [a.u.]                                              1.82288848426455E+03
 [Angstrom] -> [Bohr] = [a.u.]                              1.88972613288564E+00
 [a.u.] = [Bohr] -> [Angstrom]                              5.29177208590000E-01
 [a.u.] -> [s]                                              2.41888432650478E-17
 [a.u.] -> [fs]                                             2.41888432650478E-02
 [a.u.] -> [J]                                              4.35974393937059E-18
 [a.u.] -> [N]                                              8.23872205491840E-08
 [a.u.] -> [K]                                              3.15774647902944E+05
 [a.u.] -> [kJ/mol]                                         2.62549961709828E+03
 [a.u.] -> [kcal/mol]                                       6.27509468713739E+02
 [a.u.] -> [Pa]                                             2.94210107994716E+13
 [a.u.] -> [bar]                                            2.94210107994716E+08
 [a.u.] -> [atm]                                            2.90362800883016E+08
 [a.u.] -> [eV]                                             2.72113838565563E+01
 [a.u.] -> [Hz]                                             6.57968392072181E+15
 [a.u.] -> [1/cm] (wave numbers)                            2.19474631370540E+05
 [a.u./Bohr**2] -> [1/cm]                                   5.14048714338585E+03
 

 CELL_TOP| Volume [angstrom^3]:                                     49130.606547
 CELL_TOP| Vector a [angstrom    37.330     0.000     0.000   |a| =    37.330000
 CELL_TOP| Vector b [angstrom     0.000    36.630     0.000   |b| =    36.630000
 CELL_TOP| Vector c [angstrom     0.000     0.000    35.930   |c| =    35.930000
 CELL_TOP| Angle (b,c), alpha [degree]:                                90.000000
 CELL_TOP| Angle (a,c), beta  [degree]:                                90.000000
 CELL_TOP| Angle (a,b), gamma [degree]:                                90.000000
 CELL_TOP| Numerically orthorhombic:                                         YES

 GENERATE|  Preliminary Number of Bonds generated:                             0
 GENERATE|  Achieved consistency in connectivity generation.

 CELL| Volume [angstrom^3]:                                         49130.606547
 CELL| Vector a [angstrom]:      37.330     0.000     0.000   |a| =    37.330000
 CELL| Vector b [angstrom]:       0.000    36.630     0.000   |b| =    36.630000
 CELL| Vector c [angstrom]:       0.000     0.000    35.930   |c| =    35.930000
 CELL| Angle (b,c), alpha [degree]:                                    90.000000
 CELL| Angle (a,c), beta  [degree]:                                    90.000000
 CELL| Angle (a,b), gamma [degree]:                                    90.000000
 CELL| Numerically orthorhombic:                                             YES

 CELL_REF| Volume [angstrom^3]:                                     49130.606547
 CELL_REF| Vector a [angstrom    37.330     0.000     0.000   |a| =    37.330000
 CELL_REF| Vector b [angstrom     0.000    36.630     0.000   |b| =    36.630000
 CELL_REF| Vector c [angstrom     0.000     0.000    35.930   |c| =    35.930000
 CELL_REF| Angle (b,c), alpha [degree]:                                90.000000
 CELL_REF| Angle (a,c), beta  [degree]:                                90.000000
 CELL_REF| Angle (a,b), gamma [degree]:                                90.000000
 CELL_REF| Numerically orthorhombic:                                         YES

 *******************************************************************************
 *******************************************************************************
 **                                                                           **
 **     #####                         ##              ##                      **
 **    ##   ##            ##          ##              ##                      **
 **   ##     ##                       ##            ######                    **
 **   ##     ##  ##   ##  ##   #####  ##  ##   ####   ##    #####    #####    **
 **   ##     ##  ##   ##  ##  ##      ## ##   ##      ##   ##   ##  ##   ##   **
 **   ##  ## ##  ##   ##  ##  ##      ####     ###    ##   ######   ######    **
 **    ##  ###   ##   ##  ##  ##      ## ##      ##   ##   ##       ##        **
 **     #######   #####   ##   #####  ##  ##  ####    ##    #####   ##        **
 **           ##                                                    ##        **
 **                                                                           **
 **                                                ... make the atoms dance   **
 **                                                                           **
 **            Copyright (C) by CP2K developers group (2000-2021)             **
 **                      J. Chem. Phys. 152, 194103 (2020)                    **
 **                                                                           **
 *******************************************************************************

 DFT| Spin unrestricted (spin-polarized) Kohn-Sham calculation               UKS
 DFT| Multiplicity                                                             1
 DFT| Number of spin states                                                    2
 DFT| Charge                                                                   0
 DFT| Self-interaction correction (SIC)                                       NO
 DFT| Cutoffs: density                                              1.000000E-10
 DFT|          gradient                                             1.000000E-10
 DFT|          tau                                                  1.000000E-10
 DFT|          cutoff_smoothing_range                               0.000000E+00
 DFT| XC density smoothing                                                  NONE
 DFT| XC derivatives                                                          PW
 FUNCTIONAL| ROUTINE=NEW
 FUNCTIONAL| PBE:
 FUNCTIONAL| J.P.Perdew, K.Burke, M.Ernzerhof, Phys. Rev. Letter, vol. 77, n 18,
 FUNCTIONAL|  pp. 3865-3868, (1996){spin polarized}                             
 vdW POTENTIAL|                                                   Pair Potential
 vdW POTENTIAL|          DFT-D3 (Version 3.1)
 vdW POTENTIAL|          Potential Form: S. Grimme et al, JCP 132: 154104 (2010)
 vdW POTENTIAL|          Zero Damping
 vdW POTENTIAL|          Cutoff Radius [Bohr]:                             20.00
 vdW POTENTIAL|          s6 Scaling Factor:                               1.0000
 vdW POTENTIAL|          sr6 Scaling Factor:                              1.2170
 vdW POTENTIAL|          s8 Scaling Factor:                               0.7220
 vdW POTENTIAL|          Cutoff for CN calculation:                   0.1000E-05

 QS| Method:                                                                 GPW
 QS| Density plane wave grid type                        NON-SPHERICAL FULLSPACE
 QS| Number of grid levels:                                                    4
 QS| Density cutoff [a.u.]:                                                110.0
 QS| Multi grid cutoff [a.u.]: 1) grid level                               110.0
 QS|                           2) grid level                                36.7
 QS|                           3) grid level                                12.2
 QS|                           4) grid level                                 4.1
 QS| Grid level progression factor:                                          3.0
 QS| Relative density cutoff [a.u.]:                                        30.0
 QS| Interaction thresholds: eps_pgf_orb:                                1.0E-05
 QS|                         eps_filter_matrix:                          0.0E+00
 QS|                         eps_core_charge:                            1.0E-12
 QS|                         eps_rho_gspace:                             1.0E-10
 QS|                         eps_rho_rspace:                             1.0E-10
 QS|                         eps_gvg_rspace:                             1.0E-05
 QS|                         eps_ppl:                                    1.0E-02
 QS|                         eps_ppnl:                                   1.0E-07


 ATOMIC KIND INFORMATION

  1. Atomic kind: I                                     Number of atoms:     108

     Orbital Basis Set                                         SZV-MOLOPT-SR-GTH

       Number of orbital shell sets:                                           1
       Number of orbital shells:                                               2
       Number of primitive Cartesian functions:                                5
       Number of Cartesian basis functions:                                    4
       Number of spherical basis functions:                                    4
       Norm type:                                                              2

       Normalised Cartesian orbitals:

                        Set   Shell   Orbital            Exponent    Coefficient

                          1       1    2s                0.966173      -0.369082
                                                         0.828886      -0.032154
                                                         0.367159       0.255166
                                                         0.201369       0.106471
                                                         0.083015       0.018311

                          1       2    3px               0.966173      -1.009678
                                                         0.828886       0.783764
                                                         0.367159       0.107863
                                                         0.201369       0.101262
                                                         0.083015       0.016495
                          1       2    3py               0.966173      -1.009678
                                                         0.828886       0.783764
                                                         0.367159       0.107863
                                                         0.201369       0.101262
                                                         0.083015       0.016495
                          1       2    3pz               0.966173      -1.009678
                                                         0.828886       0.783764
                                                         0.367159       0.107863
                                                         0.201369       0.101262
                                                         0.083015       0.016495

       Atomic covalent radius [Angstrom]:                                  1.330

       Atomic van der Waals radius [Angstrom]:                             1.980

     GTH Potential information for                                       GTH-PBE

       Description:                       Goedecker-Teter-Hutter pseudopotential
                                           Goedecker et al., PRB 54, 1703 (1996)
                                          Hartwigsen et al., PRB 58, 3641 (1998)
                                                      Krack, TCA 114, 145 (2005)

       Gaussian exponent of the core charge distribution:               1.594388
       Electronic configuration (s p d ...):                               2   5

       Parameters of the local part of the GTH pseudopotential:

                          rloc        C1          C2          C3          C4
                        0.560000    8.207102

       Parameters of the non-local part of the GTH pseudopotential:

                   l      r(l)      h(i,j,l)

                   0    0.531928    2.308146    1.003909   -0.959156
                                    1.003909   -2.856109    2.476530
                                   -0.959156    2.476530   -1.965685
                   1    0.589182    0.906482    0.425071
                                    0.425071   -0.502950
                   2    0.739721    0.479195

  2. Atomic kind: Pb                                    Number of atoms:      27

     Orbital Basis Set                                         SZV-MOLOPT-SR-GTH

       Number of orbital shell sets:                                           1
       Number of orbital shells:                                               2
       Number of primitive Cartesian functions:                                5
       Number of Cartesian basis functions:                                    4
       Number of spherical basis functions:                                    4
       Norm type:                                                              2

       Normalised Cartesian orbitals:

                        Set   Shell   Orbital            Exponent    Coefficient

                          1       1    2s                1.933598      -0.156134
                                                         0.981425       0.419979
                                                         0.222223      -0.230246
                                                         0.077759      -0.022545
                                                         0.073968      -0.008640

                          1       2    3px               1.933598       0.064608
                                                         0.981425      -0.243154
                                                         0.222223       0.142297
                                                         0.077759       0.018505
                                                         0.073968       0.009435
                          1       2    3py               1.933598       0.064608
                                                         0.981425      -0.243154
                                                         0.222223       0.142297
                                                         0.077759       0.018505
                                                         0.073968       0.009435
                          1       2    3pz               1.933598       0.064608
                                                         0.981425      -0.243154
                                                         0.222223       0.142297
                                                         0.077759       0.018505
                                                         0.073968       0.009435

       Atomic covalent radius [Angstrom]:                                  1.470

       Atomic van der Waals radius [Angstrom]:                             2.020

     GTH Potential information for                                       GTH-PBE

       Description:                       Goedecker-Teter-Hutter pseudopotential
                                           Goedecker et al., PRB 54, 1703 (1996)
                                          Hartwigsen et al., PRB 58, 3641 (1998)
                                                      Krack, TCA 114, 145 (2005)

       Gaussian exponent of the core charge distribution:               1.311282
       Electronic configuration (s p d ...):                               2   2

       Parameters of the local part of the GTH pseudopotential:

                          rloc        C1          C2          C3          C4
                        0.617500    4.672384

       Parameters of the non-local part of the GTH pseudopotential:

                   l      r(l)      h(i,j,l)

                   0    0.622359    0.879918    2.081148   -1.431257
                                    2.081148   -5.014690    3.695490
                                   -1.431257    3.695490   -2.933204
                   1    0.812002    0.153457    0.478898
                                    0.478898   -0.566640
                   2    1.025015    0.301702

  3. Atomic kind: C                                     Number of atoms:      32

     Orbital Basis Set                                            SZV-MOLOPT-GTH

       Number of orbital shell sets:                                           1
       Number of orbital shells:                                               2
       Number of primitive Cartesian functions:                                7
       Number of Cartesian basis functions:                                    4
       Number of spherical basis functions:                                    4
       Norm type:                                                              2

       Normalised Cartesian orbitals:

                        Set   Shell   Orbital            Exponent    Coefficient

                          1       1    2s                6.132625      -0.263661
                                                         2.625196      -0.231112
                                                         1.045457       0.042712
                                                         0.478316       0.306085
                                                         0.178617       0.065483
                                                         0.075145       0.000568
                                                         0.030287       0.000417

                          1       2    3px               6.132625       0.562677
                                                         2.625196       0.633910
                                                         1.045457       0.379157
                                                         0.478316       0.235193
                                                         0.178617       0.052379
                                                         0.075145       0.003677
                                                         0.030287       0.000105
                          1       2    3py               6.132625       0.562677
                                                         2.625196       0.633910
                                                         1.045457       0.379157
                                                         0.478316       0.235193
                                                         0.178617       0.052379
                                                         0.075145       0.003677
                                                         0.030287       0.000105
                          1       2    3pz               6.132625       0.562677
                                                         2.625196       0.633910
                                                         1.045457       0.379157
                                                         0.478316       0.235193
                                                         0.178617       0.052379
                                                         0.075145       0.003677
                                                         0.030287       0.000105

       Atomic covalent radius [Angstrom]:                                  0.770

       Atomic van der Waals radius [Angstrom]:                             1.700

     GTH Potential information for                                       GTH-PBE

       Description:                       Goedecker-Teter-Hutter pseudopotential
                                           Goedecker et al., PRB 54, 1703 (1996)
                                          Hartwigsen et al., PRB 58, 3641 (1998)
                                                      Krack, TCA 114, 145 (2005)

       Gaussian exponent of the core charge distribution:               4.364419
       Electronic configuration (s p d ...):                               2   2

       Parameters of the local part of the GTH pseudopotential:

                          rloc        C1          C2          C3          C4
                        0.338471   -8.803674    1.339211

       Parameters of the non-local part of the GTH pseudopotential:

                   l      r(l)      h(i,j,l)

                   0    0.302576    9.622487
                   1    0.291507

  4. Atomic kind: N                                     Number of atoms:      32

     Orbital Basis Set                                            SZV-MOLOPT-GTH

       Number of orbital shell sets:                                           1
       Number of orbital shells:                                               2
       Number of primitive Cartesian functions:                                7
       Number of Cartesian basis functions:                                    4
       Number of spherical basis functions:                                    4
       Norm type:                                                              2

       Normalised Cartesian orbitals:

                        Set   Shell   Orbital            Exponent    Coefficient

                          1       1    2s                9.042730      -0.237404
                                                         3.882225      -0.265910
                                                         1.512880       0.102064
                                                         0.586631       0.295369
                                                         0.222851       0.088647
                                                         0.084583       0.003860
                                                         0.039194       0.000722

                          1       2    3px               9.042730       0.822162
                                                         3.882225       0.990771
                                                         1.512880       0.665657
                                                         0.586631       0.321705
                                                         0.222851       0.063706
                                                         0.084583       0.004155
                                                         0.039194      -0.000005
                          1       2    3py               9.042730       0.822162
                                                         3.882225       0.990771
                                                         1.512880       0.665657
                                                         0.586631       0.321705
                                                         0.222851       0.063706
                                                         0.084583       0.004155
                                                         0.039194      -0.000005
                          1       2    3pz               9.042730       0.822162
                                                         3.882225       0.990771
                                                         1.512880       0.665657
                                                         0.586631       0.321705
                                                         0.222851       0.063706
                                                         0.084583       0.004155
                                                         0.039194      -0.000005

       Atomic covalent radius [Angstrom]:                                  0.750

       Atomic van der Waals radius [Angstrom]:                             1.550

     GTH Potential information for                                       GTH-PBE

       Description:                       Goedecker-Teter-Hutter pseudopotential
                                           Goedecker et al., PRB 54, 1703 (1996)
                                          Hartwigsen et al., PRB 58, 3641 (1998)
                                                      Krack, TCA 114, 145 (2005)

       Gaussian exponent of the core charge distribution:               6.208322
       Electronic configuration (s p d ...):                               2   3

       Parameters of the local part of the GTH pseudopotential:

                          rloc        C1          C2          C3          C4
                        0.283791  -12.415226    1.868096

       Parameters of the non-local part of the GTH pseudopotential:

                   l      r(l)      h(i,j,l)

                   0    0.255405   13.630263
                   1    0.245495

  5. Atomic kind: H                                     Number of atoms:     120

     Orbital Basis Set                                            SZV-MOLOPT-GTH

       Number of orbital shell sets:                                           1
       Number of orbital shells:                                               1
       Number of primitive Cartesian functions:                                7
       Number of Cartesian basis functions:                                    1
       Number of spherical basis functions:                                    1
       Norm type:                                                              2

       Normalised Cartesian orbitals:

                        Set   Shell   Orbital            Exponent    Coefficient

                          1       1    2s               11.478000       0.129129
                                                         3.700759       0.177012
                                                         1.446884       0.141285
                                                         0.716815       0.245670
                                                         0.247919       0.094768
                                                         0.066918       0.004062
                                                         0.021708      -0.000053

       Atomic covalent radius [Angstrom]:                                  0.320

       Atomic van der Waals radius [Angstrom]:                             1.090

     GTH Potential information for                                    GTH-PBE-q1

       Description:                       Goedecker-Teter-Hutter pseudopotential
                                           Goedecker et al., PRB 54, 1703 (1996)
                                          Hartwigsen et al., PRB 58, 3641 (1998)
                                                      Krack, TCA 114, 145 (2005)

       Gaussian exponent of the core charge distribution:              12.500000
       Electronic configuration (s p d ...):                                   1

       Parameters of the local part of the GTH pseudopotential:

                          rloc        C1          C2          C3          C4
                        0.200000   -4.178900    0.724463


 MOLECULE KIND INFORMATION


 All atoms are their own molecule, skipping detailed information


 TOTAL NUMBERS AND MAXIMUM NUMBERS

  Total number of            - Atomic kinds:                                   5
                             - Atoms:                                        319
                             - Shell sets:                                   319
                             - Shells:                                       518
                             - Primitive Cartesian functions:               1963
                             - Cartesian basis functions:                    916
                             - Spherical basis functions:                    916

  Maximum angular momentum of- Orbital basis functions:                        1
                             - Local part of the GTH pseudopotential:          2
                             - Non-local part of the GTH pseudopotential:      4


 MODULE QUICKSTEP:  ATOMIC COORDINATES IN angstrom

  Atom  Kind  Element       X           Y           Z          Z(eff)       Mass

       1     1 I   53   11.296971   12.855384    8.505236      7.0000     126.9045
       2     1 I   53   17.789115   11.962203    8.593006      7.0000     126.9045
       3     1 I   53   24.190702   11.914959    8.798630      7.0000     126.9045
       4     1 I   53   12.839802   18.016220    8.358286      7.0000     126.9045
       5     1 I   53   18.055616   18.475937    8.611356      7.0000     126.9045
       6     1 I   53   23.401410   17.847527    8.731133      7.0000     126.9045
       7     1 I   53   11.984990   24.783761    8.717703      7.0000     126.9045
       8     1 I   53   18.827440   23.680423    8.746507      7.0000     126.9045
       9     1 I   53   23.726037   25.045173    9.090771      7.0000     126.9045
      10     1 I   53   11.281152    7.985512   12.914220      7.0000     126.9045
      11     1 I   53   17.939178    8.526537   11.760855      7.0000     126.9045
      12     1 I   53   24.082796    8.401829   11.837470      7.0000     126.9045
      13     1 I   53    8.393744   12.465116   11.730474      7.0000     126.9045
      14     1 I   53   11.625444   11.752657   15.053062      7.0000     126.9045
      15     1 I   53   11.990460   14.988783   12.290328      7.0000     126.9045
      16     1 I   53   14.713375   11.532433   11.713555      7.0000     126.9045
      17     1 I   53   17.890284   11.660827   14.998423      7.0000     126.9045
      18     1 I   53   18.298708   14.842632   11.963688      7.0000     126.9045
      19     1 I   53   21.088940   11.512357   11.679924      7.0000     126.9045
      20     1 I   53   24.497505   11.678768   15.118504      7.0000     126.9045
      21     1 I   53   24.210902   14.764580   12.186003      7.0000     126.9045
      22     1 I   53   27.672184   11.964277   11.778868      7.0000     126.9045
      23     1 I   53    9.049303   18.234499   12.389238      7.0000     126.9045
      24     1 I   53   11.769521   18.060868   15.114625      7.0000     126.9045
      25     1 I   53   12.204128   21.317941   11.823919      7.0000     126.9045
      26     1 I   53   15.235793   17.850884   12.195940      7.0000     126.9045
      27     1 I   53   18.266826   17.984384   15.037023      7.0000     126.9045
      28     1 I   53   17.755217   21.218075   12.245266      7.0000     126.9045
      29     1 I   53   21.649801   18.516549   11.758065      7.0000     126.9045
      30     1 I   53   24.393924   18.081369   14.953586      7.0000     126.9045
      31     1 I   53   25.835493   21.040473   11.460456      7.0000     126.9045
      32     1 I   53   28.629324   17.698665   12.913798      7.0000     126.9045
      33     1 I   53    8.738843   24.419941   11.479753      7.0000     126.9045
      34     1 I   53   11.692725   24.183818   15.162899      7.0000     126.9045
      35     1 I   53   11.894733   27.789056   12.386964      7.0000     126.9045
      36     1 I   53   15.464772   25.027203   11.838421      7.0000     126.9045
      37     1 I   53   18.209084   24.393503   15.129527      7.0000     126.9045
      38     1 I   53   18.859855   29.492171   12.958651      7.0000     126.9045
      39     1 I   53   21.762345   23.284340   12.541003      7.0000     126.9045
      40     1 I   53   25.172538   24.356502   15.237544      7.0000     126.9045
      41     1 I   53   24.625755   27.755553   12.424485      7.0000     126.9045
      42     1 I   53   27.961315   24.692251   11.526892      7.0000     126.9045
      43     1 I   53   11.491192    8.217960   18.024539      7.0000     126.9045
      44     1 I   53   17.959016    8.074059   18.453514      7.0000     126.9045
      45     1 I   53   25.096791    8.460699   17.981933      7.0000     126.9045
      46     1 I   53    8.873664   12.398268   18.224110      7.0000     126.9045
      47     1 I   53   11.649684   11.394517   21.499556      7.0000     126.9045
      48     1 I   53   12.239131   14.921182   18.385216      7.0000     126.9045
      49     1 I   53   14.953998   11.663368   18.049570      7.0000     126.9045
      50     1 I   53   18.163501   12.008545   21.387605      7.0000     126.9045
      51     1 I   53   18.275415   14.815157   18.272654      7.0000     126.9045
      52     1 I   53   21.354992   11.368012   17.833346      7.0000     126.9045
      53     1 I   53   24.268781   12.113776   21.276163      7.0000     126.9045
      54     1 I   53   24.822772   14.786835   18.070165      7.0000     126.9045
      55     1 I   53   28.056602   12.038073   18.627775      7.0000     126.9045
      56     1 I   53    8.814661   17.934932   18.223916      7.0000     126.9045
      57     1 I   53   11.976754   18.045566   21.483303      7.0000     126.9045
      58     1 I   53   11.781170   21.416670   18.410610      7.0000     126.9045
      59     1 I   53   15.201103   18.327582   18.008196      7.0000     126.9045
      60     1 I   53   18.326973   18.023212   21.456166      7.0000     126.9045
      61     1 I   53   18.276072   21.455553   18.462872      7.0000     126.9045
      62     1 I   53   21.576828   17.741297   18.144771      7.0000     126.9045
      63     1 I   53   24.508161   17.967252   21.404657      7.0000     126.9045
      64     1 I   53   24.390895   21.213116   18.267459      7.0000     126.9045
      65     1 I   53   28.005343   18.247029   17.968600      7.0000     126.9045
      66     1 I   53    8.483505   24.384356   18.406391      7.0000     126.9045
      67     1 I   53   12.342127   24.130402   21.640625      7.0000     126.9045
      68     1 I   53   11.843221   28.540352   19.005698      7.0000     126.9045
      69     1 I   53   15.086398   24.874581   18.029449      7.0000     126.9045
      70     1 I   53   18.075838   24.496118   21.558453      7.0000     126.9045
      71     1 I   53   18.727786   28.255995   18.113175      7.0000     126.9045
      72     1 I   53   21.721455   24.631236   18.039476      7.0000     126.9045
      73     1 I   53   24.908177   23.903188   21.548040      7.0000     126.9045
      74     1 I   53   25.111548   27.589144   18.327434      7.0000     126.9045
      75     1 I   53   28.685908   24.099605   18.853966      7.0000     126.9045
      76     1 I   53   12.021326    8.148511   22.997860      7.0000     126.9045
      77     1 I   53   19.143689    8.398848   23.930255      7.0000     126.9045
      78     1 I   53   23.790955    8.116182   25.185500      7.0000     126.9045
      79     1 I   53    9.201981   13.092651   24.818886      7.0000     126.9045
      80     1 I   53   11.908647   11.407760   27.924374      7.0000     126.9045
      81     1 I   53   13.310218   14.660785   24.152010      7.0000     126.9045
      82     1 I   53   15.375400   11.196719   24.697899      7.0000     126.9045
      83     1 I   53   19.189534   11.470738   27.778441      7.0000     126.9045
      84     1 I   53   18.276496   14.889205   24.759968      7.0000     126.9045
      85     1 I   53   21.696367   12.203159   24.128444      7.0000     126.9045
      86     1 I   53   24.452251   11.849205   28.229022      7.0000     126.9045
      87     1 I   53   25.001801   14.694658   24.997918      7.0000     126.9045
      88     1 I   53   27.593933   11.542013   24.010070      7.0000     126.9045
      89     1 I   53    9.396400   17.240445   24.738982      7.0000     126.9045
      90     1 I   53   13.327369   17.289115   27.653978      7.0000     126.9045
      91     1 I   53   11.566743   20.889185   25.194569      7.0000     126.9045
      92     1 I   53   15.462225   18.581516   24.239533      7.0000     126.9045
      93     1 I   53   18.765889   18.248991   28.103527      7.0000     126.9045
      94     1 I   53   18.451975   21.262809   24.719997      7.0000     126.9045
      95     1 I   53   21.781929   17.899657   24.528789      7.0000     126.9045
      96     1 I   53   25.097853   17.912764   27.940055      7.0000     126.9045
      97     1 I   53   25.230915   21.124969   24.727861      7.0000     126.9045
      98     1 I   53   28.216886   17.794078   24.012640      7.0000     126.9045
      99     1 I   53    8.569670   24.105331   23.921452      7.0000     126.9045
     100     1 I   53   11.546394   23.977018   28.049695      7.0000     126.9045
     101     1 I   53   12.596062   27.499517   24.893454      7.0000     126.9045
     102     1 I   53   15.223850   23.952664   25.113784      7.0000     126.9045
     103     1 I   53   19.220710   23.862466   27.943952      7.0000     126.9045
     104     1 I   53   19.719407   27.700723   24.388669      7.0000     126.9045
     105     1 I   53   21.669326   23.739268   24.056521      7.0000     126.9045
     106     1 I   53   24.856420   24.038523   28.221719      7.0000     126.9045
     107     1 I   53   24.198015   27.608498   25.455423      7.0000     126.9045
     108     1 I   53   27.725716   24.910537   24.753722      7.0000     126.9045
     109     2 Pb  82   11.501094   12.126328   11.498181      4.0000     207.2000
     110     2 Pb  82   17.962197   11.638497   11.683922      4.0000     207.2000
     111     2 Pb  82   24.653959   11.717201   11.840149      4.0000     207.2000
     112     2 Pb  82   12.218618   18.241371   11.383408      4.0000     207.2000
     113     2 Pb  82   18.412284   18.048396   11.692363      4.0000     207.2000
     114     2 Pb  82   25.813833   17.965188   11.534493      4.0000     207.2000
     115     2 Pb  82   12.296405   24.731959   11.824906      4.0000     207.2000
     116     2 Pb  82   18.726512   24.135666   11.798986      4.0000     207.2000
     117     2 Pb  82   24.856147   24.603999   11.943122      4.0000     207.2000
     118     2 Pb  82   11.799597   11.222924   18.165263      4.0000     207.2000
     119     2 Pb  82   18.287658   11.345978   18.283846      4.0000     207.2000
     120     2 Pb  82   25.085209   11.664226   18.372854      4.0000     207.2000
     121     2 Pb  82   12.031038   17.945731   18.276757      4.0000     207.2000
     122     2 Pb  82   18.450109   17.975348   18.316637      4.0000     207.2000
     123     2 Pb  82   24.853149   18.080664   18.116380      4.0000     207.2000
     124     2 Pb  82   11.945115   24.552396   18.347596      4.0000     207.2000
     125     2 Pb  82   18.561414   24.644097   18.338256      4.0000     207.2000
     126     2 Pb  82   25.507908   24.378774   18.524023      4.0000     207.2000
     127     2 Pb  82   12.037724   11.862385   24.751795      4.0000     207.2000
     128     2 Pb  82   18.723536   11.417047   24.592574      4.0000     207.2000
     129     2 Pb  82   24.733296   11.654731   25.141082      4.0000     207.2000
     130     2 Pb  82   12.489577   17.860287   24.806931      4.0000     207.2000
     131     2 Pb  82   18.691992   17.989086   25.030262      4.0000     207.2000
     132     2 Pb  82   25.153374   17.991836   24.716211      4.0000     207.2000
     133     2 Pb  82   12.156704   24.400645   24.796811      4.0000     207.2000
     134     2 Pb  82   18.762709   24.470232   24.724371      4.0000     207.2000
     135     2 Pb  82   24.707905   24.449961   25.175050      4.0000     207.2000
     136     3 C    6   14.740124   14.541603    8.904134      4.0000      12.0107
     137     3 C    6   20.681726   14.828601    8.785244      4.0000      12.0107
     138     3 C    6   14.716311   21.569358    8.586439      4.0000      12.0107
     139     3 C    6   21.450517   21.046045    8.557464      4.0000      12.0107
     140     3 C    6   14.751373    8.721472   14.802795      4.0000      12.0107
     141     3 C    6   20.932842    8.534740   14.565139      4.0000      12.0107
     142     3 C    6    8.521942   14.940506   14.794259      4.0000      12.0107
     143     3 C    6   14.805454   14.827354   14.902488      4.0000      12.0107
     144     3 C    6   20.970974   14.730711   14.891427      4.0000      12.0107
     145     3 C    6   27.571412   14.323673   14.861045      4.0000      12.0107
     146     3 C    6    8.501655   21.244956   14.805071      4.0000      12.0107
     147     3 C    6   14.805042   21.057316   14.910459      4.0000      12.0107
     148     3 C    6   20.850704   20.925191   15.447259      4.0000      12.0107
     149     3 C    6   27.163102   21.332354   15.120953      4.0000      12.0107
     150     3 C    6   14.936465   27.442434   14.890836      4.0000      12.0107
     151     3 C    6   21.444380   26.731014   14.540765      4.0000      12.0107
     152     3 C    6   15.228243    9.218848   21.113835      4.0000      12.0107
     153     3 C    6   22.135845    8.832376   20.770754      4.0000      12.0107
     154     3 C    6    8.766042   15.048536   21.213364      4.0000      12.0107
     155     3 C    6   15.073990   14.974688   20.758405      4.0000      12.0107
     156     3 C    6   21.176619   14.952083   21.192132      4.0000      12.0107
     157     3 C    6   27.761531   14.815543   21.330011      4.0000      12.0107
     158     3 C    6    8.914915   21.041532   21.332483      4.0000      12.0107
     159     3 C    6   15.070458   21.145494   21.187326      4.0000      12.0107
     160     3 C    6   21.191039   21.032499   21.204591      4.0000      12.0107
     161     3 C    6   27.404510   20.740258   21.244999      4.0000      12.0107
     162     3 C    6   15.083715   26.930726   21.666095      4.0000      12.0107
     163     3 C    6   21.662724   27.138047   21.045177      4.0000      12.0107
     164     3 C    6   15.858518   14.033543   27.660793      4.0000      12.0107
     165     3 C    6   21.477951   14.845550   27.358019      4.0000      12.0107
     166     3 C    6   14.959175   21.030640   27.773589      4.0000      12.0107
     167     3 C    6   21.957938   20.949726   27.163305      4.0000      12.0107
     168     4 N    7   16.060415   15.351820    8.812324      5.0000      14.0067
     169     4 N    7   22.172371   14.727066    9.235929      5.0000      14.0067
     170     4 N    7   16.165716   21.353025    9.116972      5.0000      14.0067
     171     4 N    7   22.720064   21.451791    9.350137      5.0000      14.0067
     172     4 N    7   16.166335    8.327949   15.326883      5.0000      14.0067
     173     4 N    7   22.272298    8.634790   15.342084      5.0000      14.0067
     174     4 N    7    9.944770   14.844002   15.448670      5.0000      14.0067
     175     4 N    7   16.277586   14.834841   15.436061      5.0000      14.0067
     176     4 N    7   22.394498   14.735251   15.553521      5.0000      14.0067
     177     4 N    7   28.309162   14.921969   16.091102      5.0000      14.0067
     178     4 N    7    9.959345   21.047713   15.331851      5.0000      14.0067
     179     4 N    7   16.276799   21.043671   15.450809      5.0000      14.0067
     180     4 N    7   22.405098   21.047338   15.327363      5.0000      14.0067
     181     4 N    7   28.407199   20.417862   15.308144      5.0000      14.0067
     182     4 N    7   16.486613   27.351127   15.119100      5.0000      14.0067
     183     4 N    7   22.699666   26.823296   15.459263      5.0000      14.0067
     184     4 N    7   15.967105    8.237060   22.062212      5.0000      14.0067
     185     4 N    7   23.330646    8.221878   21.541871      5.0000      14.0067
     186     4 N    7   10.167093   14.833099   21.874197      5.0000      14.0067
     187     4 N    7   16.278544   15.036465   21.759299      5.0000      14.0067
     188     4 N    7   22.580464   15.049163   21.879835      5.0000      14.0067
     189     4 N    7   29.246632   14.951284   21.763566      5.0000      14.0067
     190     4 N    7   10.372127   21.144025   21.876547      5.0000      14.0067
     191     4 N    7   16.481220   21.149997   21.865613      5.0000      14.0067
     192     4 N    7   22.605245   20.940619   21.877134      5.0000      14.0067
     193     4 N    7   28.190089   21.126528   22.540054      5.0000      14.0067
     194     4 N    7   16.278243   27.846215   22.097166      5.0000      14.0067
     195     4 N    7   22.800103   26.636537   21.980777      5.0000      14.0067
     196     4 N    7   16.996511   14.934190   28.212746      5.0000      14.0067
     197     4 N    7   22.599168   15.145819   28.403671      5.0000      14.0067
     198     4 N    7   16.363817   21.452103   28.307896      5.0000      14.0067
     199     4 N    7   22.999261   20.837973   28.315404      5.0000      14.0067
     200     5 H    1   14.073750   14.911308    8.169953      1.0000       1.0079
     201     5 H    1   14.318447   14.662127    9.869663      1.0000       1.0079
     202     5 H    1   14.967145   13.521833    8.726263      1.0000       1.0079
     203     5 H    1   15.890039   16.337632    9.051679      1.0000       1.0079
     204     5 H    1   16.488452   15.318630    7.730419      1.0000       1.0079
     205     5 H    1   16.751847   14.976956    9.476289      1.0000       1.0079
     206     5 H    1   20.660886   14.964167    7.730394      1.0000       1.0079
     207     5 H    1   20.254849   15.669286    9.273479      1.0000       1.0079
     208     5 H    1   20.183309   13.934709    9.067457      1.0000       1.0079
     209     5 H    1   22.684270   15.589471    8.924354      1.0000       1.0079
     210     5 H    1   22.652163   13.883776    8.840741      1.0000       1.0079
     211     5 H    1   22.254899   14.670463   10.270083      1.0000       1.0079
     212     5 H    1   14.762575   21.550699    7.526329      1.0000       1.0079
     213     5 H    1   14.374557   22.507923    8.948298      1.0000       1.0079
     214     5 H    1   14.108868   20.778392    8.951704      1.0000       1.0079
     215     5 H    1   16.808716   22.095241    8.752697      1.0000       1.0079
     216     5 H    1   16.555432   20.423851    8.818221      1.0000       1.0079
     217     5 H    1   16.208522   21.386897   10.157414      1.0000       1.0079
     218     5 H    1   21.379131   21.678756    7.711576      1.0000       1.0079
     219     5 H    1   20.603875   21.162863    9.184463      1.0000       1.0079
     220     5 H    1   21.553317   20.034379    8.262274      1.0000       1.0079
     221     5 H    1   22.600332   22.402129    9.737011      1.0000       1.0079
     222     5 H    1   23.653629   21.468900    8.709322      1.0000       1.0079
     223     5 H    1   22.865218   20.803049   10.138681      1.0000       1.0079
     224     5 H    1   14.807752    8.855062   13.751819      1.0000       1.0079
     225     5 H    1   14.456558    9.624873   15.277343      1.0000       1.0079
     226     5 H    1   14.084121    7.933150   15.047077      1.0000       1.0079
     227     5 H    1   16.817967    9.115668   15.164587      1.0000       1.0079
     228     5 H    1   16.589453    7.414792   14.855302      1.0000       1.0079
     229     5 H    1   16.130529    8.144544   16.343843      1.0000       1.0079
     230     5 H    1   21.140464    8.168424   13.594471      1.0000       1.0079
     231     5 H    1   20.487665    9.496758   14.499614      1.0000       1.0079
     232     5 H    1   20.292740    7.865018   15.083824      1.0000       1.0079
     233     5 H    1   22.941845    9.226325   14.831432      1.0000       1.0079
     234     5 H    1   22.755241    7.574235   15.510183      1.0000       1.0079
     235     5 H    1   22.107600    9.086359   16.253620      1.0000       1.0079
     236     5 H    1    8.651100   14.998130   13.740906      1.0000       1.0079
     237     5 H    1    8.049365   15.814718   15.172409      1.0000       1.0079
     238     5 H    1    7.974565   14.072519   15.064883      1.0000       1.0079
     239     5 H    1   10.523376   15.668859   15.173167      1.0000       1.0079
     240     5 H    1   10.442537   13.964630   15.159410      1.0000       1.0079
     241     5 H    1    9.874289   14.824639   16.484847      1.0000       1.0079
     242     5 H    1   14.847340   14.814432   13.840861      1.0000       1.0079
     243     5 H    1   14.326800   15.708535   15.254445      1.0000       1.0079
     244     5 H    1   14.329226   13.953115   15.276764      1.0000       1.0079
     245     5 H    1   16.805997   15.652379   15.058133      1.0000       1.0079
     246     5 H    1   16.768912   13.949530   15.159090      1.0000       1.0079
     247     5 H    1   16.321906   14.888898   16.475943      1.0000       1.0079
     248     5 H    1   21.102828   14.779606   13.838194      1.0000       1.0079
     249     5 H    1   20.446995   15.582114   15.254871      1.0000       1.0079
     250     5 H    1   20.483286   13.827890   15.172409      1.0000       1.0079
     251     5 H    1   22.933182   15.581463   15.263215      1.0000       1.0079
     252     5 H    1   22.941689   13.884396   15.280191      1.0000       1.0079
     253     5 H    1   22.322953   14.748485   16.590167      1.0000       1.0079
     254     5 H    1   28.076064   14.639202   13.984117      1.0000       1.0079
     255     5 H    1   26.566971   14.664577   14.845525      1.0000       1.0079
     256     5 H    1   27.603114   13.265975   14.939223      1.0000       1.0079
     257     5 H    1   28.266667   15.951665   16.079294      1.0000       1.0079
     258     5 H    1   29.415150   14.598381   16.059472      1.0000       1.0079
     259     5 H    1   27.871386   14.584764   16.959554      1.0000       1.0079
     260     5 H    1    8.543644   21.239460   13.742646      1.0000       1.0079
     261     5 H    1    8.138093   22.174769   15.171558      1.0000       1.0079
     262     5 H    1    7.914850   20.434110   15.164413      1.0000       1.0079
     263     5 H    1   10.588434   21.801058   14.963612      1.0000       1.0079
     264     5 H    1   10.353764   20.112556   15.051663      1.0000       1.0079
     265     5 H    1   10.017838   21.102854   16.373484      1.0000       1.0079
     266     5 H    1   14.850030   21.052765   13.848426      1.0000       1.0079
     267     5 H    1   14.334398   21.940025   15.271960      1.0000       1.0079
     268     5 H    1   14.320789   20.183496   15.274174      1.0000       1.0079
     269     5 H    1   16.811953   21.853054   15.071144      1.0000       1.0079
     270     5 H    1   16.766571   20.160877   15.168957      1.0000       1.0079
     271     5 H    1   16.307684   21.100459   16.491201      1.0000       1.0079
     272     5 H    1   20.473307   20.636322   14.497347      1.0000       1.0079
     273     5 H    1   20.470856   21.875002   15.734936      1.0000       1.0079
     274     5 H    1   20.641754   20.186464   16.180283      1.0000       1.0079
     275     5 H    1   22.630749   21.766705   14.607207      1.0000       1.0079
     276     5 H    1   22.840002   20.132261   15.050119      1.0000       1.0079
     277     5 H    1   22.835749   21.322125   16.244098      1.0000       1.0079
     278     5 H    1   27.342077   21.981992   14.301362      1.0000       1.0079
     279     5 H    1   27.021621   21.874475   16.021104      1.0000       1.0079
     280     5 H    1   26.320528   20.716786   14.925720      1.0000       1.0079
     281     5 H    1   29.252422   21.013338   15.626170      1.0000       1.0079
     282     5 H    1   28.616328   19.893915   14.437374      1.0000       1.0079
     283     5 H    1   28.221910   19.711569   16.059639      1.0000       1.0079
     284     5 H    1   14.747533   27.238648   13.864835      1.0000       1.0079
     285     5 H    1   14.614003   28.416412   15.163739      1.0000       1.0079
     286     5 H    1   14.479976   26.701757   15.504166      1.0000       1.0079
     287     5 H    1   17.008157   27.901486   14.406802      1.0000       1.0079
     288     5 H    1   16.820471   26.347491   15.055286      1.0000       1.0079
     289     5 H    1   16.757440   27.700479   16.064406      1.0000       1.0079
     290     5 H    1   21.670827   27.211156   13.622077      1.0000       1.0079
     291     5 H    1   20.637385   27.198268   15.044400      1.0000       1.0079
     292     5 H    1   21.235337   25.700147   14.385459      1.0000       1.0079
     293     5 H    1   23.001970   27.815427   15.606203      1.0000       1.0079
     294     5 H    1   23.498260   26.274494   15.062277      1.0000       1.0079
     295     5 H    1   22.469068   26.365960   16.380313      1.0000       1.0079
     296     5 H    1   15.689141    9.167314   20.162160      1.0000       1.0079
     297     5 H    1   15.292896   10.202044   21.501951      1.0000       1.0079
     298     5 H    1   14.216636    8.914659   21.045348      1.0000       1.0079
     299     5 H    1   16.975269    8.436685   22.049984      1.0000       1.0079
     300     5 H    1   15.796697    7.189999   21.702667      1.0000       1.0079
     301     5 H    1   15.648346    8.333670   23.063755      1.0000       1.0079
     302     5 H    1   22.256772    8.627075   19.738320      1.0000       1.0079
     303     5 H    1   22.113611    9.881244   20.929090      1.0000       1.0079
     304     5 H    1   21.242390    8.395918   21.141240      1.0000       1.0079
     305     5 H    1   24.272664    8.681481   21.358539      1.0000       1.0079
     306     5 H    1   23.493825    7.137829   21.283965      1.0000       1.0079
     307     5 H    1   23.160830    8.285943   22.551456      1.0000       1.0079
     308     5 H    1    8.919382   15.226696   20.177229      1.0000       1.0079
     309     5 H    1    8.317998   15.883813   21.692606      1.0000       1.0079
     310     5 H    1    8.195100   14.165554   21.365384      1.0000       1.0079
     311     5 H    1   10.735323   15.710272   21.820423      1.0000       1.0079
     312     5 H    1   10.682641   14.064519   21.394795      1.0000       1.0079
     313     5 H    1   10.037116   14.558629   22.879547      1.0000       1.0079
     314     5 H    1   15.475424   14.993855   19.776243      1.0000       1.0079
     315     5 H    1   14.455655   15.819468   20.935087      1.0000       1.0079
     316     5 H    1   14.550489   14.067650   20.933903      1.0000       1.0079
     317     5 H    1   16.844460   15.908118   21.616302      1.0000       1.0079
     318     5 H    1   16.905098   14.205661   21.614194      1.0000       1.0079
     319     5 H    1   15.938992   15.021858   22.739898      1.0000       1.0079




 SCF PARAMETERS         Density guess:                                    ATOMIC
                        --------------------------------------------------------
                        max_scf:                                             300
                        max_scf_history:                                       0
                        max_diis:                                              4
                        --------------------------------------------------------
                        eps_scf:                                        1.00E-06
                        eps_scf_history:                                0.00E+00
                        eps_diis:                                       1.00E-01
                        eps_eigval:                                     1.00E-05
                        --------------------------------------------------------
                        level_shift [a.u.]:                                 0.00
                        added MOs                                       100  100
                        --------------------------------------------------------
                        Mixing method:                            BROYDEN_MIXING
                                                charge density mixing in g-space
                        --------------------------------------------------------
                        No outer SCF

 PW_GRID| Information for grid number                                          1
 PW_GRID| Grid distributed over                                    12 processors
 PW_GRID| Real space group dimensions                                    12    1
 PW_GRID| the grid is blocked:                                                NO
 PW_GRID| Cutoff [a.u.]                                                    110.0
 PW_GRID| spherical cutoff:                                                   NO
 PW_GRID|   Bounds   1           -180     179                Points:         360
 PW_GRID|   Bounds   2           -180     179                Points:         360
 PW_GRID|   Bounds   3           -162     161                Points:         324
 PW_GRID| Volume element (a.u.^3)  0.7896E-02     Volume (a.u.^3)    331549.7712
 PW_GRID| Grid span                                                    FULLSPACE
 PW_GRID|   Distribution                         Average         Max         Min
 PW_GRID|   G-Vectors                          3499200.0     3499200     3499200
 PW_GRID|   G-Rays                                9720.0        9720        9720
 PW_GRID|   Real Space Points                  3499200.0     3499200     3499200

 PW_GRID| Information for grid number                                          2
 PW_GRID| Number of the reference grid                                         1
 PW_GRID| Grid distributed over                                    12 processors
 PW_GRID| Real space group dimensions                                    12    1
 PW_GRID| the grid is blocked:                                                NO
 PW_GRID| Cutoff [a.u.]                                                     36.7
 PW_GRID| spherical cutoff:                                                   NO
 PW_GRID|   Bounds   1           -100      99                Points:         200
 PW_GRID|   Bounds   2            -96      95                Points:         192
 PW_GRID|   Bounds   3            -96      95                Points:         192
 PW_GRID| Volume element (a.u.^3)  0.4497E-01     Volume (a.u.^3)    331549.7712
 PW_GRID| Grid span                                                    FULLSPACE
 PW_GRID|   Distribution                         Average         Max         Min
 PW_GRID|   G-Vectors                           614400.0      614600      614200
 PW_GRID|   G-Rays                                3072.0        3073        3071
 PW_GRID|   Real Space Points                   614400.0      626688      589824

 PW_GRID| Information for grid number                                          3
 PW_GRID| Number of the reference grid                                         1
 PW_GRID| Grid distributed over                                    12 processors
 PW_GRID| Real space group dimensions                                    12    1
 PW_GRID| the grid is blocked:                                                NO
 PW_GRID| Cutoff [a.u.]                                                     12.2
 PW_GRID| spherical cutoff:                                                   NO
 PW_GRID|   Bounds   1            -60      59                Points:         120
 PW_GRID|   Bounds   2            -60      59                Points:         120
 PW_GRID|   Bounds   3            -54      53                Points:         108
 PW_GRID| Volume element (a.u.^3)  0.2132         Volume (a.u.^3)    331549.7712
 PW_GRID| Grid span                                                    FULLSPACE
 PW_GRID|   Distribution                         Average         Max         Min
 PW_GRID|   G-Vectors                           129600.0      129960      129240
 PW_GRID|   G-Rays                                1080.0        1083        1077
 PW_GRID|   Real Space Points                   129600.0      129600      129600

 PW_GRID| Information for grid number                                          4
 PW_GRID| Number of the reference grid                                         1
 PW_GRID| Grid distributed over                                    12 processors
 PW_GRID| Real space group dimensions                                    12    1
 PW_GRID| the grid is blocked:                                                NO
 PW_GRID| Cutoff [a.u.]                                                      4.1
 PW_GRID| spherical cutoff:                                                   NO
 PW_GRID|   Bounds   1            -36      35                Points:          72
 PW_GRID|   Bounds   2            -32      31                Points:          64
 PW_GRID|   Bounds   3            -32      31                Points:          64
 PW_GRID| Volume element (a.u.^3)   1.124         Volume (a.u.^3)    331549.7712
 PW_GRID| Grid span                                                    FULLSPACE
 PW_GRID|   Distribution                         Average         Max         Min
 PW_GRID|   G-Vectors                            24576.0       24624       24480
 PW_GRID|   G-Rays                                 341.3         342         340
 PW_GRID|   Real Space Points                    24576.0       24576       24576

 POISSON| Solver                                                        PERIODIC
 POISSON| Periodicity                                                        XYZ

 RS_GRID| Information for grid number                                          1
 RS_GRID|   Bounds   1           -180     179                Points:         360
 RS_GRID|   Bounds   2           -180     179                Points:         360
 RS_GRID|   Bounds   3           -162     161                Points:         324
 RS_GRID| Real space distribution over                                  3 groups
 RS_GRID| Real space distribution along direction                              1
 RS_GRID| Border size                                                         27
 RS_GRID| Real space distribution over                                  4 groups
 RS_GRID| Real space distribution along direction                              2
 RS_GRID| Border size                                                         27
 RS_GRID|   Distribution                         Average         Max         Min
 RS_GRID|   Planes                                 174.0         174         174
 RS_GRID|   Distribution                         Average         Max         Min
 RS_GRID|   Planes                                 144.0         144         144

 RS_GRID| Information for grid number                                          2
 RS_GRID|   Bounds   1           -100      99                Points:         200
 RS_GRID|   Bounds   2            -96      95                Points:         192
 RS_GRID|   Bounds   3            -96      95                Points:         192
 RS_GRID| Real space distribution over                                  3 groups
 RS_GRID| Real space distribution along direction                              1
 RS_GRID| Border size                                                         26
 RS_GRID| Real space distribution over                                  4 groups
 RS_GRID| Real space distribution along direction                              2
 RS_GRID| Border size                                                         26
 RS_GRID|   Distribution                         Average         Max         Min
 RS_GRID|   Planes                                 118.7         119         118
 RS_GRID|   Distribution                         Average         Max         Min
 RS_GRID|   Planes                                 100.0         100         100

 RS_GRID| Information for grid number                                          3
 RS_GRID|   Bounds   1            -60      59                Points:         120
 RS_GRID|   Bounds   2            -60      59                Points:         120
 RS_GRID|   Bounds   3            -54      53                Points:         108
 RS_GRID| Real space fully replicated
 RS_GRID| Group size                                                           1

 RS_GRID| Information for grid number                                          4
 RS_GRID|   Bounds   1            -36      35                Points:          72
 RS_GRID|   Bounds   2            -32      31                Points:          64
 RS_GRID|   Bounds   3            -32      31                Points:          64
 RS_GRID| Real space fully replicated
 RS_GRID| Group size                                                           1

 Spin 1

 Number of electrons:                                                        636
 Number of occupied orbitals:                                                636
 Number of molecular orbitals:                                               736

 Spin 2

 Number of electrons:                                                        636
 Number of occupied orbitals:                                                636
 Number of molecular orbitals:                                               736

 Number of orbital functions:                                                916
 Number of independent orbital functions:                                    916

 Extrapolation method: initial_guess

 Atomic guess: The first density matrix is obtained in terms of atomic orbitals
               and electronic configurations assigned to each atomic kind

 Guess for atomic kind: I

 Electronic structure
    Total number of core electrons                                         46.00
    Total number of valence electrons                                       7.00
    Total number of electrons                                              53.00
    Multiplicity                                                   not specified
    S   [  2.00  2.00  2.00  2.00] 2.00
    P   [  6.00  6.00  6.00] 5.00
    D   [ 10.00 10.00]


 *******************************************************************************
                  Iteration          Convergence                     Energy [au]
 *******************************************************************************
                          1         0.00000                     -11.281006293251

 Energy components [Hartree]           Total Energy ::          -11.281006293251
                                        Band Energy ::           -4.827239200000
                                     Kinetic Energy ::            3.405545064965
                                   Potential Energy ::          -14.686551358215
                                      Virial (-V/T) ::            4.312540600125
                                        Core Energy ::          -18.787370753201
                                          XC Energy ::           -2.181900935197
                                     Coulomb Energy ::            9.688265395148
                       Total Pseudopotential Energy ::          -22.268091755868
                       Local Pseudopotential Energy ::          -22.909338972733
                    Nonlocal Pseudopotential Energy ::            0.641247216865
                                        Confinement ::            0.751759377024

 Orbital energies  State     L     Occupation   Energy[a.u.]          Energy[eV]

                       1     0          2.000      -1.015423          -27.631065

                       1     1          5.000      -0.559279          -15.218746


 Total Electron Density at R=0:                                         0.000906

 Guess for atomic kind: Pb

 Electronic structure
    Total number of core electrons                                         78.00
    Total number of valence electrons                                       4.00
    Total number of electrons                                              82.00
    Multiplicity                                                   not specified
    S   [  2.00  2.00  2.00  2.00  2.00] 2.00
    P   [  6.00  6.00  6.00  6.00] 2.00
    D   [ 10.00 10.00 10.00]
    F   [ 14.00]


 *******************************************************************************
                  Iteration          Convergence                     Energy [au]
 *******************************************************************************
                          1         0.00000                      -3.334488567620

 Energy components [Hartree]           Total Energy ::           -3.334488567620
                                        Band Energy ::           -2.493053560830
                                     Kinetic Energy ::            1.362411891253
                                   Potential Energy ::           -4.696900458872
                                      Virial (-V/T) ::            3.447489330524
                                        Core Energy ::           -5.179275754156
                                          XC Energy ::           -0.936836278773
                                     Coulomb Energy ::            2.781623465309
                       Total Pseudopotential Energy ::           -6.595268847800
                       Local Pseudopotential Energy ::           -6.599860737731
                    Nonlocal Pseudopotential Energy ::            0.004591889931
                                        Confinement ::            0.535812023919

 Orbital energies  State     L     Occupation   Energy[a.u.]          Energy[eV]

                       1     0          2.000      -0.814587          -22.166042

                       1     1          2.000      -0.431940          -11.753677


 Total Electron Density at R=0:                                         0.000012

 Guess for atomic kind: C

 Electronic structure
    Total number of core electrons                                          2.00
    Total number of valence electrons                                       4.00
    Total number of electrons                                               6.00
    Multiplicity                                                   not specified
    S   [  2.00] 2.00
    P      2.00


 *******************************************************************************
                  Iteration          Convergence                     Energy [au]
 *******************************************************************************
                          1         0.00000                      -5.193179266359

 Energy components [Hartree]           Total Energy ::           -5.193179266359
                                        Band Energy ::           -1.089426063362
                                     Kinetic Energy ::            4.338444617531
                                   Potential Energy ::           -9.531623883890
                                      Virial (-V/T) ::            2.197014073978
                                        Core Energy ::           -8.574505764553
                                          XC Energy ::           -1.533265579935
                                     Coulomb Energy ::            4.914592078128
                       Total Pseudopotential Energy ::          -12.939213155833
                       Local Pseudopotential Energy ::          -13.491979661493
                    Nonlocal Pseudopotential Energy ::            0.552766505660
                                        Confinement ::            0.262627737492

 Orbital energies  State     L     Occupation   Energy[a.u.]          Energy[eV]

                       1     0          2.000      -0.418189          -11.379503

                       1     1          2.000      -0.126524           -3.442892


 Total Electron Density at R=0:                                         0.012643

 Guess for atomic kind: N

 Electronic structure
    Total number of core electrons                                          2.00
    Total number of valence electrons                                       5.00
    Total number of electrons                                               7.00
    Multiplicity                                                   not specified
    S   [  2.00] 2.00
    P      3.00


 *******************************************************************************
                  Iteration          Convergence                     Energy [au]
 *******************************************************************************
                          1         0.00000                      -9.516699812225

 Energy components [Hartree]           Total Energy ::           -9.516699812225
                                        Band Energy ::           -1.575119888772
                                     Kinetic Energy ::            7.570578894892
                                   Potential Energy ::          -17.087278707117
                                      Virial (-V/T) ::            2.257063686193
                                        Core Energy ::          -15.899031892889
                                          XC Energy ::           -2.289347639535
                                     Coulomb Energy ::            8.671679720199
                       Total Pseudopotential Energy ::          -23.501476200035
                       Local Pseudopotential Energy ::          -24.429638778414
                    Nonlocal Pseudopotential Energy ::            0.928162578379
                                        Confinement ::            0.318654122541

 Orbital energies  State     L     Occupation   Energy[a.u.]          Energy[eV]

                       1     0          2.000      -0.570074          -15.512512

                       1     1          3.000      -0.144990           -3.945389


 Total Electron Density at R=0:                                         0.000320

 Guess for atomic kind: H

 Electronic structure
    Total number of core electrons                                          0.00
    Total number of valence electrons                                       1.00
    Total number of electrons                                               1.00
[...]
 flops   468 x    32 x   128             38338560       0.0%    100.0%      0.0%
 flops     1 x    32 x     1             39358592       0.0%    100.0%      0.0%
 flops   448 x   148 x   151             40047616       0.0%    100.0%      0.0%
 flops   352 x    96 x   152             41091072       0.0%    100.0%      0.0%
 flops   352 x    96 x   153             41361408       0.0%    100.0%      0.0%
 flops   468 x   148 x   151             41835456       0.0%    100.0%      0.0%
 flops   448 x    32 x   148             42434560       0.0%    100.0%      0.0%
 flops   448 x    32 x   151             43294720       0.0%    100.0%      0.0%
 flops   468 x    32 x   148             44328960       0.0%    100.0%      0.0%
 flops   384 x    96 x   152             44826624       0.0%    100.0%      0.0%
 flops   384 x    96 x   153             45121536       0.0%    100.0%      0.0%
 flops   468 x    32 x   151             45227520       0.0%    100.0%      0.0%
 flops   458 x    20 x   160             46899200       0.0%    100.0%      0.0%
 flops   458 x    32 x    96             56279040       0.0%    100.0%      0.0%
 flops   458 x    20 x   128             56279040       0.0%    100.0%      0.0%
 flops     4 x    32 x    32             65208320       0.0%    100.0%      0.0%
 flops   352 x    32 x   152             68485120       0.0%    100.0%      0.0%
 flops   352 x    32 x   153             68935680       0.0%    100.0%      0.0%
 flops   448 x   128 x   152             69730304       0.0%    100.0%      0.0%
 flops   448 x   128 x   153             70189056       0.0%    100.0%      0.0%
 flops   468 x   128 x   152             72843264       0.0%    100.0%      0.0%
 flops   468 x   128 x   153             73322496       0.0%    100.0%      0.0%
 flops   384 x    32 x   152             74711040       0.0%    100.0%      0.0%
 flops   384 x    32 x   153             75202560       0.0%    100.0%      0.0%
 flops     4 x    20 x     4             78033920       0.0%    100.0%      0.0%
 flops   448 x   148 x   152             80625664       0.0%    100.0%      0.0%
 flops   448 x   148 x   153             81156096       0.0%    100.0%      0.0%
 flops   468 x   148 x   152             84225024       0.0%    100.0%      0.0%
 flops   468 x   148 x   153             84779136       0.0%    100.0%      0.0%
 flops   458 x    32 x   148             86763520       0.0%    100.0%      0.0%
 flops   448 x    32 x   152             87162880       0.0%    100.0%      0.0%
 flops   448 x    32 x   153             87736320       0.0%    100.0%      0.0%
 flops   468 x    32 x   152             91054080       0.0%    100.0%      0.0%
 flops   468 x    32 x   153             91653120       0.0%    100.0%      0.0%
 flops   352 x   128 x   151            136069120       0.0%    100.0%      0.0%
 flops   352 x    32 x   128            144179200       0.0%    100.0%      0.0%
 flops   384 x   128 x   151            148439040       0.0%    100.0%      0.0%
 flops   384 x    32 x   128            157286400       0.0%    100.0%      0.0%
 flops   448 x   160 x   151            173178880       0.0%    100.0%      0.0%
 flops   468 x   160 x   151            180910080       0.0%    100.0%      0.0%
 flops   448 x    32 x   160            183500800       0.0%    100.0%      0.0%
 flops   468 x    32 x   160            191692800       0.0%    100.0%      0.0%
 flops     4 x    32 x     1            227305984       0.0%    100.0%      0.0%
 flops     1 x    32 x     4            227305984       0.0%    100.0%      0.0%
 flops   352 x   128 x   152            273940480       0.0%    100.0%      0.0%
 flops   352 x   128 x   153            275742720       0.0%    100.0%      0.0%
 flops   384 x   128 x   152            298844160       0.0%    100.0%      0.0%
 flops   384 x   128 x   153            300810240       0.0%    100.0%      0.0%
 flops     1 x     1 x    96            331891200       0.0%    100.0%      0.0%
 flops   448 x   160 x   152            348651520       0.0%    100.0%      0.0%
 flops   448 x   160 x   153            350945280       0.0%    100.0%      0.0%
 flops   468 x   160 x   152            364216320       0.0%    100.0%      0.0%
 flops   468 x   160 x   153            366612480       0.0%    100.0%      0.0%
 flops   458 x    32 x   160            375193600       0.0%    100.0%      0.0%
 flops   458 x    32 x   128            450232320       0.0%    100.0%      0.0%
 flops     4 x    32 x     4           1701139456       0.0%    100.0%      0.0%
 flops     1 x     4 x    96           1872691200       0.0%    100.0%      0.0%
 flops     4 x     1 x    96           1880985600       0.0%    100.0%      0.0%
 flops     1 x     1 x   128           2212608000       0.0%    100.0%      0.0%
 flops     1 x     4 x   128          12484608000       0.0%    100.0%      0.0%
 flops     4 x     1 x   128          12539904000       0.0%    100.0%      0.0%
 flops     4 x     4 x    96          14229504000       0.0%    100.0%      0.0%
 flops     4 x     4 x   128          94863360000       0.0%    100.0%      0.0%
 flops inhomo. stacks                  1060517440     100.0%      0.0%      0.0%
 flops total                       151.143241E+09       0.7%     99.3%      0.0%
 flops max/rank                     13.886594E+09       0.7%     99.3%      0.0%
 matmuls inhomo. stacks                       120     100.0%      0.0%      0.0%
 matmuls total                           71855283       0.0%    100.0%      0.0%
 number of processed stacks                180174       0.1%     99.9%      0.0%
 average stack size                                     1.0     399.1       0.0
 marketing flops                   655.555035E+09
 -------------------------------------------------------------------------------
 # multiplications                            641
 max memory usage/rank               4.081324E+09
 # max total images/rank                        3
 # max 3D layers                                1
 # MPI messages exchanged                   61536
 MPI messages size (bytes):
  total size                        20.163117E+09
  min size                           0.000000E+00
  max size                         599.040000E+03
  average size                     327.663750E+03
 MPI breakdown and total messages size (bytes):
             size <=      128                 612                        0
       128 < size <=     8192                  60                   441600
      8192 < size <=    32768                 272                  7532800
     32768 < size <=   131072                4750                512011520
    131072 < size <=  4194304               55842              19643139376
   4194304 < size <= 16777216                   0                        0
  16777216 < size                               0                        0
 -------------------------------------------------------------------------------

 *** WARNING in dbcsr_mm.F:294 :: Using a non-square number of MPI ranks ***
 *** might lead to poor performance. Used ranks: 12 Suggested: 9 25      ***

 -------------------------------------------------------------------------------
 -                                                                             -
 -                      DBCSR MESSAGE PASSING PERFORMANCE                      -
 -                                                                             -
 -------------------------------------------------------------------------------
 ROUTINE             CALLS      AVE VOLUME [Bytes]
 MP_Bcast              115                     12.
 MP_Allreduce         4638                      9.
 MP_Alltoall         17379                 154776.
 MP_ISend            15292                 129616.
 MP_IRecv            15292                 123428.
 -------------------------------------------------------------------------------

 -------------------------------------------------------------------------------
 -                                                                             -
 -                                GRID STATISTICS                              -
 -                                                                             -
 -------------------------------------------------------------------------------
 LP    KERNEL             BACKEND                              COUNT     PERCENT
 1     collocate ortho    REF                               53212586      21.57%
 1     integrate ortho    REF                               53035800      21.49%
 2     collocate ortho    REF                               47065564      19.07%
 2     integrate ortho    REF                               46909200      19.01%
 0     collocate ortho    REF                               23290778       9.44%
 0     integrate ortho    REF                               23213400       9.41%
 0     collocate general  REF                                   7656       0.00%
 0     integrate general  REF                                   7656       0.00%
 -------------------------------------------------------------------------------

 MEMORY| Estimated peak process memory [MiB]                                3893

 -------------------------------------------------------------------------------
 ----                             MULTIGRID INFO                            ----
 -------------------------------------------------------------------------------
 count for grid        1:         130743          cutoff [a.u.]          110.00
 count for grid        2:          99530          cutoff [a.u.]           36.67
 count for grid        3:          84516          cutoff [a.u.]           12.22
 count for grid        4:          38315          cutoff [a.u.]            4.07
 total gridlevel count  :         353104

 -------------------------------------------------------------------------------
 -                                                                             -
 -                         MESSAGE PASSING PERFORMANCE                         -
 -                                                                             -
 -------------------------------------------------------------------------------

 ROUTINE             CALLS      AVE VOLUME [Bytes]
 MP_Group                4
 MP_Bcast              489                2139746.
 MP_Allreduce         7345                   2161.
 MP_Sync               610
 MP_Alltoall         11725              136972723.
 MP_ISendRecv        26444                 616704.
 MP_Wait             52932
 MP_comm_split           2
 MP_ISend            19264                5208613.
 MP_IRecv            19264                5208621.
 MP_Recv               630                 234496.
 -------------------------------------------------------------------------------


 -------------------------------------------------------------------------------
 -                                                                             -
 -                           R E F E R E N C E S                               -
 -                                                                             -
 -------------------------------------------------------------------------------
 
 CP2K version 8.2, the CP2K developers group (2021).
 CP2K is freely available from https://www.cp2k.org/ .

 Kuehne,Thomas D.; Iannuzzi,Marcella; Del Ben,Mauro;
 Rybkin,Vladimir V.; Seewald,Patrick; Stein,Frederick; Laino,Teodoro;
 Khaliullin,Rustam Z.; Schuett,Ole; Schiffmann,Florian; Golze,Dorothea;
 Wilhelm,Jan; Chulkov,Sergey; Bani-Hashemian,Mohammad Hossein;
 Weber,Valery; Borstnik,Urban; Taillefumier,Mathieu;
 Jakobovits,Alice Shoshana; Lazzaro,Alfio; Pabst,Hans; Mueller,Tiziano;
 Schade,Robert; Guidon,Manuel; Andermatt,Samuel; Holmberg,Nico;
 Schenter,Gregory K.; Hehn,Anna; Bussy,Augustin; Belleflamme,Fabian;
 Tabacchi,Gloria; Gloess,Andreas; Lass,Michael; Bethune,Iain;
 Mundy,Christopher J.; Plessl,Christian; Watkins,Matt;
 VandeVondele,Joost; Krack,Matthias; Hutter,Juerg. 
 The Journal of Chemical Physics, 152 (19), (2020). 
 CP2K: An electronic structure and molecular dynamics software package -
 Quickstep: Efficient and accurate electronic structure calculations.
 https://doi.org/10.1063/5.0007045

 Goerigk, Lars; Hansen, Andreas; Bauer, Christoph; Ehrlich, Stephan;
 Najibi, Asim; Grimme, Stefan. , 19 (48), (2017). 
 A look at the density functional theory zoo with the advanced GMTKN55 database
 for general main group thermochemistry, kinetics and noncovalent interactions.
 https://doi.org/10.1039/C7CP04913G

 Schuett, Ole; Messmer, Peter; Hutter, Juerg; VandeVondele, Joost. 
 Electronic Structure Calculations on Graphics Processing Units, John
 Wiley & Sons, Ltd, 173-190 (2016). 
 GPU-Accelerated Sparse Matrix-Matrix Multiplication for
 Linear Scaling Density Functional Theory.
 https://doi.org/10.1002/9781118670712.ch8

 Heinecke, A; Henry, G; Hutchinson, M; Pabst, H. 
 Proceedings of Intl. Supercomputing Conference, 981-991 (2016). 
 LIBXSMM: Accelerating Small Matrix Multiplications
 by Runtime Code Generation.
 https://doi.org/10.1109/SC.2016.83

 Borstnik, U; VandeVondele, J; Weber, V; Hutter, J. 
 PARALLEL COMPUTING, 40 (5-6), 47-58 (2014). 
 Sparse matrix multiplication: The distributed block-compressed sparse
 row library.
 https://doi.org/10.1016/j.parco.2014.03.012

 Hutter, J; Iannuzzi, M; Schiffmann, F; VandeVondele, J. 
 WIREs Comput Mol Sci., 4 (1), 15-25 (2014). 
 CP2K: atomistic simulations of condensed matter systems.
 https://doi.org/10.1002/wcms.1159

 Grimme, S; Ehrlich, S; Goerigk, L. 
 JOURNAL OF COMPUTATIONAL CHEMISTRY, 32, 1456 (2011). 
 Effect of the damping function in dispersion corrected density functional theory.
 https://doi.org/10.1002/jcc.21759

 Grimme, S; Antony, J; Ehrlich, S; Krieg, H. 
 JOURNAL OF CHEMICAL PHYSICS, 132 (15), 154104 (2010). 
 A consistent and accurate ab initio parametrization of density
 functional dispersion correction (DFT-D) for the 94 elements H-Pu.
 https://doi.org/10.1063/1.3382344

 VandeVondele, J; Hutter, J. 
 JOURNAL OF CHEMICAL PHYSICS, 127 (11), 114105 (2007). 
 Gaussian basis sets for accurate calculations on molecular systems in
 gas and condensed phases.
 https://doi.org/10.1063/1.2770708

 Krack, M. 
 THEORETICAL CHEMISTRY ACCOUNTS, 114 (1-3), 145-152 (2005). 
 Pseudopotentials for H to Kr optimized for gradient-corrected
 exchange-correlation functionals.
 https://doi.org/10.1007/s00214-005-0655-y

 VandeVondele, J; Krack, M; Mohamed, F; Parrinello, M; Chassaing, T;
 Hutter, J. COMPUTER PHYSICS COMMUNICATIONS, 167 (2), 103-128 (2005). 
 QUICKSTEP: Fast and accurate density functional calculations using a
 mixed Gaussian and plane waves approach.
 https://doi.org/10.1016/j.cpc.2004.12.014

 Frigo, M; Johnson, SG. 
 PROCEEDINGS OF THE IEEE, 93 (2), 216-231 (2005). 
 The design and implementation of FFTW3.
 https://doi.org/10.1109/JPROC.2004.840301

 VandeVondele, J; Hutter, J. 
 JOURNAL OF CHEMICAL PHYSICS, 118 (10), 4365-4369 (2003). 
 An efficient orbital transformation method for electronic structure
 calculations.
 https://doi.org/10.1063/1.1543154

 Hartwigsen, C; Goedecker, S; Hutter, J. 
 PHYSICAL REVIEW B, 58 (7), 3641-3662 (1998). 
 Relativistic separable dual-space Gaussian pseudopotentials from H to Rn.
 https://doi.org/10.1103/PhysRevB.58.3641

 Lippert, G; Hutter, J; Parrinello, M. 
 MOLECULAR PHYSICS, 92 (3), 477-487 (1997). 
 A hybrid Gaussian and plane wave density functional scheme.
 https://doi.org/10.1080/002689797170220

 Perdew, JP; Burke, K; Ernzerhof, M. 
 PHYSICAL REVIEW LETTERS, 77 (18), 3865-3868 (1996). 
 Generalized gradient approximation made simple.
 https://doi.org/10.1103/PhysRevLett.77.3865

 Goedecker, S; Teter, M; Hutter, J. 
 PHYSICAL REVIEW B, 54 (3), 1703-1710 (1996). 
 Separable dual-space Gaussian pseudopotentials.
 https://doi.org/10.1103/PhysRevB.54.1703


 -------------------------------------------------------------------------------
 -                                                                             -
 -                                T I M I N G                                  -
 -                                                                             -
 -------------------------------------------------------------------------------
 SUBROUTINE                       CALLS  ASD         SELF TIME        TOTAL TIME
                                MAXIMUM       AVERAGE  MAXIMUM  AVERAGE  MAXIMUM
 CP2K                                 1  1.0    0.133    0.139 5344.547 5344.569
 qs_energies                          1  2.0    0.000    0.000 5342.414 5342.435
 scf_env_do_scf                       1  3.0    0.000    0.001 5334.463 5334.486
 scf_env_do_scf_inner_loop          300  4.0    0.011    0.050 5334.463 5334.486
 qs_ks_update_qs_env                300  5.0    0.003    0.003 3422.639 3422.654
 rebuild_ks_matrix                  300  6.0    0.001    0.001 3422.492 3422.504
 qs_ks_build_kohn_sham_matrix       300  7.0    0.044    0.048 3422.491 3422.503
 pw_transfer                      11109  9.5    0.842    1.048 3014.572 3136.108
 fft_wrap_pw1pw2                  10509 10.5    0.137    0.175 3003.019 3124.548
 fft_wrap_pw1pw2_110               6903 11.6  256.186  264.525 2889.892 3012.588
 qs_vxc_create                      300  8.0    0.007    0.007 2516.705 2517.521
 xc_vxc_pw_create                   300  9.0   57.671   58.091 2516.699 2517.514
 fft3d_ps                         10509 12.5 1291.331 1306.042 2108.680 2240.280
 xc_rho_set_and_dset_create         300 10.0   16.603   16.926 1308.885 1386.598
 qs_rho_update_rho                  301  5.0    0.002    0.002  963.364  963.464
 calculate_rho_elec                 602  6.0    9.029    9.053  963.362  963.462
 gspace_mixing                      299  5.0    8.979    8.996  876.259  876.262
 density_rs2pw                      602  7.0    0.031    0.033  716.890  747.659
 sum_up_and_integrate               300  8.0    5.110    5.190  713.881  713.891
 integrate_v_rspace                 600  9.0    0.020    0.023  708.770  708.821
 broyden_mixing                     299  6.0  545.191  551.412  580.989  581.584
 xc_functional_eval                 300 11.0    0.004    0.004  474.243  552.179
 pbe_lsd_eval                       300 12.0  474.239  552.176  474.239  552.176
 mp_alltoall_z22v                 10509 14.5  395.243  535.949  395.243  535.949
 yz_to_x                           4809 13.1  158.168  160.963  371.818  501.652
 x_to_yz                           5700 13.9  263.748  265.830  445.342  458.058
 potential_pw2rs                    600 10.0    0.410    0.445  454.200  454.282
 pw_gather_p                       4809 12.1  334.642  347.747  334.642  347.747
 rs_pw_transfer                    4812  9.5    0.077    0.090  295.051  326.671
 pw_scatter_p                      5700 12.9  297.901  307.305  297.901  307.305
 grid_collocate_task_list           602  7.0  234.235  274.795  234.235  274.795
 grid_integrate_task_list           600 10.0  212.651  254.075  212.651  254.075
 rs_pw_transfer_RS2PW_110           604  9.0   67.880   68.901  119.290  152.213
 mp_waitany                       19264 11.5   79.729  113.444   79.729  113.444
 pw_derive                         3600 10.5  107.468  109.938  107.468  109.938
 -------------------------------------------------------------------------------

 The number of warnings for this run is : 4
 
 -------------------------------------------------------------------------------
  **** **** ******  **  PROGRAM ENDED AT                 2023-12-04 03:33:21.694
 ***** ** ***  *** **   PROGRAM RAN ON                  pe85.int.triton.aalto.fi
 **    ****   ******    PROGRAM RAN BY                                   huangj4
 ***** **    ** ** **   PROGRAM PROCESS ID                                 17270
  **** **  *******  **  PROGRAM STOPPED IN /scratch/phys/sin/Jie/Github/cp2kTest
                                           /PDOSNaked234/Cluster_333
