# Projected DOS for atomic kind H at iteration step i = 0, E(Fermi) =    -0.172077 a.u.
#     MO Eigenvalue [a.u.]      Occupation                 s
       1         -0.952918        1.000000        0.28164561
       2         -0.945306        1.000000        0.28346107
       3         -0.942427        1.000000        0.28037282
       4         -0.940424        1.000000        0.28246482
       5         -0.936657        1.000000        0.27978730
       6         -0.936357        1.000000        0.28130527
       7         -0.926083        1.000000        0.28053858
       8         -0.693813        1.000000        0.34284070
       9         -0.690003        1.000000        0.34834033
      10         -0.684866        1.000000        0.34845403
      11         -0.683701        1.000000        0.34081306
      12         -0.683459        1.000000        0.34387013
      13         -0.680384        1.000000        0.34522073
      14         -0.671849        1.000000        0.34654782
      15         -0.640367        1.000000        0.00807855
      16         -0.631081        1.000000        0.00158353
      17         -0.622812        1.000000        0.00079845
      18         -0.619688        1.000000        0.00272803
      19         -0.615428        1.000000        0.00680456
      20         -0.603536        1.000000        0.01524393
      21         -0.597807        1.000000        0.02002259
      22         -0.594685        1.000000        0.01798660
      23         -0.594373        1.000000        0.00679458
      24         -0.593210        1.000000        0.01334889
      25         -0.591257        1.000000        0.07270142
      26         -0.588248        1.000000        0.09322273
      27         -0.587614        1.000000        0.03817443
      28         -0.586131        1.000000        0.06233421
      29         -0.583927        1.000000        0.01158955
      30         -0.583168        1.000000        0.04479500
      31         -0.582586        1.000000        0.07931013
      32         -0.582336        1.000000        0.02699419
      33         -0.580369        1.000000        0.03223040
      34         -0.580076        1.000000        0.03630010
      35         -0.578440        1.000000        0.05998259
      36         -0.577987        1.000000        0.08962938
      37         -0.577675        1.000000        0.21648730
      38         -0.576143        1.000000        0.07172104
      39         -0.575209        1.000000        0.03214447
      40         -0.574827        1.000000        0.04675339
      41         -0.574316        1.000000        0.06652349
      42         -0.573214        1.000000        0.14243811
      43         -0.572806        1.000000        0.01012836
      44         -0.571373        1.000000        0.00207282
      45         -0.570790        1.000000        0.05389581
      46         -0.570480        1.000000        0.16668138
      47         -0.569812        1.000000        0.05388179
      48         -0.568011        1.000000        0.28093319
      49         -0.566927        1.000000        0.04665641
      50         -0.564172        1.000000        0.23019149
      51         -0.562723        1.000000        0.28626909
      52         -0.561038        1.000000        0.05230077
      53         -0.560386        1.000000        0.14744903
      54         -0.559965        1.000000        0.22583048
      55         -0.559374        1.000000        0.02840181
      56         -0.557587        1.000000        0.25699560
      57         -0.556621        1.000000        0.12726918
      58         -0.554431        1.000000        0.09660652
      59         -0.551156        1.000000        0.23721639
      60         -0.545922        1.000000        0.25893828
      61         -0.544889        1.000000        0.18970710
      62         -0.541933        1.000000        0.15065598
      63         -0.538446        1.000000        0.18396274
      64         -0.538039        1.000000        0.23377508
      65         -0.473953        1.000000        0.17615475
      66         -0.469955        1.000000        0.17313131
      67         -0.465112        1.000000        0.03760754
      68         -0.464752        1.000000        0.13947447
      69         -0.464189        1.000000        0.16266051
      70         -0.463813        1.000000        0.17685172
      71         -0.461699        1.000000        0.09634147
      72         -0.460867        1.000000        0.02239031
      73         -0.459448        1.000000        0.07486236
      74         -0.458486        1.000000        0.00460804
      75         -0.454241        1.000000        0.02803796
      76         -0.451607        1.000000        0.14841929
      77         -0.450242        1.000000        0.00188616
      78         -0.443153        1.000000        0.00420280
      79         -0.439584        1.000000        0.00158850
      80         -0.410742        1.000000        0.42184393
      81         -0.409901        1.000000        0.42057406
      82         -0.407698        1.000000        0.42237241
      83         -0.406292        1.000000        0.42137074
      84         -0.402421        1.000000        0.42375446
      85         -0.401821        1.000000        0.42214041
      86         -0.400759        1.000000        0.42096603
      87         -0.400112        1.000000        0.42186870
      88         -0.398917        1.000000        0.41956961
      89         -0.398313        1.000000        0.41769709
      90         -0.398197        1.000000        0.42100148
      91         -0.395468        1.000000        0.41973042
      92         -0.390100        1.000000        0.42459309
      93         -0.386859        1.000000        0.42035830
      94         -0.323843        1.000000        0.00065394
      95         -0.315921        1.000000        0.00011977
      96         -0.305522        1.000000        0.00040995
      97         -0.303267        1.000000        0.00012501
      98         -0.299335        1.000000        0.00018943
      99         -0.276640        1.000000        0.00046420
     100         -0.273909        1.000000        0.00057652
     101         -0.273376        1.000000        0.00173069
     102         -0.269729        1.000000        0.00041616
     103         -0.268748        1.000000        0.00066147
     104         -0.266654        1.000000        0.00044169
     105         -0.265242        1.000000        0.00041486
     106         -0.264939        1.000000        0.00053884
     107         -0.263329        1.000000        0.00044946
     108         -0.260755        1.000000        0.00069283
     109         -0.257656        1.000000        0.00036130
     110         -0.256438        1.000000        0.00044164
     111         -0.256062        1.000000        0.00037755
     112         -0.254499        1.000000        0.00086563
     113         -0.253895        1.000000        0.00046040
     114         -0.252564        1.000000        0.00093284
     115         -0.251026        1.000000        0.00035130
     116         -0.247308        1.000000        0.00043101
     117         -0.245709        1.000000        0.00067292
     118         -0.244702        1.000000        0.00049838
     119         -0.244475        1.000000        0.00046391
     120         -0.243351        1.000000        0.00043380
     121         -0.240288        1.000000        0.00049735
     122         -0.239086        1.000000        0.00040132
     123         -0.237191        1.000000        0.00075089
     124         -0.236270        1.000000        0.00055000
     125         -0.235699        1.000000        0.00064395
     126         -0.234113        1.000000        0.00136221
     127         -0.233479        1.000000        0.00087364
     128         -0.232405        1.000000        0.00044329
     129         -0.229411        1.000000        0.00120403
     130         -0.227763        1.000000        0.00069046
     131         -0.225413        1.000000        0.00092677
     132         -0.224052        1.000000        0.00252573
     133         -0.222361        1.000000        0.00139932
     134         -0.220691        1.000000        0.00067862
     135         -0.219020        1.000000        0.00101007
     136         -0.218327        1.000000        0.00079138
     137         -0.216233        1.000000        0.00070725
     138         -0.215483        1.000000        0.00238583
     139         -0.214606        1.000000        0.00153054
     140         -0.214369        1.000000        0.00159945
     141         -0.213409        1.000000        0.00162685
     142         -0.211776        1.000000        0.00196126
     143         -0.211151        1.000000        0.00109408
     144         -0.210146        1.000000        0.00109531
     145         -0.208580        1.000000        0.00181317
     146         -0.208428        1.000000        0.00061281
     147         -0.207772        1.000000        0.00164000
     148         -0.207417        1.000000        0.00112317
     149         -0.205794        1.000000        0.00122320
     150         -0.205456        1.000000        0.00111446
     151         -0.205045        1.000000        0.00112308
     152         -0.203876        1.000000        0.00065514
     153         -0.203271        1.000000        0.00075586
     154         -0.202406        1.000000        0.00132000
     155         -0.201918        1.000000        0.00131070
     156         -0.201169        1.000000        0.00047086
     157         -0.200653        1.000000        0.00061377
     158         -0.199566        1.000000        0.00062741
     159         -0.198541        1.000000        0.00077735
     160         -0.197965        1.000000        0.00204046
     161         -0.197009        1.000000        0.00079091
     162         -0.196589        1.000000        0.00060456
     163         -0.196293        1.000000        0.00151998
     164         -0.195928        1.000000        0.00130350
     165         -0.195080        1.000000        0.00166852
     166         -0.194735        1.000000        0.00068332
     167         -0.193768        1.000000        0.00134806
     168         -0.193492        1.000000        0.00078644
     169         -0.193362        1.000000        0.00054367
     170         -0.192850        1.000000        0.00058231
     171         -0.191806        1.000000        0.00252888
     172         -0.191160        1.000000        0.00055728
     173         -0.190214        1.000000        0.00120176
     174         -0.190079        1.000000        0.00339087
     175         -0.189442        1.000000        0.00109413
     176         -0.188828        1.000000        0.00095257
     177         -0.188175        1.000000        0.00031190
     178         -0.187748        1.000000        0.00026339
     179         -0.187689        1.000000        0.00017325
     180         -0.187342        1.000000        0.00033349
     181         -0.186848        1.000000        0.00067077
     182         -0.186470        1.000000        0.00037137
     183         -0.186117        1.000000        0.00016228
     184         -0.184686        1.000000        0.00135222
     185         -0.184078        1.000000        0.00055420
     186         -0.183198        1.000000        0.00050559
     187         -0.182472        1.000000        0.00022477
     188         -0.182396        1.000000        0.00039692
     189         -0.181912        1.000000        0.00029993
     190         -0.178394        1.000000        0.00032006
     191         -0.176336        1.000000        0.00016093
     192         -0.174275        1.000000        0.00014561
     193         -0.174208        1.000000        0.00004968
     194         -0.172599        1.000000        0.00008976
     195         -0.172077        1.000000        0.00024206
     196         -0.168826        0.000000        0.00015433
     197         -0.167272        0.000000        0.00003199
     198         -0.160679        0.000000        0.00011689
     199         -0.155514        0.000000        0.00019841
     200         -0.155092        0.000000        0.00007110
     201         -0.129184        0.000000        0.00002652
     202         -0.074147        0.000000        0.00052033
     203         -0.073773        0.000000        0.00008393
     204         -0.072841        0.000000        0.00028044
     205         -0.062706        0.000000        0.00084633
     206         -0.055850        0.000000        0.00025016
     207         -0.052998        0.000000        0.00017142
     208         -0.049522        0.000000        0.00022494
     209         -0.046686        0.000000        0.00019202
     210         -0.040753        0.000000        0.00020826
     211         -0.040501        0.000000        0.00021756
     212         -0.038560        0.000000        0.00045104
     213         -0.034739        0.000000        0.00017403
     214         -0.033647        0.000000        0.00024102
     215         -0.030607        0.000000        0.00044592
     216         -0.026412        0.000000        0.00038051
     217         -0.024009        0.000000        0.00010626
     218         -0.022598        0.000000        0.00078818
     219         -0.020635        0.000000        0.00011002
     220         -0.017987        0.000000        0.00018787
     221         -0.017747        0.000000        0.00018107
     222         -0.014872        0.000000        0.00059774
     223         -0.014478        0.000000        0.00037437
     224         -0.011896        0.000000        0.00024090
     225         -0.008742        0.000000        0.00088582
     226          0.088305        0.000000        0.00337619
     227          0.098884        0.000000        0.00283974
     228          0.102781        0.000000        0.00465501
     229          0.103763        0.000000        0.00423155
     230          0.103953        0.000000        0.00389466
     231          0.108999        0.000000        0.00366259
     232          0.115317        0.000000        0.00335113
     233          0.283665        0.000000        0.66148431
     234          0.284817        0.000000        0.65851355
     235          0.286037        0.000000        0.66705581
     236          0.290040        0.000000        0.66005585
     237          0.293168        0.000000        0.65941273
     238          0.294703        0.000000        0.66299061
     239          0.295023        0.000000        0.66154403
     240          0.295166        0.000000        0.66402485
     241          0.296596        0.000000        0.65848253
     242          0.298058        0.000000        0.66132259
     243          0.300357        0.000000        0.66120022
     244          0.301917        0.000000        0.65710100
     245          0.307552        0.000000        0.66239699
     246          0.311189        0.000000        0.66183997
     247          0.316485        0.000000        0.63497161
     248          0.327639        0.000000        0.63347910
     249          0.336288        0.000000        0.63165832
     250          0.337491        0.000000        0.63144692
     251          0.337676        0.000000        0.63174098
     252          0.344754        0.000000        0.63233397
     253          0.349259        0.000000        0.63130686
     254          0.454596        0.000000        0.58397269
     255          0.459539        0.000000        0.58419438
     256          0.462974        0.000000        0.58143499
     257          0.464494        0.000000        0.57926902
     258          0.466160        0.000000        0.58132941
     259          0.467274        0.000000        0.58173433
     260          0.468490        0.000000        0.58432143
     261          0.470005        0.000000        0.58293190
     262          0.470873        0.000000        0.58511180
     263          0.472369        0.000000        0.58248762
     264          0.473060        0.000000        0.58226289
     265          0.473369        0.000000        0.58366812
     266          0.477101        0.000000        0.58387907
     267          0.479767        0.000000        0.58049277
     268          0.550721        0.000000        0.55418914
     269          0.560087        0.000000        0.55227855
     270          0.563957        0.000000        0.55257751
     271          0.566366        0.000000        0.55376767
     272          0.568049        0.000000        0.55280588
     273          0.571885        0.000000        0.55238850
     274          0.575456        0.000000        0.55317664
