# Projected DOS for atomic kind Pb at iteration step i = 0, E(Fermi) =    -0.171329 a.u.
#     MO Eigenvalue [a.u.]      Occupation                 s                py                pz                px
       1         -0.952921        1.000000        0.00000006        0.00000013        0.00000072        0.00000009
       2         -0.945307        1.000000        0.00000041        0.00000303        0.00000698        0.00000353
       3         -0.942426        1.000000        0.00000021        0.00000088        0.00000127        0.00000056
       4         -0.940424        1.000000        0.00000063        0.00000725        0.00000575        0.00000603
       5         -0.936657        1.000000        0.00000063        0.00000659        0.00000722        0.00000364
       6         -0.936357        1.000000        0.00000047        0.00000255        0.00000351        0.00000487
       7         -0.926084        1.000000        0.00000116        0.00001519        0.00001020        0.00000968
       8         -0.693810        1.000000        0.00000291        0.00000206        0.00000482        0.00000014
       9         -0.690003        1.000000        0.00001597        0.00001374        0.00001442        0.00000794
      10         -0.684866        1.000000        0.00003322        0.00002295        0.00003224        0.00001148
      11         -0.683700        1.000000        0.00002318        0.00002934        0.00003775        0.00002321
      12         -0.683458        1.000000        0.00008448        0.00008370        0.00004665        0.00006168
      13         -0.680384        1.000000        0.00004099        0.00003747        0.00005460        0.00003597
      14         -0.671848        1.000000        0.00006805        0.00005094        0.00003940        0.00001949
      15         -0.640367        1.000000        0.00170249        0.00027805        0.00206332        0.00047854
      16         -0.631104        1.000000        0.01276616        0.00034422        0.00628153        0.00080996
      17         -0.622824        1.000000        0.02272649        0.00748788        0.00040607        0.00843931
      18         -0.619654        1.000000        0.00134738        0.00558746        0.00005179        0.00010373
      19         -0.614885        1.000000        0.03993861        0.01125681        0.00070033        0.00070605
      20         -0.603481        1.000000        0.04519807        0.00220155        0.00331698        0.00851449
      21         -0.597755        1.000000        0.11770155        0.00814123        0.00037738        0.00104251
      22         -0.594224        1.000000        0.10552291        0.00449529        0.00075304        0.01030726
      23         -0.594030        1.000000        0.09817312        0.00394584        0.00129967        0.00874585
      24         -0.592277        1.000000        0.06345674        0.00453567        0.00179631        0.01900315
      25         -0.591212        1.000000        0.02532529        0.01169041        0.00097871        0.00458446
      26         -0.587664        1.000000        0.07300981        0.00772769        0.00395473        0.00067515
      27         -0.586485        1.000000        0.04121221        0.00329231        0.00195032        0.00810924
      28         -0.585400        1.000000        0.01097535        0.00328611        0.00241824        0.00893993
      29         -0.583846        1.000000        0.03329357        0.02092908        0.00111652        0.00367884
      30         -0.582996        1.000000        0.00911034        0.00206743        0.00386956        0.00430294
      31         -0.582420        1.000000        0.02147118        0.00894752        0.00576526        0.00275449
      32         -0.582207        1.000000        0.01142481        0.00421157        0.00293131        0.00452454
      33         -0.580324        1.000000        0.02123294        0.00324407        0.02523995        0.00472430
      34         -0.580057        1.000000        0.01712196        0.00553291        0.02496465        0.00343414
      35         -0.577897        1.000000        0.03320937        0.00847172        0.00916100        0.00924107
      36         -0.577823        1.000000        0.00499126        0.00176512        0.00196678        0.00084599
      37         -0.576942        1.000000        0.02043091        0.01171063        0.01001553        0.00091670
      38         -0.575891        1.000000        0.00492998        0.00387014        0.01394377        0.00565545
      39         -0.574955        1.000000        0.01437450        0.01266838        0.01282101        0.00519015
      40         -0.574743        1.000000        0.00969162        0.01269560        0.01699174        0.00420188
      41         -0.574171        1.000000        0.01028362        0.00256735        0.01789067        0.00386299
      42         -0.573190        1.000000        0.00177265        0.00586956        0.00178151        0.01192483
      43         -0.572513        1.000000        0.00024944        0.01512072        0.02509998        0.00664692
      44         -0.571375        1.000000        0.00139012        0.01834552        0.00522508        0.00369280
      45         -0.570494        1.000000        0.00463121        0.00129306        0.01086483        0.00252281
      46         -0.569631        1.000000        0.05282075        0.00150821        0.01447234        0.00492437
      47         -0.568008        1.000000        0.00270630        0.00092811        0.00116073        0.00060868
      48         -0.567088        1.000000        0.02757208        0.00211303        0.01123010        0.02256809
      49         -0.565592        1.000000        0.07143147        0.01771741        0.00649408        0.00411158
      50         -0.564140        1.000000        0.00190816        0.00307663        0.00174480        0.00627834
      51         -0.562719        1.000000        0.00594457        0.00155059        0.00232416        0.00017829
      52         -0.560392        1.000000        0.00858489        0.00939947        0.00227570        0.00058123
      53         -0.559963        1.000000        0.00728073        0.00768430        0.00073498        0.00052785
      54         -0.559468        1.000000        0.00080368        0.00136209        0.00096254        0.00124911
      55         -0.557586        1.000000        0.00490887        0.00025513        0.00168081        0.00571646
      56         -0.554223        1.000000        0.02477489        0.02246486        0.00642979        0.00057573
      57         -0.553685        1.000000        0.00425978        0.00753100        0.03127877        0.00052539
      58         -0.552342        1.000000        0.00352974        0.01433291        0.00013109        0.00061510
      59         -0.551138        1.000000        0.02606317        0.00293030        0.00072388        0.00061914
      60         -0.545807        1.000000        0.00299173        0.00114517        0.00674697        0.00022755
      61         -0.544886        1.000000        0.01162047        0.00240203        0.00396164        0.00694210
      62         -0.541934        1.000000        0.00196091        0.00012135        0.01354189        0.00448808
      63         -0.538424        1.000000        0.00037265        0.00447204        0.00140065        0.00016594
      64         -0.537832        1.000000        0.00926848        0.00126324        0.00799567        0.00017252
      65         -0.473928        1.000000        0.00248861        0.00002303        0.00011058        0.00001023
      66         -0.469954        1.000000        0.01216143        0.00005718        0.00009678        0.00004546
      67         -0.465117        1.000000        0.57670354        0.00008399        0.00181242        0.00013424
      68         -0.464752        1.000000        0.15476032        0.00005308        0.00029774        0.00004250
      69         -0.464187        1.000000        0.06720704        0.00017393        0.00010009        0.00003274
      70         -0.463806        1.000000        0.01126475        0.00004028        0.00003089        0.00003096
      71         -0.461691        1.000000        0.31189597        0.00038870        0.00028116        0.00022437
      72         -0.460663        1.000000        0.58587897        0.00094728        0.00052779        0.00061800
      73         -0.459418        1.000000        0.40926763        0.00046516        0.00023575        0.00034804
      74         -0.458458        1.000000        0.73630362        0.00002501        0.00115593        0.00014295
      75         -0.454140        1.000000        0.58865706        0.00077858        0.00044574        0.00068384
      76         -0.451578        1.000000        0.11192071        0.00007475        0.00012207        0.00025395
      77         -0.447662        1.000000        0.72081146        0.00171722        0.00124148        0.00085245
      78         -0.443151        1.000000        0.70983808        0.00044315        0.00038986        0.00043699
      79         -0.438487        1.000000        0.74627929        0.00033510        0.00013916        0.00066001
      80         -0.410725        1.000000        0.00065849        0.00000249        0.00007980        0.00000672
      81         -0.409899        1.000000        0.00005892        0.00001020        0.00000963        0.00000208
      82         -0.407698        1.000000        0.00071427        0.00007858        0.00001377        0.00009533
      83         -0.406288        1.000000        0.00119964        0.00004845        0.00007401        0.00010751
      84         -0.402421        1.000000        0.00034189        0.00015389        0.00024531        0.00004023
      85         -0.401817        1.000000        0.00030641        0.00008487        0.00014928        0.00001375
      86         -0.400759        1.000000        0.00013178        0.00004368        0.00008749        0.00004826
      87         -0.400111        1.000000        0.00040856        0.00020295        0.00004296        0.00009526
      88         -0.398917        1.000000        0.00093935        0.00043036        0.00028188        0.00020587
      89         -0.398310        1.000000        0.00046370        0.00015723        0.00015824        0.00008835
      90         -0.398196        1.000000        0.00055981        0.00013372        0.00012374        0.00014084
      91         -0.395468        1.000000        0.00087973        0.00005568        0.00027787        0.00026579
      92         -0.390099        1.000000        0.00006823        0.00001275        0.00003621        0.00001045
      93         -0.386842        1.000000        0.00019414        0.00005391        0.00014509        0.00003532
      94         -0.323849        1.000000        0.00592731        0.00689027        0.00789983        0.00203872
      95         -0.315952        1.000000        0.00417242        0.02307190        0.05191927        0.01787337
      96         -0.305510        1.000000        0.00105578        0.00853458        0.00861983        0.00275054
      97         -0.303277        1.000000        0.00923589        0.05915233        0.00814054        0.01631197
      98         -0.298799        1.000000        0.00535329        0.10568058        0.00519736        0.02791822
      99         -0.276492        1.000000        0.00562015        0.09288465        0.08043258        0.03398085
     100         -0.273732        1.000000        0.00199380        0.09740485        0.04719179        0.02131699
     101         -0.273066        1.000000        0.00741037        0.07281694        0.03830856        0.02958814
     102         -0.269511        1.000000        0.00240175        0.06694183        0.09095866        0.08502452
     103         -0.268426        1.000000        0.00162457        0.10322291        0.05277299        0.01892715
     104         -0.265560        1.000000        0.00390909        0.03699651        0.04970566        0.11294273
     105         -0.264931        1.000000        0.00101935        0.01696184        0.05667608        0.18080959
     106         -0.264692        1.000000        0.00489093        0.06287070        0.04752212        0.07286852
     107         -0.262923        1.000000        0.00098744        0.06250028        0.09052154        0.07031473
     108         -0.257322        1.000000        0.00191170        0.06443949        0.08246368        0.04285292
     109         -0.256894        1.000000        0.00156854        0.04182335        0.09525071        0.07383616
     110         -0.256130        1.000000        0.00016414        0.06668470        0.10942775        0.04459382
     111         -0.255739        1.000000        0.00067002        0.11081944        0.06565386        0.04406374
     112         -0.254158        1.000000        0.00078223        0.01944348        0.11234479        0.04286145
     113         -0.252575        1.000000        0.00061033        0.04912050        0.01795213        0.01508853
     114         -0.251752        1.000000        0.00123363        0.03755059        0.09224605        0.05859116
     115         -0.250358        1.000000        0.00181473        0.03487297        0.11973020        0.02488705
     116         -0.247144        1.000000        0.00447898        0.03629499        0.09838270        0.02466651
     117         -0.245542        1.000000        0.00705376        0.02759719        0.02617504        0.03464625
     118         -0.244403        1.000000        0.00294746        0.06055731        0.02412243        0.09173056
     119         -0.243421        1.000000        0.00440334        0.04461959        0.05917994        0.07032093
     120         -0.242997        1.000000        0.00606498        0.06485215        0.06130000        0.07712832
     121         -0.239911        1.000000        0.00394515        0.06170591        0.04612338        0.02271534
     122         -0.238443        1.000000        0.00122336        0.01964913        0.03304560        0.01286774
     123         -0.236608        1.000000        0.00449269        0.03761235        0.01485339        0.05636178
     124         -0.236013        1.000000        0.00674101        0.02760789        0.01645180        0.05988542
     125         -0.235208        1.000000        0.00184533        0.06315887        0.06040849        0.01570233
     126         -0.233913        1.000000        0.00452541        0.03385424        0.03349028        0.05513113
     127         -0.232358        1.000000        0.00290328        0.02340404        0.03125888        0.07535824
     128         -0.231975        1.000000        0.00823880        0.01403939        0.05468570        0.01805086
     129         -0.229303        1.000000        0.00271184        0.01470674        0.00424718        0.01328542
     130         -0.227524        1.000000        0.00635529        0.03268582        0.01722848        0.03269749
     131         -0.224407        1.000000        0.00315939        0.00990996        0.00809679        0.01468078
     132         -0.223099        1.000000        0.00650491        0.02554347        0.01671798        0.01547366
     133         -0.221927        1.000000        0.00832374        0.01332112        0.02979936        0.01519455
     134         -0.219921        1.000000        0.00857306        0.02339052        0.00393178        0.02271051
     135         -0.218616        1.000000        0.01189350        0.02374142        0.00745698        0.01708788
     136         -0.217955        1.000000        0.00647074        0.01662987        0.01189893        0.00831021
     137         -0.215980        1.000000        0.00965801        0.01800836        0.00993751        0.01625494
     138         -0.215282        1.000000        0.00849911        0.01485629        0.01691199        0.00520130
     139         -0.214268        1.000000        0.00368276        0.00393462        0.00628255        0.00520906
     140         -0.213955        1.000000        0.00208776        0.00550186        0.00837446        0.00393735
     141         -0.212335        1.000000        0.00745669        0.01211501        0.01195163        0.01002885
     142         -0.211675        1.000000        0.00138928        0.00393389        0.00160820        0.00345086
     143         -0.210759        1.000000        0.00210833        0.00634661        0.00228250        0.00322841
     144         -0.209500        1.000000        0.00327779        0.00416917        0.00764902        0.00208390
     145         -0.207903        1.000000        0.00669554        0.01671473        0.00480503        0.00481812
     146         -0.207805        1.000000        0.01002336        0.00574007        0.00569313        0.00971287
     147         -0.207349        1.000000        0.00428950        0.00469625        0.00271246        0.00154570
     148         -0.206403        1.000000        0.00499591        0.00118383        0.00416590        0.00540893
     149         -0.205587        1.000000        0.00425002        0.00225886        0.00278845        0.00649919
     150         -0.205023        1.000000        0.00612402        0.00674976        0.00396356        0.00999396
     151         -0.204515        1.000000        0.00539556        0.00532591        0.00666128        0.01073995
     152         -0.203628        1.000000        0.00641789        0.00781547        0.00382319        0.00507249
     153         -0.202296        1.000000        0.00608257        0.00230450        0.00338209        0.00569940
     154         -0.201945        1.000000        0.01174522        0.00869043        0.00728046        0.01998369
     155         -0.201719        1.000000        0.00478761        0.00347456        0.00348635        0.00624766
     156         -0.201037        1.000000        0.01122889        0.00965781        0.00474693        0.01116516
     157         -0.200342        1.000000        0.00471893        0.00443865        0.00290043        0.00190735
     158         -0.199338        1.000000        0.01043234        0.00452004        0.00327773        0.01203166
     159         -0.198120        1.000000        0.00947601        0.00282837        0.00372712        0.00711179
     160         -0.197881        1.000000        0.00254943        0.00240284        0.00138888        0.00383539
     161         -0.196969        1.000000        0.00302926        0.00291935        0.00109201        0.00455410
     162         -0.196420        1.000000        0.00622360        0.00171135        0.00205145        0.00136977
     163         -0.195978        1.000000        0.00423495        0.00069658        0.00120411        0.00497178
     164         -0.195766        1.000000        0.00999074        0.00213612        0.00211852        0.00676844
     165         -0.194940        1.000000        0.00113112        0.00043731        0.00089187        0.00146091
     166         -0.194230        1.000000        0.00728953        0.00309592        0.00209988        0.00491122
     167         -0.193669        1.000000        0.00948801        0.00364633        0.00289025        0.00213617
     168         -0.193260        1.000000        0.00116598        0.00060319        0.00033643        0.00078672
     169         -0.193007        1.000000        0.00892214        0.00165817        0.00245856        0.00427475
     170         -0.192643        1.000000        0.01261762        0.00193617        0.00287127        0.00577525
     171         -0.191575        1.000000        0.00436706        0.00176741        0.00277681        0.00166307
     172         -0.190365        1.000000        0.00289778        0.00425763        0.00116110        0.00677409
     173         -0.189998        1.000000        0.00334503        0.00136572        0.00046348        0.00322700
     174         -0.189711        1.000000        0.00316865        0.00283656        0.00068642        0.00290064
     175         -0.188943        1.000000        0.00556503        0.00179247        0.00298624        0.00707080
     176         -0.188649        1.000000        0.00559926        0.00181108        0.00151395        0.00294968
     177         -0.188060        1.000000        0.00519501        0.00161976        0.00068888        0.00363771
     178         -0.187647        1.000000        0.00681471        0.00257285        0.00172725        0.00493494
     179         -0.187376        1.000000        0.00215563        0.00079315        0.00053753        0.00150649
     180         -0.187074        1.000000        0.00429602        0.00192953        0.00083616        0.00175933
     181         -0.186116        1.000000        0.00160765        0.00062921        0.00113398        0.00150677
     182         -0.185475        1.000000        0.00296272        0.00024271        0.00061419        0.00499431
     183         -0.184652        1.000000        0.00078622        0.00097399        0.00028850        0.00081167
     184         -0.183392        1.000000        0.00944158        0.00196036        0.00222145        0.00141162
     185         -0.183104        1.000000        0.01568730        0.00223568        0.00245367        0.00414321
     186         -0.182342        1.000000        0.00145086        0.00020690        0.00032827        0.00208429
     187         -0.182068        1.000000        0.02110720        0.00545625        0.00146214        0.01225804
     188         -0.181585        1.000000        0.00430627        0.00077434        0.00104604        0.00043739
     189         -0.179810        1.000000        0.00623452        0.00190779        0.00123086        0.00176766
     190         -0.176111        1.000000        0.00230334        0.00164922        0.00001984        0.00013439
     191         -0.174276        1.000000        0.00117628        0.00047651        0.00019593        0.00065226
     192         -0.173452        1.000000        0.02297967        0.00694519        0.00242726        0.00070900
     193         -0.172084        1.000000        0.08824392        0.01038102        0.00376611        0.00577995
     194         -0.171329        1.000000        0.00676658        0.00144219        0.00174993        0.00116797
     195         -0.168816        0.000000        0.11761266        0.00366423        0.00336640        0.00337778
     196         -0.167304        0.000000        0.05113224        0.00077424        0.00194780        0.00946717
     197         -0.164426        0.000000        0.09511165        0.00519268        0.00176926        0.00503968
     198         -0.158483        0.000000        0.08125843        0.00309806        0.00036033        0.00416928
     199         -0.155454        0.000000        0.01551445        0.01393028        0.00641524        0.00848611
     200         -0.155031        0.000000        0.05502890        0.00585342        0.00172191        0.00195114
     201         -0.129174        0.000000        0.00008436        0.00014958        0.00006824        0.00012553
     202         -0.074048        0.000000        0.00672825        0.15772088        0.09446480        0.47196714
     203         -0.073755        0.000000        0.00010991        0.05799674        0.00738213        0.66832182
     204         -0.071854        0.000000        0.00061167        0.05923398        0.09845295        0.62303562
     205         -0.062687        0.000000        0.00615239        0.21755422        0.13772168        0.36031270
     206         -0.055405        0.000000        0.01134353        0.16537270        0.10362478        0.44051437
     207         -0.052774        0.000000        0.00501452        0.07032368        0.03777808        0.58762099
     208         -0.049415        0.000000        0.00184160        0.38307054        0.04773057        0.27456343
     209         -0.045620        0.000000        0.00408758        0.13217254        0.14064007        0.42860430
     210         -0.040740        0.000000        0.00285658        0.55361495        0.07947226        0.05118479
     211         -0.040492        0.000000        0.00466510        0.11486693        0.55322832        0.01869133
     212         -0.038395        0.000000        0.00524743        0.09783694        0.28088898        0.30583425
     213         -0.034583        0.000000        0.00297491        0.11301493        0.45268038        0.11625256
     214         -0.033636        0.000000        0.00161137        0.22481511        0.42789532        0.02580666
     215         -0.030204        0.000000        0.00514673        0.25783257        0.36658163        0.06409998
     216         -0.026360        0.000000        0.00061581        0.28468719        0.15620789        0.23796154
     217         -0.023999        0.000000        0.00220194        0.05049015        0.59453893        0.01928402
     218         -0.022549        0.000000        0.00131443        0.39929351        0.19850795        0.08624835
     219         -0.018004        0.000000        0.00158883        0.37817826        0.13132540        0.16988443
     220         -0.017859        0.000000        0.00101924        0.39517164        0.08949908        0.19609824
     221         -0.017676        0.000000        0.00032176        0.20521780        0.09918766        0.37198325
     222         -0.014839        0.000000        0.00011702        0.04040677        0.59917093        0.04478750
     223         -0.013976        0.000000        0.00071155        0.52007263        0.13997872        0.01936576
     224         -0.011664        0.000000        0.00030520        0.57100745        0.02176575        0.07066770
     225         -0.005075        0.000000        0.00017978        0.04267828        0.61221832        0.01098277
     226          0.088308        0.000000        0.00000083        0.00003773        0.00008036        0.00001630
     227          0.098888        0.000000        0.00000177        0.00021344        0.00006107        0.00001346
     228          0.102781        0.000000        0.00000974        0.00015948        0.00003968        0.00005491
     229          0.103763        0.000000        0.00000448        0.00051462        0.00015734        0.00007673
     230          0.103953        0.000000        0.00000047        0.00007445        0.00003274        0.00001432
     231          0.109000        0.000000        0.00000657        0.00008513        0.00007093        0.00017497
     232          0.115317        0.000000        0.00000100        0.00005863        0.00009020        0.00001733
     233          0.283729        0.000000        0.00001518        0.00012059        0.00031203        0.00000317
     234          0.284820        0.000000        0.00000578        0.00009521        0.00004681        0.00000618
     235          0.286039        0.000000        0.00000638        0.00005488        0.00022982        0.00000897
     236          0.290041        0.000000        0.00000525        0.00003243        0.00001930        0.00000052
     237          0.293168        0.000000        0.00000089        0.00004248        0.00005111        0.00012509
     238          0.294704        0.000000        0.00001259        0.00033435        0.00005147        0.00002916
     239          0.295023        0.000000        0.00000693        0.00014925        0.00007241        0.00002177
     240          0.295167        0.000000        0.00000588        0.00006836        0.00015423        0.00006511
     241          0.296596        0.000000        0.00000548        0.00006951        0.00002838        0.00006186
     242          0.298059        0.000000        0.00003582        0.00020106        0.00007196        0.00007039
     243          0.300357        0.000000        0.00000374        0.00007607        0.00002792        0.00013715
     244          0.301918        0.000000        0.00000368        0.00002138        0.00003315        0.00003638
     245          0.307554        0.000000        0.00000178        0.00003526        0.00007174        0.00003623
     246          0.311192        0.000000        0.00000312        0.00003426        0.00003260        0.00002233
     247          0.316562        0.000000        0.00001937        0.00012637        0.00031131        0.00001434
     248          0.327639        0.000000        0.00000364        0.00008543        0.00001153        0.00001171
     249          0.336288        0.000000        0.00002400        0.00016405        0.00013343        0.00016845
     250          0.337493        0.000000        0.00002245        0.00008416        0.00012464        0.00005799
     251          0.337676        0.000000        0.00000512        0.00003661        0.00002442        0.00025667
     252          0.344756        0.000000        0.00000986        0.00008282        0.00007186        0.00004055
     253          0.349264        0.000000        0.00000435        0.00003328        0.00010374        0.00002477
     254          0.454596        0.000000        0.00000021        0.00000284        0.00000117        0.00000035
     255          0.459542        0.000000        0.00000058        0.00000591        0.00001196        0.00000090
     256          0.462974        0.000000        0.00000043        0.00000681        0.00001218        0.00000472
     257          0.464494        0.000000        0.00000471        0.00000585        0.00001051        0.00003336
     258          0.466161        0.000000        0.00000210        0.00000826        0.00000900        0.00001172
     259          0.467274        0.000000        0.00000051        0.00000845        0.00008809        0.00001778