# Projected DOS for atomic kind I at iteration step i = 0, E(Fermi) =    -0.172077 a.u.
#     MO Eigenvalue [a.u.]      Occupation                 s                py                pz                px
       1         -0.952918        1.000000        0.00011961        0.00043255        0.00015759        0.00007598
       2         -0.945306        1.000000        0.00015243        0.00021919        0.00041137        0.00010358
       3         -0.942427        1.000000        0.00018441        0.00050974        0.00028087        0.00021964
       4         -0.940424        1.000000        0.00012824        0.00036853        0.00007856        0.00025133
       5         -0.936657        1.000000        0.00018684        0.00033169        0.00032552        0.00019834
       6         -0.936357        1.000000        0.00017248        0.00047239        0.00026617        0.00002931
       7         -0.926083        1.000000        0.00015976        0.00039964        0.00014815        0.00026089
       8         -0.693813        1.000000        0.00075506        0.00025958        0.00013848        0.00004778
       9         -0.690003        1.000000        0.00219697        0.00060478        0.00054846        0.00021059
      10         -0.684866        1.000000        0.00163265        0.00036950        0.00036217        0.00007722
      11         -0.683701        1.000000        0.00216559        0.00023971        0.00028727        0.00033336
      12         -0.683459        1.000000        0.00166085        0.00056281        0.00015162        0.00033559
      13         -0.680384        1.000000        0.00241411        0.00054769        0.00045933        0.00031855
      14         -0.671849        1.000000        0.00164182        0.00031713        0.00025002        0.00019822
      15         -0.640367        1.000000        0.95253705        0.00117525        0.00684739        0.01710634
      16         -0.631081        1.000000        0.95071016        0.00144255        0.01579247        0.00763718
      17         -0.622812        1.000000        0.94024469        0.00642001        0.00255763        0.00938080
      18         -0.619688        1.000000        0.95971297        0.00660758        0.00185459        0.01683608
      19         -0.615428        1.000000        0.91782346        0.00913658        0.00290735        0.00164606
      20         -0.603536        1.000000        0.87347275        0.00330646        0.00742262        0.01463938
      21         -0.597807        1.000000        0.80421479        0.00449508        0.00553428        0.00624404
      22         -0.594685        1.000000        0.81292620        0.00830040        0.00552592        0.00405064
      23         -0.594373        1.000000        0.85536704        0.00500989        0.00470448        0.00879217
      24         -0.593210        1.000000        0.84843224        0.00526887        0.00487854        0.00759623
      25         -0.591257        1.000000        0.75755577        0.00415027        0.00585123        0.00568654
      26         -0.588248        1.000000        0.69406011        0.00690993        0.00273020        0.00588904
      27         -0.587614        1.000000        0.80177596        0.00712054        0.00763438        0.00770966
      28         -0.586131        1.000000        0.76532143        0.00419729        0.00344522        0.00377034
      29         -0.583927        1.000000        0.89464632        0.00417066        0.00426268        0.00963656
      30         -0.583168        1.000000        0.84093037        0.00203639        0.00790092        0.00794516
      31         -0.582586        1.000000        0.73136558        0.00360552        0.00342246        0.00389041
      32         -0.582336        1.000000        0.89548142        0.00088394        0.00341145        0.00847413
      33         -0.580369        1.000000        0.84607462        0.00298441        0.00482739        0.00402939
      34         -0.580076        1.000000        0.83860173        0.00269749        0.00414161        0.00380328
      35         -0.578440        1.000000        0.79101834        0.00680208        0.00183431        0.00095185
      36         -0.577987        1.000000        0.68871208        0.00290792        0.00265425        0.00279426
      37         -0.577675        1.000000        0.33301581        0.00207756        0.00213740        0.00197097
      38         -0.576143        1.000000        0.76821829        0.00199905        0.00227097        0.00207963
      39         -0.575209        1.000000        0.84466601        0.00138846        0.00456200        0.00189434
      40         -0.574827        1.000000        0.82346698        0.00174161        0.00279628        0.00142229
      41         -0.574316        1.000000        0.77634855        0.00169251        0.00328243        0.00378160
      42         -0.573214        1.000000        0.58025594        0.00316118        0.00339674        0.00195706
      43         -0.572806        1.000000        0.92074764        0.00189030        0.00189460        0.00041656
      44         -0.571373        1.000000        0.95991822        0.00235793        0.00052126        0.00245986
      45         -0.570790        1.000000        0.73771904        0.00667650        0.00574781        0.00242489
      46         -0.570480        1.000000        0.50144050        0.00582347        0.00221180        0.00175550
      47         -0.569812        1.000000        0.77392057        0.00459373        0.00430109        0.00138262
      48         -0.568011        1.000000        0.14183593        0.00262954        0.00066234        0.00061880
      49         -0.566927        1.000000        0.80715446        0.00095779        0.00077295        0.00410751
      50         -0.564172        1.000000        0.28212949        0.00110454        0.00188921        0.00098477
      51         -0.562723        1.000000        0.12028030        0.00061152        0.00054925        0.00086054
      52         -0.561038        1.000000        0.78720492        0.00244773        0.00140476        0.00052404
      53         -0.560386        1.000000        0.51581207        0.00456876        0.00127113        0.00197505
      54         -0.559965        1.000000        0.28722626        0.00511496        0.00085149        0.00089859
      55         -0.559374        1.000000        0.89443631        0.00234431        0.00119921        0.00563182
      56         -0.557587        1.000000        0.19297868        0.00128709        0.00104915        0.00055909
      57         -0.556621        1.000000        0.54968473        0.00106767        0.00135819        0.00081203
      58         -0.554431        1.000000        0.64197287        0.00504126        0.00097180        0.00089258
      59         -0.551156        1.000000        0.20424466        0.00638608        0.00240776        0.00162074
      60         -0.545922        1.000000        0.18347692        0.00137444        0.00164725        0.00106410
      61         -0.544889        1.000000        0.34184672        0.00162673        0.00211785        0.00168317
      62         -0.541933        1.000000        0.46196858        0.00072643        0.00137465        0.00045369
      63         -0.538446        1.000000        0.35110474        0.00101247        0.00097648        0.00105561
      64         -0.538039        1.000000        0.22521714        0.00234031        0.00094009        0.00218414
      65         -0.473953        1.000000        0.00260694        0.00193450        0.00112053        0.00026547
      66         -0.469955        1.000000        0.00502467        0.00358409        0.00327726        0.00143297
      67         -0.465112        1.000000        0.12111183        0.03321994        0.04236199        0.01888477
      68         -0.464752        1.000000        0.03369929        0.01046428        0.01332699        0.00523186
      69         -0.464189        1.000000        0.01482885        0.00680875        0.00430039        0.00544159
      70         -0.463813        1.000000        0.00327023        0.00141972        0.00258742        0.00167756
      71         -0.461699        1.000000        0.08303673        0.02419617        0.02195482        0.01757047
      72         -0.460867        1.000000        0.16394915        0.05292399        0.03881958        0.03122437
      73         -0.459448        1.000000        0.10948396        0.03034722        0.02270738        0.02041892
      74         -0.458486        1.000000        0.13148505        0.03329756        0.04254064        0.02813056
      75         -0.454241        1.000000        0.13476307        0.04124880        0.02891738        0.04303860
      76         -0.451607        1.000000        0.03077190        0.00873381        0.00738940        0.00752118
      77         -0.450242        1.000000        0.14828341        0.03666543        0.04327171        0.04287958
      78         -0.443153        1.000000        0.15023226        0.03619550        0.03902073        0.03596119
      79         -0.439584        1.000000        0.14537983        0.04368652        0.04293791        0.00870712
      80         -0.410742        1.000000        0.00173079        0.00392713        0.00041631        0.00073104
      81         -0.409901        1.000000        0.00079284        0.00064916        0.00220329        0.00072934
      82         -0.407698        1.000000        0.00191756        0.00358831        0.00524133        0.00131612
      83         -0.406292        1.000000        0.00265947        0.00628637        0.00384630        0.00257755
      84         -0.402421        1.000000        0.00193813        0.00164733        0.00403536        0.00096585
      85         -0.401821        1.000000        0.00057514        0.00274549        0.00140268        0.00128057
      86         -0.400759        1.000000        0.00133108        0.00476671        0.00201322        0.00132790
      87         -0.400112        1.000000        0.00134294        0.00189510        0.00071982        0.00306911
      88         -0.398917        1.000000        0.00366735        0.00760296        0.00111144        0.00141972
      89         -0.398313        1.000000        0.00208709        0.00193855        0.00283716        0.00314661
      90         -0.398197        1.000000        0.00190051        0.00182604        0.00365271        0.00147458
      91         -0.395468        1.000000        0.00231996        0.00571235        0.00204864        0.00108344
      92         -0.390100        1.000000        0.00076305        0.00132096        0.00112427        0.00082435
      93         -0.386859        1.000000        0.00165961        0.00380490        0.00054869        0.00231653
      94         -0.323843        1.000000        0.02827071        0.01364898        0.23844764        0.69329350
      95         -0.315921        1.000000        0.02623425        0.05090377        0.52008978        0.30518183
      96         -0.305522        1.000000        0.03186316        0.23381144        0.06548678        0.64685236
      97         -0.303267        1.000000        0.01587666        0.21683078        0.05242544        0.62106634
      98         -0.299335        1.000000        0.01550611        0.73860122        0.06332350        0.03850023
      99         -0.276640        1.000000        0.00904587        0.29921821        0.24574243        0.23010989
     100         -0.273909        1.000000        0.01278944        0.20891537        0.27225566        0.30149859
     101         -0.273376        1.000000        0.00762163        0.62427559        0.06943016        0.16183077
     102         -0.269729        1.000000        0.01617813        0.14413433        0.19384433        0.39931370
     103         -0.268748        1.000000        0.01686776        0.35601432        0.28640633        0.16120157
     104         -0.266654        1.000000        0.01783388        0.24403841        0.30296783        0.22086878
     105         -0.265242        1.000000        0.01071789        0.46998956        0.11502532        0.21995416
     106         -0.264939        1.000000        0.01813828        0.22417804        0.16826643        0.33951038
     107         -0.263329        1.000000        0.02015727        0.34822478        0.27982793        0.12830569
     108         -0.260755        1.000000        0.01330836        0.21680555        0.49544816        0.06878534
     109         -0.257656        1.000000        0.01675353        0.34749866        0.18026653        0.25258720
     110         -0.256438        1.000000        0.01966408        0.22613729        0.19669177        0.32340964
     111         -0.256062        1.000000        0.01914888        0.23203429        0.30335055        0.22934652
     112         -0.254499        1.000000        0.01725238        0.37696558        0.20195205        0.20883251
     113         -0.253895        1.000000        0.01262768        0.25270903        0.33989877        0.20859009
     114         -0.252564        1.000000        0.00579048        0.52263128        0.30364190        0.08391171
     115         -0.251026        1.000000        0.01445516        0.25784183        0.36306496        0.16783457
     116         -0.247308        1.000000        0.01293235        0.17079192        0.40935338        0.24001222
     117         -0.245709        1.000000        0.01145375        0.16987497        0.46513720        0.23880779
     118         -0.244702        1.000000        0.01144870        0.19165175        0.36585855        0.26805109
     119         -0.244475        1.000000        0.01232579        0.19924556        0.24873479        0.37641320
     120         -0.243351        1.000000        0.01515514        0.19383097        0.37286101        0.19626834
     121         -0.240288        1.000000        0.01444773        0.22292647        0.37197809        0.23146184
     122         -0.239086        1.000000        0.00487922        0.20653877        0.59045910        0.14668727
     123         -0.237191        1.000000        0.00768709        0.17935301        0.41516327        0.28963657
     124         -0.236270        1.000000        0.01000038        0.23218728        0.32614021        0.29229761
     125         -0.235699        1.000000        0.00972247        0.26783971        0.45698864        0.15531404
     126         -0.234113        1.000000        0.00696422        0.23530242        0.34784585        0.26593069
     127         -0.233479        1.000000        0.00868562        0.37896884        0.31063496        0.16056297
     128         -0.232405        1.000000        0.00953927        0.28258712        0.46847144        0.14250630
     129         -0.229411        1.000000        0.00992603        0.30320102        0.30118597        0.34396221
     130         -0.227763        1.000000        0.00568382        0.27317437        0.28948233        0.33853840
     131         -0.225413        1.000000        0.00474472        0.44695325        0.31039780        0.17745671
     132         -0.224052        1.000000        0.00283257        0.41151292        0.40058788        0.14325690
     133         -0.222361        1.000000        0.00243015        0.24627874        0.43124775        0.24065243
     134         -0.220691        1.000000        0.00612764        0.38276504        0.25735137        0.28363906
     135         -0.219020        1.000000        0.00494983        0.39226968        0.25307200        0.28806609
     136         -0.218327        1.000000        0.00786432        0.37090567        0.16264160        0.41147072
     137         -0.216233        1.000000        0.00547547        0.25658257        0.23061743        0.45019357
     138         -0.215483        1.000000        0.00334167        0.38959563        0.38452456        0.15897732
     139         -0.214606        1.000000        0.00240870        0.27888625        0.61211967        0.07956500
     140         -0.214369        1.000000        0.00185388        0.29871075        0.48046824        0.19597308
     141         -0.213409        1.000000        0.00533803        0.22882319        0.56760458        0.14158738
     142         -0.211776        1.000000        0.00238802        0.41551565        0.32184366        0.23525401
     143         -0.211151        1.000000        0.00272921        0.42255261        0.35557650        0.19627261
     144         -0.210146        1.000000        0.00320950        0.33349638        0.35300213        0.27950020
     145         -0.208580        1.000000        0.00281734        0.57203832        0.21417968        0.17512367
     146         -0.208428        1.000000        0.00199134        0.28952840        0.29047292        0.37536814
     147         -0.207772        1.000000        0.00144594        0.36682135        0.26613615        0.34336536
     148         -0.207417        1.000000        0.00153590        0.43775177        0.21053222        0.33027526
     149         -0.205794        1.000000        0.00212169        0.40706304        0.19840938        0.36719835
     150         -0.205456        1.000000        0.00272025        0.45254776        0.22963878        0.28635297
     151         -0.205045        1.000000        0.00321918        0.35696110        0.25737382        0.35602912
     152         -0.203876        1.000000        0.00286296        0.36157779        0.16859532        0.43648352
     153         -0.203271        1.000000        0.00317457        0.32414400        0.28425861        0.33378497
     154         -0.202406        1.000000        0.00400662        0.31207785        0.14347024        0.51855499
     155         -0.201918        1.000000        0.00353600        0.24962913        0.31259966        0.41195572
     156         -0.201169        1.000000        0.00263427        0.35464853        0.33792659        0.26175680
     157         -0.200653        1.000000        0.00252671        0.25077487        0.24142703        0.48479064
     158         -0.199566        1.000000        0.00251696        0.25786822        0.30268822        0.40334804
     159         -0.198541        1.000000        0.00138750        0.32723124        0.30585392        0.34054646
     160         -0.197965        1.000000        0.00336944        0.22980945        0.25054132        0.49745652
     161         -0.197009        1.000000        0.00101567        0.43167573        0.35277581        0.19733554
     162         -0.196589        1.000000        0.00101990        0.38131465        0.20102272        0.39438368
     163         -0.196293        1.000000        0.00195783        0.38964950        0.31669697        0.26953751
     164         -0.195928        1.000000        0.00156062        0.31016311        0.27170993        0.39069837
     165         -0.195080        1.000000        0.00173390        0.30253678        0.24283910        0.43827658
     166         -0.194735        1.000000        0.00131008        0.43786129        0.27885609        0.26000490
     167         -0.193768        1.000000        0.00289652        0.42340695        0.39760384        0.14869210
     168         -0.193492        1.000000        0.00175615        0.51009332        0.23904330        0.22734538
     169         -0.193362        1.000000        0.00100180        0.19724711        0.30538023        0.48772532
     170         -0.192850        1.000000        0.00081956        0.41289472        0.19665315        0.37201539
     171         -0.191806        1.000000        0.00251020        0.41537839        0.41232741        0.14448400
     172         -0.191160        1.000000        0.00095061        0.21534938        0.43461333        0.33361078
     173         -0.190214        1.000000        0.00194273        0.35151164        0.28454821        0.33996756
     174         -0.190079        1.000000        0.00330636        0.44863255        0.18357946        0.33578251
     175         -0.189442        1.000000        0.00158318        0.35068416        0.36167359        0.26916590
     176         -0.188828        1.000000        0.00150954        0.34055207        0.29911962        0.33837630
     177         -0.188175        1.000000        0.00085086        0.24878841        0.55187576        0.18846186
     178         -0.187748        1.000000        0.00109489        0.22890625        0.13957838        0.61394796
     179         -0.187689        1.000000        0.00088671        0.23289821        0.32377469        0.43418947
     180         -0.187342        1.000000        0.00032788        0.25556769        0.47730178        0.26049035
     181         -0.186848        1.000000        0.00081903        0.45452242        0.39937971        0.12629111
     182         -0.186470        1.000000        0.00069058        0.26074868        0.18671278        0.53737887
     183         -0.186117        1.000000        0.00031569        0.53269815        0.19148054        0.26972267
     184         -0.184686        1.000000        0.00100370        0.21500639        0.60020910        0.17392591
     185         -0.184078        1.000000        0.00117365        0.32134120        0.18440387        0.47329095
     186         -0.183198        1.000000        0.00219819        0.24498463        0.45750310        0.26634526
     187         -0.182472        1.000000        0.00126189        0.28999717        0.34802067        0.34011846
     188         -0.182396        1.000000        0.00049813        0.19778087        0.29592982        0.50045067
     189         -0.181912        1.000000        0.00190431        0.30994958        0.31698959        0.34494781
     190         -0.178394        1.000000        0.00036720        0.28071749        0.57047528        0.14421655
     191         -0.176336        1.000000        0.00115500        0.10712089        0.55462990        0.27923365
     192         -0.174275        1.000000        0.00021886        0.24533671        0.12554739        0.62574022
     193         -0.174208        1.000000        0.00019758        0.12737697        0.10326899        0.76518056
     194         -0.172599        1.000000        0.00087145        0.14234728        0.37385631        0.38894353
     195         -0.172077        1.000000        0.00122916        0.17535300        0.46382700        0.25174739
     196         -0.168826        0.000000        0.00122156        0.28346086        0.26455455        0.32232518
     197         -0.167272        0.000000        0.00984018        0.09845963        0.58726845        0.24086031
     198         -0.160679        0.000000        0.00400850        0.60668435        0.20190108        0.09009547
     199         -0.155514        0.000000        0.01132455        0.06150939        0.20884073        0.67706348
     200         -0.155092        0.000000        0.00482191        0.21010693        0.08626597        0.63258904
     201         -0.129184        0.000000        0.00792075        0.26562210        0.00403398        0.72188980
     202         -0.074147        0.000000        0.01413620        0.06308813        0.11159303        0.07139920
     203         -0.073773        0.000000        0.01224241        0.09916296        0.05870898        0.09471784
     204         -0.072841        0.000000        0.02468452        0.05796919        0.05805644        0.08411764
     205         -0.062706        0.000000        0.02545167        0.10036973        0.07299633        0.07691124
     206         -0.055850        0.000000        0.01545206        0.10656093        0.06632522        0.08843672
     207         -0.052998        0.000000        0.02039346        0.05342444        0.10737792        0.11742555
     208         -0.049522        0.000000        0.01782102        0.14628609        0.02725801        0.09972156
     209         -0.046686        0.000000        0.01277719        0.09718119        0.04619215        0.13676619
     210         -0.040753        0.000000        0.01946265        0.20426846        0.03221041        0.05632141
     211         -0.040501        0.000000        0.02264917        0.04228296        0.17452002        0.06848171
     212         -0.038560        0.000000        0.02068289        0.05428906        0.14576146        0.08799979
     213         -0.034739        0.000000        0.02090197        0.04005941        0.18326811        0.06923138
     214         -0.033647        0.000000        0.02239964        0.03816097        0.19569902        0.06285381
     215         -0.030607        0.000000        0.01760347        0.10733535        0.14371469        0.03660104
     216         -0.026412        0.000000        0.02461692        0.12835401        0.05348031        0.11275388
     217         -0.024009        0.000000        0.02660489        0.03139508        0.24893954        0.02594542
     218         -0.022598        0.000000        0.01846600        0.14366809        0.05011362        0.10033116
     219         -0.020635        0.000000        0.01980851        0.19579459        0.03180541        0.05822564
     220         -0.017987        0.000000        0.02267918        0.12394335        0.02861548        0.14593448
     221         -0.017747        0.000000        0.02354799        0.10827916        0.03640707        0.15436319
     222         -0.014872        0.000000        0.02364616        0.03630663        0.21422429        0.04039721
     223         -0.014478        0.000000        0.02157606        0.16328383        0.09388480        0.03807065
     224         -0.011896        0.000000        0.02659643        0.21258419        0.02467909        0.06966455
     225         -0.008742        0.000000        0.02693511        0.03920847        0.22960416        0.01444980
     226          0.088305        0.000000        0.00002608        0.00070151        0.00043553        0.00002807
     227          0.098884        0.000000        0.00007946        0.00037593        0.00176201        0.00075708
     228          0.102781        0.000000        0.00011781        0.00050607        0.00113845        0.00048901
     229          0.103763        0.000000        0.00006880        0.00126997        0.00024428        0.00111171
     230          0.103953        0.000000        0.00005673        0.00120928        0.00092014        0.00022166
     231          0.108999        0.000000        0.00013455        0.00112364        0.00133206        0.00096871
     232          0.115317        0.000000        0.00004840        0.00096383        0.00076786        0.00063149
     233          0.283665        0.000000        0.00079568        0.01161993        0.00143313        0.00196223
     234          0.284817        0.000000        0.00010197        0.00084682        0.00258814        0.00028785
     235          0.286037        0.000000        0.00210970        0.00018188        0.00334664        0.00890024
     236          0.290040        0.000000        0.00022230        0.00277748        0.00050423        0.00101003
     237          0.293168        0.000000        0.00005896        0.00027275        0.00022643        0.00135425
     238          0.294703        0.000000        0.00053218        0.01069487        0.00601527        0.00293663
     239          0.295023        0.000000        0.00075804        0.00537217        0.00854477        0.00259285
     240          0.295166        0.000000        0.00071829        0.01247975        0.00195010        0.00387727
     241          0.296596        0.000000        0.00042588        0.00542208        0.00242622        0.00012727
     242          0.298058        0.000000        0.00012561        0.00179232        0.00249928        0.00182082
     243          0.300357        0.000000        0.00082200        0.01025244        0.00541031        0.00025778
     244          0.301917        0.000000        0.00015640        0.00051711        0.00215389        0.00080203
     245          0.307552        0.000000        0.00068647        0.00662838        0.00048295        0.00691750
     246          0.311189        0.000000        0.00048504        0.00800686        0.00083080        0.00141706
     247          0.316485        0.000000        0.00084963        0.01163723        0.00282226        0.00255308
     248          0.327639        0.000000        0.00079051        0.00445063        0.00759200        0.00247380
     249          0.336288        0.000000        0.00101459        0.00811470        0.00162964        0.00513789
     250          0.337491        0.000000        0.00145278        0.00310347        0.00473200        0.00732008
     251          0.337676        0.000000        0.00098004        0.01145921        0.00631374        0.00119454
     252          0.344754        0.000000        0.00034224        0.01797783        0.00394982        0.00250153
     253          0.349259        0.000000        0.00086316        0.00960889        0.00091562        0.00670187
     254          0.454596        0.000000        0.00001005        0.00007622        0.00024876        0.00007345
     255          0.459539        0.000000        0.00004238        0.00050416        0.00018581        0.00026973
     256          0.462974        0.000000        0.00004431        0.00022615        0.00017998        0.00020937
     257          0.464494        0.000000        0.00006305        0.00079510        0.00063942        0.00008906
     258          0.466160        0.000000        0.00005791        0.00051701        0.00049958        0.00028451
     259          0.467274        0.000000        0.00003789        0.00037495        0.00029674        0.00016215