# Projected DOS for atomic kind H at iteration step i = 0, E(Fermi) =    -0.171329 a.u.
#     MO Eigenvalue [a.u.]      Occupation                 s
       1         -0.952921        1.000000        0.28164876
       2         -0.945307        1.000000        0.28346045
       3         -0.942426        1.000000        0.28037363
       4         -0.940424        1.000000        0.28246484
       5         -0.936657        1.000000        0.27978738
       6         -0.936357        1.000000        0.28130533
       7         -0.926084        1.000000        0.28053878
       8         -0.693810        1.000000        0.34285675
       9         -0.690003        1.000000        0.34834184
      10         -0.684866        1.000000        0.34845464
      11         -0.683700        1.000000        0.34081622
      12         -0.683458        1.000000        0.34387086
      13         -0.680384        1.000000        0.34522090
      14         -0.671848        1.000000        0.34655253
      15         -0.640367        1.000000        0.00807846
      16         -0.631104        1.000000        0.00157410
      17         -0.622824        1.000000        0.00079173
      18         -0.619654        1.000000        0.00266347
      19         -0.614885        1.000000        0.00705539
      20         -0.603481        1.000000        0.01525275
      21         -0.597755        1.000000        0.01969577
      22         -0.594224        1.000000        0.00906758
      23         -0.594030        1.000000        0.00994568
      24         -0.592277        1.000000        0.01893494
      25         -0.591212        1.000000        0.06906040
      26         -0.587664        1.000000        0.01602654
      27         -0.586485        1.000000        0.07540324
      28         -0.585400        1.000000        0.10152507
      29         -0.583846        1.000000        0.01517877
      30         -0.582996        1.000000        0.06119597
      31         -0.582420        1.000000        0.06705858
      32         -0.582207        1.000000        0.05029138
      33         -0.580324        1.000000        0.03108603
      34         -0.580057        1.000000        0.03807231
      35         -0.577897        1.000000        0.06764629
      36         -0.577823        1.000000        0.24368926
      37         -0.576942        1.000000        0.06641720
      38         -0.575891        1.000000        0.07363243
      39         -0.574955        1.000000        0.03461974
      40         -0.574743        1.000000        0.04493303
      41         -0.574171        1.000000        0.06739461
      42         -0.573190        1.000000        0.14412516
      43         -0.572513        1.000000        0.00861683
      44         -0.571375        1.000000        0.00198308
      45         -0.570494        1.000000        0.17973535
      46         -0.569631        1.000000        0.07922560
      47         -0.568008        1.000000        0.27986404
      48         -0.567088        1.000000        0.04913690
      49         -0.565592        1.000000        0.02147556
      50         -0.564140        1.000000        0.22883449
      51         -0.562719        1.000000        0.28618218
      52         -0.560392        1.000000        0.18333250
      53         -0.559963        1.000000        0.23679452
      54         -0.559468        1.000000        0.01918134
      55         -0.557586        1.000000        0.25693113
      56         -0.554223        1.000000        0.08106894
      57         -0.553685        1.000000        0.05311047
      58         -0.552342        1.000000        0.06535139
      59         -0.551138        1.000000        0.23646912
      60         -0.545807        1.000000        0.25548515
      61         -0.544886        1.000000        0.18973109
      62         -0.541934        1.000000        0.15061865
      63         -0.538424        1.000000        0.18369077
      64         -0.537832        1.000000        0.22960477
      65         -0.473928        1.000000        0.17609994
      66         -0.469954        1.000000        0.17313733
      67         -0.465117        1.000000        0.03663436
      68         -0.464752        1.000000        0.14047675
      69         -0.464187        1.000000        0.16273718
      70         -0.463806        1.000000        0.17696521
      71         -0.461691        1.000000        0.09900020
      72         -0.460663        1.000000        0.02317753
      73         -0.459418        1.000000        0.07112749
      74         -0.458458        1.000000        0.00473090
      75         -0.454140        1.000000        0.03004116
      76         -0.451578        1.000000        0.14735738
      77         -0.447662        1.000000        0.00092182
      78         -0.443151        1.000000        0.00420867
      79         -0.438487        1.000000        0.00163585
      80         -0.410725        1.000000        0.42172552
      81         -0.409899        1.000000        0.42056434
      82         -0.407698        1.000000        0.42237146
      83         -0.406288        1.000000        0.42135775
      84         -0.402421        1.000000        0.42375473
      85         -0.401817        1.000000        0.42213212
      86         -0.400759        1.000000        0.42096556
      87         -0.400111        1.000000        0.42186771
      88         -0.398917        1.000000        0.41957023
      89         -0.398310        1.000000        0.41775371
      90         -0.398196        1.000000        0.42093538
      91         -0.395468        1.000000        0.41973099
      92         -0.390099        1.000000        0.42458885
      93         -0.386842        1.000000        0.42034047
      94         -0.323849        1.000000        0.00065323
      95         -0.315952        1.000000        0.00011971
      96         -0.305510        1.000000        0.00041016
      97         -0.303277        1.000000        0.00012492
      98         -0.298799        1.000000        0.00018970
      99         -0.276492        1.000000        0.00046293
     100         -0.273732        1.000000        0.00097654
     101         -0.273066        1.000000        0.00133941
     102         -0.269511        1.000000        0.00041774
     103         -0.268426        1.000000        0.00046866
     104         -0.265560        1.000000        0.00058567
     105         -0.264931        1.000000        0.00055391
     106         -0.264692        1.000000        0.00049145
     107         -0.262923        1.000000        0.00047619
     108         -0.257322        1.000000        0.00036953
     109         -0.256894        1.000000        0.00044510
     110         -0.256130        1.000000        0.00049226
     111         -0.255739        1.000000        0.00050625
     112         -0.254158        1.000000        0.00066425
     113         -0.252575        1.000000        0.00084914
     114         -0.251752        1.000000        0.00078420
     115         -0.250358        1.000000        0.00042096
     116         -0.247144        1.000000        0.00045116
     117         -0.245542        1.000000        0.00062933
     118         -0.244403        1.000000        0.00049997
     119         -0.243421        1.000000        0.00063478
     120         -0.242997        1.000000        0.00036246
     121         -0.239911        1.000000        0.00052706
     122         -0.238443        1.000000        0.00032742
     123         -0.236608        1.000000        0.00082689
     124         -0.236013        1.000000        0.00057982
     125         -0.235208        1.000000        0.00063125
     126         -0.233913        1.000000        0.00124872
     127         -0.232358        1.000000        0.00088644
     128         -0.231975        1.000000        0.00050026
     129         -0.229303        1.000000        0.00121067
     130         -0.227524        1.000000        0.00072473
     131         -0.224407        1.000000        0.00268479
     132         -0.223099        1.000000        0.00075931
     133         -0.221927        1.000000        0.00135927
     134         -0.219921        1.000000        0.00052282
     135         -0.218616        1.000000        0.00102733
     136         -0.217955        1.000000        0.00069616
     137         -0.215980        1.000000        0.00075540
     138         -0.215282        1.000000        0.00248249
     139         -0.214268        1.000000        0.00103410
     140         -0.213955        1.000000        0.00173733
     141         -0.212335        1.000000        0.00178084
     142         -0.211675        1.000000        0.00193541
     143         -0.210759        1.000000        0.00103825
     144         -0.209500        1.000000        0.00072911
     145         -0.207903        1.000000        0.00131835
     146         -0.207805        1.000000        0.00054683
     147         -0.207349        1.000000        0.00093833
     148         -0.206403        1.000000        0.00246586
     149         -0.205587        1.000000        0.00127031
     150         -0.205023        1.000000        0.00155478
     151         -0.204515        1.000000        0.00064267
     152         -0.203628        1.000000        0.00081473
     153         -0.202296        1.000000        0.00128700
     154         -0.201945        1.000000        0.00116732
     155         -0.201719        1.000000        0.00129687
     156         -0.201037        1.000000        0.00051107
     157         -0.200342        1.000000        0.00067390
     158         -0.199338        1.000000        0.00058417
     159         -0.198120        1.000000        0.00113019
     160         -0.197881        1.000000        0.00171749
     161         -0.196969        1.000000        0.00080665
     162         -0.196420        1.000000        0.00091504
     163         -0.195978        1.000000        0.00134324
     164         -0.195766        1.000000        0.00127611
     165         -0.194940        1.000000        0.00202285
     166         -0.194230        1.000000        0.00050538
     167         -0.193669        1.000000        0.00120484
     168         -0.193260        1.000000        0.00092953
     169         -0.193007        1.000000        0.00037234
     170         -0.192643        1.000000        0.00045270
     171         -0.191575        1.000000        0.00249911
     172         -0.190365        1.000000        0.00110908
     173         -0.189998        1.000000        0.00358443
     174         -0.189711        1.000000        0.00050769
     175         -0.188943        1.000000        0.00145137
     176         -0.188649        1.000000        0.00069197
     177         -0.188060        1.000000        0.00033049
     178         -0.187647        1.000000        0.00029839
     179         -0.187376        1.000000        0.00013129
     180         -0.187074        1.000000        0.00045034
     181         -0.186116        1.000000        0.00017226
     182         -0.185475        1.000000        0.00038630
     183         -0.184652        1.000000        0.00135341
     184         -0.183392        1.000000        0.00063743
     185         -0.183104        1.000000        0.00041321
     186         -0.182342        1.000000        0.00041980
     187         -0.182068        1.000000        0.00028540
     188         -0.181585        1.000000        0.00049594
     189         -0.179810        1.000000        0.00012831
     190         -0.176111        1.000000        0.00031222
     191         -0.174276        1.000000        0.00014285
     192         -0.173452        1.000000        0.00013349
     193         -0.172084        1.000000        0.00026763
     194         -0.171329        1.000000        0.00002835
     195         -0.168816        0.000000        0.00015487
     196         -0.167304        0.000000        0.00003376
     197         -0.164426        0.000000        0.00013689
     198         -0.158483        0.000000        0.00012085
     199         -0.155454        0.000000        0.00017810
     200         -0.155031        0.000000        0.00008239
     201         -0.129174        0.000000        0.00002651
     202         -0.074048        0.000000        0.00052440
     203         -0.073755        0.000000        0.00006887
     204         -0.071854        0.000000        0.00029381
     205         -0.062687        0.000000        0.00084535
     206         -0.055405        0.000000        0.00027409
     207         -0.052774        0.000000        0.00017754
     208         -0.049415        0.000000        0.00022223
     209         -0.045620        0.000000        0.00017261
     210         -0.040740        0.000000        0.00020851
     211         -0.040492        0.000000        0.00021717
     212         -0.038395        0.000000        0.00045437
     213         -0.034583        0.000000        0.00017299
     214         -0.033636        0.000000        0.00024105
     215         -0.030204        0.000000        0.00045919
     216         -0.026360        0.000000        0.00036897
     217         -0.023999        0.000000        0.00010528
     218         -0.022549        0.000000        0.00079582
     219         -0.018004        0.000000        0.00011325
     220         -0.017859        0.000000        0.00015138
     221         -0.017676        0.000000        0.00017474
     222         -0.014839        0.000000        0.00060790
     223         -0.013976        0.000000        0.00033090
     224         -0.011664        0.000000        0.00023824
     225         -0.005075        0.000000        0.00099835
     226          0.088308        0.000000        0.00337537
     227          0.098888        0.000000        0.00283960
     228          0.102781        0.000000        0.00465492
     229          0.103763        0.000000        0.00423152
     230          0.103953        0.000000        0.00389461
     231          0.109000        0.000000        0.00366259
     232          0.115317        0.000000        0.00335070
     233          0.283729        0.000000        0.66130964
     234          0.284820        0.000000        0.65850599
     235          0.286039        0.000000        0.66705072
     236          0.290041        0.000000        0.66005519
     237          0.293168        0.000000        0.65941266
     238          0.294704        0.000000        0.66298116
     239          0.295023        0.000000        0.66155114
     240          0.295167        0.000000        0.66402269
     241          0.296596        0.000000        0.65848251
     242          0.298059        0.000000        0.66131994
     243          0.300357        0.000000        0.66120006
     244          0.301918        0.000000        0.65710074
     245          0.307554        0.000000        0.66238994
     246          0.311192        0.000000        0.66182844
     247          0.316562        0.000000        0.63482209
     248          0.327639        0.000000        0.63347885
     249          0.336288        0.000000        0.63165779
     250          0.337493        0.000000        0.63144336
     251          0.337676        0.000000        0.63174076
     252          0.344756        0.000000        0.63233084
     253          0.349264        0.000000        0.63129504
     254          0.454596        0.000000        0.58397239
     255          0.459542        0.000000        0.58418734
     256          0.462974        0.000000        0.58143484
     257          0.464494        0.000000        0.57926839
     258          0.466161        0.000000        0.58132870
     259          0.467274        0.000000        0.58173432
     260          0.468492        0.000000        0.58432096
     261          0.470005        0.000000        0.58293162
     262          0.470874        0.000000        0.58511047
     263          0.472369        0.000000        0.58248753
     264          0.473060        0.000000        0.58226293
     265          0.473369        0.000000        0.58366817
     266          0.477106        0.000000        0.58387640
     267          0.479769        0.000000        0.58049205
     268          0.550721        0.000000        0.55418887
     269          0.560088        0.000000        0.55227774
     270          0.563958        0.000000        0.55257739
     271          0.566368        0.000000        0.55376641
     272          0.568050        0.000000        0.55280563
     273          0.571885        0.000000        0.55238844
     274          0.575463        0.000000        0.55317208
