# Projected DOS for atomic kind N at iteration step i = 0, E(Fermi) =    -0.172077 a.u.
#     MO Eigenvalue [a.u.]      Occupation                 s                py                pz                px
       1         -0.952918        1.000000        0.61487040        0.00024072        0.00001485        0.00009703
       2         -0.945306        1.000000        0.61476024        0.00004659        0.00001429        0.00023584
       3         -0.942427        1.000000        0.61147431        0.00014766        0.00000092        0.00004794
       4         -0.940424        1.000000        0.61384832        0.00016796        0.00035802        0.00001422
       5         -0.936657        1.000000        0.61274590        0.00005596        0.00011325        0.00005395
       6         -0.936357        1.000000        0.61321200        0.00000028        0.00003036        0.00037173
       7         -0.926083        1.000000        0.61321566        0.00002461        0.00015370        0.00001552
       8         -0.693813        1.000000        0.01613958        0.00272884        0.00067279        0.19247933
       9         -0.690003        1.000000        0.01758703        0.00182034        0.00077709        0.18813308
      10         -0.684866        1.000000        0.01733112        0.00100554        0.00434497        0.18427462
      11         -0.683701        1.000000        0.01506282        0.00335606        0.03681828        0.15839891
      12         -0.683459        1.000000        0.01524371        0.00042819        0.06127290        0.13524488
      13         -0.680384        1.000000        0.01620033        0.00083012        0.08158092        0.11183349
      14         -0.671849        1.000000        0.01697231        0.01211266        0.05787867        0.12123519
      15         -0.640367        1.000000        0.00052122        0.00707743        0.00035655        0.00015041
      16         -0.631081        1.000000        0.00007255        0.00187658        0.00020817        0.00002237
      17         -0.622812        1.000000        0.00001782        0.00011144        0.00098807        0.00001704
      18         -0.619688        1.000000        0.00002926        0.00004768        0.00379971        0.00010352
      19         -0.615428        1.000000        0.00017236        0.00015452        0.00874950        0.00018602
      20         -0.603536        1.000000        0.00010973        0.00686842        0.01400307        0.00143594
      21         -0.597807        1.000000        0.00028567        0.00845313        0.01450555        0.00523507
      22         -0.594685        1.000000        0.00010270        0.01807511        0.00744381        0.00059486
      23         -0.594373        1.000000        0.00032254        0.00300505        0.00581496        0.00031179
      24         -0.593210        1.000000        0.00002488        0.01214583        0.00536566        0.00191730
      25         -0.591257        1.000000        0.00017520        0.00863757        0.07435624        0.02201078
      26         -0.588248        1.000000        0.00019846        0.12382727        0.02019444        0.00090769
      27         -0.587614        1.000000        0.00023219        0.05271895        0.00588381        0.00065270
      28         -0.586131        1.000000        0.00024925        0.06858657        0.01843469        0.00262564
      29         -0.583927        1.000000        0.00016879        0.00433988        0.00888877        0.00275037
      30         -0.583168        1.000000        0.00005843        0.02171099        0.05050229        0.00205116
      31         -0.582586        1.000000        0.00045928        0.07878956        0.03562415        0.00459381
      32         -0.582336        1.000000        0.00012495        0.03311281        0.00880141        0.00010461
      33         -0.580369        1.000000        0.00010588        0.02098603        0.02357649        0.00497634
      34         -0.580076        1.000000        0.00011857        0.03035898        0.02250083        0.00385513
      35         -0.578440        1.000000        0.00002332        0.05270080        0.04855280        0.00133650
      36         -0.577987        1.000000        0.00018718        0.02915785        0.10511747        0.01049556
      37         -0.577675        1.000000        0.00004410        0.00966237        0.37972410        0.00334058
      38         -0.576143        1.000000        0.00017553        0.08589456        0.01934026        0.00235839
      39         -0.575209        1.000000        0.00007631        0.02820465        0.01697039        0.00394581
      40         -0.574827        1.000000        0.00006714        0.01504089        0.05034948        0.01198699
      41         -0.574316        1.000000        0.00010881        0.03989398        0.05005148        0.01151026
      42         -0.573214        1.000000        0.00025071        0.03873949        0.14951499        0.03716114
      43         -0.572806        1.000000        0.00002313        0.00700611        0.00528377        0.00338938
      44         -0.571373        1.000000        0.00000268        0.00197708        0.00078072        0.00040627
      45         -0.570790        1.000000        0.00021841        0.04703413        0.03370947        0.00613058
      46         -0.570480        1.000000        0.00005935        0.13048483        0.09934429        0.04165555
      47         -0.569812        1.000000        0.00017536        0.05917571        0.02477109        0.00054075
      48         -0.568011        1.000000        0.00024325        0.45616539        0.06266885        0.00039701
      49         -0.566927        1.000000        0.00026525        0.00604630        0.06190687        0.01095482
      50         -0.564172        1.000000        0.00008957        0.03167371        0.38962612        0.00437039
      51         -0.562723        1.000000        0.00029886        0.08408939        0.31609681        0.12924992
      52         -0.561038        1.000000        0.00018327        0.04795705        0.03454691        0.01964503
      53         -0.560386        1.000000        0.00035339        0.16156445        0.09012504        0.02416159
      54         -0.559965        1.000000        0.00045704        0.28099977        0.11131639        0.02556132
      55         -0.559374        1.000000        0.00012727        0.01340086        0.03175627        0.01030564
      56         -0.557587        1.000000        0.00117029        0.11045933        0.21471281        0.15715850
      57         -0.556621        1.000000        0.00118666        0.24795293        0.02243278        0.00097587
      58         -0.554431        1.000000        0.00009979        0.02647666        0.12591211        0.03340260
      59         -0.551156        1.000000        0.00091683        0.27939509        0.17535698        0.00550165
      60         -0.545922        1.000000        0.00050292        0.00415617        0.34270153        0.14236164
      61         -0.544889        1.000000        0.00084382        0.32383876        0.03667831        0.02779638
      62         -0.541933        1.000000        0.00119612        0.29013584        0.01784494        0.01427665
      63         -0.538446        1.000000        0.00053755        0.29681679        0.09303437        0.00681023
      64         -0.538039        1.000000        0.00018058        0.41950933        0.00104669        0.04259863
      65         -0.473953        1.000000        0.00854976        0.00111508        0.00184072        0.43707531
      66         -0.469955        1.000000        0.00866002        0.00230473        0.00281857        0.42526306
      67         -0.465112        1.000000        0.00177529        0.00064197        0.00150975        0.09066883
      68         -0.464752        1.000000        0.00694096        0.00232490        0.00496851        0.33650643
      69         -0.464189        1.000000        0.00882459        0.00125507        0.11806835        0.27734629
      70         -0.463813        1.000000        0.00922080        0.01060689        0.09483749        0.32658274
      71         -0.461699        1.000000        0.00520086        0.00343269        0.09715919        0.13245744
      72         -0.460867        1.000000        0.00108421        0.00035991        0.02397061        0.02974796
      73         -0.459448        1.000000        0.00334615        0.00036805        0.08816408        0.09828803
      74         -0.458486        1.000000        0.00009369        0.00077454        0.00370368        0.00606625
      75         -0.454241        1.000000        0.00161271        0.00756065        0.02082368        0.03878944
      76         -0.451607        1.000000        0.00701171        0.02553181        0.10570833        0.23893935
      77         -0.450242        1.000000        0.00003535        0.00049271        0.00058255        0.00371268
      78         -0.443153        1.000000        0.00001685        0.00139346        0.00381168        0.00762158
      79         -0.439584        1.000000        0.00000647        0.00119212        0.00039771        0.00173129
      80         -0.410742        1.000000        0.00000618        0.03823241        0.00001600        0.00076112
      81         -0.409901        1.000000        0.00000591        0.00024444        0.03371386        0.00025724
      82         -0.407698        1.000000        0.00000749        0.00033094        0.03852924        0.00046042
      83         -0.406292        1.000000        0.00000643        0.04390420        0.00044023        0.00045770
      84         -0.402421        1.000000        0.00001017        0.00378594        0.03863564        0.00088604
      85         -0.401821        1.000000        0.00000050        0.03291060        0.00104329        0.00007787
      86         -0.400759        1.000000        0.00001588        0.03326743        0.00480211        0.00245058
      87         -0.400112        1.000000        0.00001009        0.00579308        0.02185133        0.00893404
      88         -0.398917        1.000000        0.00001735        0.03934350        0.00041164        0.00036515
      89         -0.398313        1.000000        0.00000377        0.00092662        0.02592766        0.00755304
      90         -0.398197        1.000000        0.00001136        0.00203348        0.02146234        0.01270153
      91         -0.395468        1.000000        0.00001126        0.03698850        0.00055052        0.00192135
      92         -0.390100        1.000000        0.00000193        0.00963135        0.02336984        0.00579655
      93         -0.386859        1.000000        0.00000691        0.02695402        0.00292668        0.00949553
      94         -0.323843        1.000000        0.00026085        0.00149430        0.00026912        0.00036954
      95         -0.315921        1.000000        0.00005312        0.00007713        0.00005780        0.00001334
      96         -0.305522        1.000000        0.00003209        0.00003161        0.00009644        0.00001301
      97         -0.303267        1.000000        0.00006135        0.00008573        0.00017266        0.00002515
      98         -0.299335        1.000000        0.00010991        0.00001734        0.00051370        0.00010594
      99         -0.276640        1.000000        0.00042805        0.00147064        0.00022908        0.00040722
     100         -0.273909        1.000000        0.00050248        0.00095857        0.00120545        0.00046581
     101         -0.273376        1.000000        0.00197682        0.00443487        0.00025211        0.00182221
     102         -0.269729        1.000000        0.00025598        0.00031476        0.00024561        0.00012292
     103         -0.268748        1.000000        0.00051827        0.00023670        0.00025601        0.00021732
     104         -0.266654        1.000000        0.00020456        0.00062626        0.00021274        0.00018962
     105         -0.265242        1.000000        0.00028313        0.00077808        0.00078460        0.00009524
     106         -0.264939        1.000000        0.00030043        0.00134627        0.00038255        0.00038043
     107         -0.263329        1.000000        0.00016511        0.00013820        0.00043510        0.00022351
     108         -0.260755        1.000000        0.00050406        0.00139611        0.00064156        0.00047799
     109         -0.257656        1.000000        0.00022745        0.00108513        0.00049272        0.00057743
     110         -0.256438        1.000000        0.00024460        0.00013325        0.00031131        0.00017109
     111         -0.256062        1.000000        0.00021692        0.00017034        0.00051736        0.00014871
     112         -0.254499        1.000000        0.00032749        0.00121848        0.00014439        0.00044648
     113         -0.253895        1.000000        0.00021464        0.00082059        0.00006257        0.00020459
     114         -0.252564        1.000000        0.00087350        0.00021152        0.00037273        0.00045377
     115         -0.251026        1.000000        0.00036548        0.00062410        0.00048577        0.00037096
     116         -0.247308        1.000000        0.00015767        0.00041696        0.00048051        0.00019565
     117         -0.245709        1.000000        0.00046188        0.00038316        0.00037969        0.00030911
     118         -0.244702        1.000000        0.00026262        0.00049387        0.00047596        0.00033906
     119         -0.244475        1.000000        0.00012955        0.00080450        0.00017620        0.00011185
     120         -0.243351        1.000000        0.00028029        0.00066750        0.00031484        0.00023547
     121         -0.240288        1.000000        0.00025284        0.00063592        0.00031708        0.00018664
     122         -0.239086        1.000000        0.00027554        0.00084230        0.00197770        0.00025190
     123         -0.237191        1.000000        0.00054870        0.00027444        0.00135843        0.00031058
     124         -0.236270        1.000000        0.00039740        0.00055484        0.00081241        0.00009130
     125         -0.235699        1.000000        0.00096374        0.00012724        0.00053948        0.00053048
     126         -0.234113        1.000000        0.00165428        0.00066384        0.00234772        0.00094521
     127         -0.233479        1.000000        0.00015071        0.00051152        0.00037167        0.00010102
     128         -0.232405        1.000000        0.00063787        0.00113331        0.00018471        0.00034199
     129         -0.229411        1.000000        0.00084835        0.00033234        0.00224957        0.00027715
     130         -0.227763        1.000000        0.00044721        0.00057866        0.00080885        0.00043785
     131         -0.225413        1.000000        0.00095733        0.00225236        0.00053291        0.00070522
     132         -0.224052        1.000000        0.00299476        0.00432062        0.00117313        0.00145873
     133         -0.222361        1.000000        0.00219915        0.00151431        0.00071320        0.00136708
     134         -0.220691        1.000000        0.00063409        0.00096074        0.00063723        0.00036527
     135         -0.219020        1.000000        0.00067895        0.00092529        0.00236968        0.00021656
     136         -0.218327        1.000000        0.00081402        0.00117368        0.00062325        0.00045214
     137         -0.216233        1.000000        0.00095090        0.00022685        0.00137547        0.00042521
     138         -0.215483        1.000000        0.00265553        0.00335770        0.00233431        0.00131512
     139         -0.214606        1.000000        0.00142331        0.00238928        0.00161512        0.00063743
     140         -0.214369        1.000000        0.00102025        0.00407398        0.00076217        0.00041718
     141         -0.213409        1.000000        0.00124827        0.00096056        0.00464332        0.00027652
     142         -0.211776        1.000000        0.00200130        0.00415810        0.00235593        0.00031114
     143         -0.211151        1.000000        0.00061885        0.00152296        0.00077514        0.00043224
     144         -0.210146        1.000000        0.00069271        0.00190311        0.00197997        0.00041785
     145         -0.208580        1.000000        0.00150855        0.00420602        0.00079559        0.00104333
     146         -0.208428        1.000000        0.00028841        0.00172527        0.00057930        0.00020319
     147         -0.207772        1.000000        0.00089962        0.00330115        0.00074146        0.00028356
     148         -0.207417        1.000000        0.00064351        0.00212640        0.00120789        0.00082556
     149         -0.205794        1.000000        0.00042180        0.00599893        0.00037287        0.00066476
     150         -0.205456        1.000000        0.00082836        0.00140628        0.00076238        0.00062580
     151         -0.205045        1.000000        0.00070806        0.00277195        0.00056288        0.00051361
     152         -0.203876        1.000000        0.00037313        0.00193062        0.00037150        0.00102299
     153         -0.203271        1.000000        0.00038298        0.00110262        0.00076780        0.00057980
     154         -0.202406        1.000000        0.00083115        0.00243631        0.00050665        0.00038431
     155         -0.201918        1.000000        0.00077952        0.00410469        0.00031899        0.00052310
     156         -0.201169        1.000000        0.00030514        0.00164674        0.00017045        0.00024225
     157         -0.200653        1.000000        0.00028712        0.00194963        0.00024184        0.00119178
     158         -0.199566        1.000000        0.00035078        0.00060833        0.00041580        0.00061641
     159         -0.198541        1.000000        0.00046107        0.00153195        0.00044891        0.00064950
     160         -0.197965        1.000000        0.00152098        0.00158926        0.00099888        0.00354713
     161         -0.197009        1.000000        0.00036666        0.00059224        0.00075015        0.00013254
     162         -0.196589        1.000000        0.00016915        0.00021486        0.00055773        0.00004446
     163         -0.196293        1.000000        0.00099178        0.00282431        0.00194839        0.00059460
     164         -0.195928        1.000000        0.00061895        0.00344660        0.00140878        0.00048217
     165         -0.195080        1.000000        0.00133848        0.00380737        0.00137766        0.00042268
     166         -0.194735        1.000000        0.00043331        0.00198850        0.00106505        0.00029731
     167         -0.193768        1.000000        0.00069251        0.00153500        0.00369259        0.00094185
     168         -0.193492        1.000000        0.00035630        0.00191236        0.00068999        0.00012005
     169         -0.193362        1.000000        0.00032389        0.00079356        0.00059030        0.00037555
     170         -0.192850        1.000000        0.00029393        0.00142319        0.00072017        0.00020644
     171         -0.191806        1.000000        0.00132381        0.00568987        0.00254981        0.00117888
     172         -0.191160        1.000000        0.00015208        0.00082819        0.00045131        0.00019875
     173         -0.190214        1.000000        0.00055737        0.00258009        0.00042390        0.00030304
     174         -0.190079        1.000000        0.00212706        0.00988618        0.00090167        0.00150817
     175         -0.189442        1.000000        0.00041177        0.00452172        0.00002647        0.00011155
     176         -0.188828        1.000000        0.00035246        0.00239309        0.00118931        0.00049818
     177         -0.188175        1.000000        0.00011471        0.00061039        0.00035816        0.00012495
     178         -0.187748        1.000000        0.00012054        0.00090067        0.00004179        0.00017904
     179         -0.187689        1.000000        0.00003238        0.00042260        0.00008426        0.00006830
     180         -0.187342        1.000000        0.00013977        0.00045475        0.00021354        0.00006571
     181         -0.186848        1.000000        0.00037878        0.00156707        0.00043719        0.00021221
     182         -0.186470        1.000000        0.00010279        0.00076905        0.00005818        0.00018582
     183         -0.186117        1.000000        0.00003506        0.00033428        0.00013813        0.00002450
     184         -0.184686        1.000000        0.00082905        0.00323794        0.00040971        0.00055383
     185         -0.184078        1.000000        0.00016846        0.00123645        0.00008418        0.00003259
     186         -0.183198        1.000000        0.00032953        0.00107074        0.00026896        0.00004336
     187         -0.182472        1.000000        0.00009978        0.00022131        0.00010689        0.00006865
     188         -0.182396        1.000000        0.00017126        0.00068376        0.00023840        0.00004553
     189         -0.181912        1.000000        0.00013993        0.00045994        0.00013721        0.00001899
     190         -0.178394        1.000000        0.00007014        0.00025929        0.00004483        0.00039789
     191         -0.176336        1.000000        0.00007606        0.00017925        0.00005259        0.00005323
     192         -0.174275        1.000000        0.00000949        0.00014903        0.00006243        0.00001952
     193         -0.174208        1.000000        0.00001145        0.00003802        0.00002076        0.00000477
     194         -0.172599        1.000000        0.00002841        0.00008405        0.00002018        0.00002914
     195         -0.172077        1.000000        0.00008203        0.00016433        0.00009907        0.00010879
     196         -0.168826        0.000000        0.00002540        0.00009981        0.00002558        0.00002367
     197         -0.167272        0.000000        0.00000079        0.00000145        0.00003446        0.00000263
     198         -0.160679        0.000000        0.00003685        0.00006149        0.00003298        0.00002339
     199         -0.155514        0.000000        0.00003451        0.00027056        0.00006411        0.00010524
     200         -0.155092        0.000000        0.00001984        0.00009126        0.00006222        0.00001252
     201         -0.129184        0.000000        0.00000406        0.00000927        0.00000639        0.00000577
     202         -0.074147        0.000000        0.00035310        0.00016971        0.00021868        0.00000767
     203         -0.073773        0.000000        0.00003828        0.00000456        0.00005595        0.00001270
     204         -0.072841        0.000000        0.00003926        0.00007155        0.00032710        0.00004423
     205         -0.062706        0.000000        0.00056769        0.00033852        0.00038080        0.00003920
     206         -0.055850        0.000000        0.00008197        0.00005681        0.00018645        0.00006835
     207         -0.052998        0.000000        0.00004663        0.00010286        0.00003663        0.00002712
     208         -0.049522        0.000000        0.00012430        0.00002863        0.00012638        0.00002228
     209         -0.046686        0.000000        0.00007393        0.00002341        0.00005871        0.00012470
     210         -0.040753        0.000000        0.00012654        0.00002945        0.00010003        0.00002037
     211         -0.040501        0.000000        0.00005789        0.00002544        0.00007727        0.00000612
     212         -0.038560        0.000000        0.00015310        0.00035059        0.00013715        0.00007676
     213         -0.034739        0.000000        0.00003324        0.00014761        0.00006563        0.00003475
     214         -0.033647        0.000000        0.00017204        0.00014607        0.00001464        0.00000899
     215         -0.030607        0.000000        0.00011578        0.00020204        0.00031841        0.00003578
     216         -0.026412        0.000000        0.00008761        0.00027862        0.00015417        0.00004182
     217         -0.024009        0.000000        0.00004579        0.00002240        0.00003831        0.00002873
     218         -0.022598        0.000000        0.00023909        0.00063901        0.00021356        0.00003950
     219         -0.020635        0.000000        0.00005770        0.00008756        0.00003470        0.00003245
     220         -0.017987        0.000000        0.00008104        0.00005558        0.00006130        0.00003840
     221         -0.017747        0.000000        0.00003536        0.00011989        0.00004122        0.00001601
     222         -0.014872        0.000000        0.00028790        0.00043615        0.00008561        0.00003458
     223         -0.014478        0.000000        0.00009465        0.00026261        0.00009924        0.00000997
     224         -0.011896        0.000000        0.00016704        0.00000912        0.00013671        0.00012219
     225         -0.008742        0.000000        0.00029695        0.00067544        0.00007860        0.00005254
     226          0.088305        0.000000        0.09813972        0.00058806        0.00087638        0.26043659
     227          0.098884        0.000000        0.09804653        0.00649375        0.05650823        0.19563833
     228          0.102781        0.000000        0.10460215        0.00152526        0.00283349        0.25567623
     229          0.103763        0.000000        0.10436609        0.00016193        0.07542536        0.17973672
     230          0.103953        0.000000        0.10421423        0.00179086        0.00326882        0.25591436
     231          0.108999        0.000000        0.10277135        0.00205123        0.12060873        0.13530542
     232          0.115317        0.000000        0.10183525        0.01856843        0.07584695        0.16753201
     233          0.283665        0.000000        0.00274819        0.30864678        0.00504134        0.00017258
     234          0.284817        0.000000        0.00000212        0.00608815        0.32420838        0.00126478
     235          0.286037        0.000000        0.00013111        0.27443478        0.03381666        0.00361418
     236          0.290040        0.000000        0.00330860        0.30013671        0.02622419        0.00060752
     237          0.293168        0.000000        0.00233457        0.02436185        0.22677982        0.07940716
     238          0.294703        0.000000        0.00419082        0.18390240        0.09705457        0.02495979
     239          0.295023        0.000000        0.00123326        0.08962309        0.17401218        0.05018984
     240          0.295166        0.000000        0.00147427        0.25698565        0.04553040        0.00650699
     241          0.296596        0.000000        0.00415935        0.03085299        0.12427746        0.16781456
     242          0.298058        0.000000        0.00168694        0.02895496        0.29021000        0.00325926
     243          0.300357        0.000000        0.00014763        0.27706890        0.02759187        0.01078053
     244          0.301917        0.000000        0.01014147        0.07625933        0.24400213        0.00104087
     245          0.307552        0.000000        0.00062551        0.15060461        0.07726533        0.08779153
     246          0.311189        0.000000        0.00019784        0.14146476        0.16012231        0.01835666
     247          0.316485        0.000000        0.24663873        0.00055388        0.00050400        0.09412103
     248          0.327639        0.000000        0.24578916        0.00030417        0.01611346        0.08407374
     249          0.336288        0.000000        0.23992924        0.00050543        0.02168226        0.08411877
     250          0.337491        0.000000        0.23902111        0.00171818        0.00830956        0.09703734
     251          0.337676        0.000000        0.23956071        0.00111745        0.05550162        0.04656369
     252          0.344754        0.000000        0.22789060        0.01372231        0.00092859        0.09417332
     253          0.349259        0.000000        0.24376309        0.00453335        0.02512815        0.07167146
     254          0.454596        0.000000        0.00000019        0.00580230        0.01716550        0.00016869
     255          0.459539        0.000000        0.00000329        0.01526457        0.00528115        0.00001366
     256          0.462974        0.000000        0.00004925        0.02285379        0.00138918        0.00015469
     257          0.464494        0.000000        0.00000641        0.00085399        0.02524700        0.00021630
     258          0.466160        0.000000        0.00004530        0.02268593        0.00048687        0.00020768
     259          0.467274        0.000000        0.00001468        0.00153384        0.02365925        0.00045040