# Projected DOS for atomic kind N at iteration step i = 0, E(Fermi) =    -0.171329 a.u.
#     MO Eigenvalue [a.u.]      Occupation                 s                py                pz                px
       1         -0.952921        1.000000        0.61487287        0.00024037        0.00001479        0.00009703
       2         -0.945307        1.000000        0.61476092        0.00004659        0.00001429        0.00023582
       3         -0.942426        1.000000        0.61147317        0.00014769        0.00000092        0.00004794
       4         -0.940424        1.000000        0.61384832        0.00016796        0.00035802        0.00001422
       5         -0.936657        1.000000        0.61274568        0.00005596        0.00011325        0.00005394
       6         -0.936357        1.000000        0.61321195        0.00000028        0.00003036        0.00037174
       7         -0.926084        1.000000        0.61321683        0.00002457        0.00015369        0.00001553
       8         -0.693810        1.000000        0.01614762        0.00273742        0.00067257        0.19247809
       9         -0.690003        1.000000        0.01758711        0.00182042        0.00077720        0.18813410
      10         -0.684866        1.000000        0.01733133        0.00100544        0.00434493        0.18427479
      11         -0.683700        1.000000        0.01506291        0.00335612        0.03681957        0.15840585
      12         -0.683458        1.000000        0.01524373        0.00042818        0.06127337        0.13524537
      13         -0.680384        1.000000        0.01620032        0.00083013        0.08158098        0.11183362
      14         -0.671848        1.000000        0.01697333        0.01211206        0.05788302        0.12123967
      15         -0.640367        1.000000        0.00052128        0.00707595        0.00035710        0.00015012
      16         -0.631104        1.000000        0.00007280        0.00186325        0.00020887        0.00002233
      17         -0.622824        1.000000        0.00001782        0.00010720        0.00098261        0.00001695
      18         -0.619654        1.000000        0.00002904        0.00004088        0.00371303        0.00010385
      19         -0.614885        1.000000        0.00016629        0.00011142        0.00912823        0.00018785
      20         -0.603481        1.000000        0.00011090        0.00669893        0.01417855        0.00146857
      21         -0.597755        1.000000        0.00029104        0.00811902        0.01429185        0.00526735
      22         -0.594224        1.000000        0.00018060        0.00900579        0.00316118        0.00041548
      23         -0.594030        1.000000        0.00020438        0.00398819        0.00997445        0.00028674
      24         -0.592277        1.000000        0.00008844        0.01160985        0.01217386        0.00398415
      25         -0.591212        1.000000        0.00016300        0.00803584        0.07159019        0.02011583
      26         -0.587664        1.000000        0.00028644        0.01073465        0.01283611        0.00032125
      27         -0.586485        1.000000        0.00024201        0.09118746        0.01903223        0.00220274
      28         -0.585400        1.000000        0.00009760        0.14584623        0.01435361        0.00152870
      29         -0.583846        1.000000        0.00015305        0.00575964        0.01302469        0.00313827
      30         -0.582996        1.000000        0.00014880        0.05090491        0.04502173        0.00283989
      31         -0.582420        1.000000        0.00034263        0.07008823        0.02953546        0.00302980
      32         -0.582207        1.000000        0.00016636        0.06441425        0.01377065        0.00145538
      33         -0.580324        1.000000        0.00010043        0.02011654        0.02310049        0.00467119
      34         -0.580057        1.000000        0.00012435        0.03229559        0.02345506        0.00384552
      35         -0.577897        1.000000        0.00022419        0.04006677        0.04895164        0.01103433
      36         -0.577823        1.000000        0.00001034        0.03104825        0.40747862        0.00319825
      37         -0.576942        1.000000        0.00000927        0.02645391        0.08825053        0.00240754
      38         -0.575891        1.000000        0.00019876        0.09097230        0.01667737        0.00223120
      39         -0.574955        1.000000        0.00006732        0.03805862        0.01394862        0.00253604
      40         -0.574743        1.000000        0.00004671        0.01391219        0.04909709        0.01225929
      41         -0.574171        1.000000        0.00012595        0.03699446        0.05402132        0.01216171
      42         -0.573190        1.000000        0.00025983        0.03904860        0.15060224        0.03832624
      43         -0.572513        1.000000        0.00001658        0.00850308        0.00245507        0.00235945
      44         -0.571375        1.000000        0.00000328        0.00158166        0.00089127        0.00055234
      45         -0.570494        1.000000        0.00003806        0.14035130        0.10772157        0.04504557
      46         -0.569631        1.000000        0.00034171        0.07877005        0.04345296        0.00115701
      47         -0.568008        1.000000        0.00023472        0.45470317        0.06186782        0.00042737
      48         -0.567088        1.000000        0.00023112        0.00747331        0.06575359        0.01054294
      49         -0.565592        1.000000        0.00010239        0.03159371        0.00593271        0.00159695
      50         -0.564140        1.000000        0.00008830        0.03360718        0.38490494        0.00457122
      51         -0.562719        1.000000        0.00029846        0.08402434        0.31616050        0.12908912
      52         -0.560392        1.000000        0.00043705        0.17546860        0.12740408        0.04276328
      53         -0.559963        1.000000        0.00047880        0.28168733        0.12525590        0.03263307
      54         -0.559468        1.000000        0.00009900        0.00883052        0.02024906        0.00729596
      55         -0.557586        1.000000        0.00117002        0.11038289        0.21467667        0.15714266
      56         -0.554223        1.000000        0.00010616        0.02757181        0.10380350        0.02551645
      57         -0.553685        1.000000        0.00046214        0.07853509        0.02664966        0.00544884
      58         -0.552342        1.000000        0.00088981        0.13276054        0.01114952        0.00067966
      59         -0.551138        1.000000        0.00090990        0.27849487        0.17486162        0.00547100
      60         -0.545807        1.000000        0.00050465        0.00370064        0.33603704        0.14337733
      61         -0.544886        1.000000        0.00084284        0.32307297        0.03728576        0.02796083
      62         -0.541934        1.000000        0.00119673        0.29009070        0.01783633        0.01425890
      63         -0.538424        1.000000        0.00054005        0.29671715        0.09275541        0.00674352
      64         -0.537832        1.000000        0.00019683        0.41408679        0.00127934        0.04055353
      65         -0.473928        1.000000        0.00851736        0.00107299        0.00185388        0.43724107
      66         -0.469954        1.000000        0.00866014        0.00230490        0.00281904        0.42527820
      67         -0.465117        1.000000        0.00172799        0.00062862        0.00147486        0.08831044
      68         -0.464752        1.000000        0.00699005        0.00234055        0.00501847        0.33891186
      69         -0.464187        1.000000        0.00882823        0.00124506        0.11814584        0.27746910
      70         -0.463806        1.000000        0.00922756        0.01062541        0.09484613        0.32681623
      71         -0.461691        1.000000        0.00534307        0.00347958        0.09998176        0.13604294
      72         -0.460663        1.000000        0.00110247        0.00033449        0.02536758        0.03058030
      73         -0.459418        1.000000        0.00317002        0.00034919        0.08374633        0.09337396
      74         -0.458458        1.000000        0.00010091        0.00076664        0.00381988        0.00622879
      75         -0.454140        1.000000        0.00174165        0.00798235        0.02248839        0.04144507
      76         -0.451578        1.000000        0.00689011        0.02530138        0.10444395        0.23857454
      77         -0.447662        1.000000        0.00002293        0.00034196        0.00014308        0.00124351
      78         -0.443151        1.000000        0.00001687        0.00139279        0.00381552        0.00763371
      79         -0.438487        1.000000        0.00000951        0.00116100        0.00038368        0.00156580
      80         -0.410725        1.000000        0.00000658        0.03832019        0.00002355        0.00077990
      81         -0.409899        1.000000        0.00000611        0.00028190        0.03371535        0.00025048
      82         -0.407698        1.000000        0.00000750        0.00033455        0.03852579        0.00045994
      83         -0.406288        1.000000        0.00000642        0.04389478        0.00044403        0.00045869
      84         -0.402421        1.000000        0.00001017        0.00378925        0.03863399        0.00088603
      85         -0.401817        1.000000        0.00000049        0.03290760        0.00104276        0.00007823
      86         -0.400759        1.000000        0.00001588        0.03325776        0.00480878        0.00245284
      87         -0.400111        1.000000        0.00001010        0.00580103        0.02184613        0.00893240
      88         -0.398917        1.000000        0.00001735        0.03934369        0.00041135        0.00036452
      89         -0.398310        1.000000        0.00000393        0.00094343        0.02584568        0.00764655
      90         -0.398196        1.000000        0.00001120        0.00201635        0.02154750        0.01260283
      91         -0.395468        1.000000        0.00001126        0.03698863        0.00055039        0.00192126
      92         -0.390099        1.000000        0.00000195        0.00963427        0.02337081        0.00579950
      93         -0.386842        1.000000        0.00000699        0.02695167        0.00292174        0.00949898
      94         -0.323849        1.000000        0.00026050        0.00149381        0.00026953        0.00036975
      95         -0.315952        1.000000        0.00005261        0.00007812        0.00005768        0.00001316
      96         -0.305510        1.000000        0.00003207        0.00003137        0.00009693        0.00001288
      97         -0.303277        1.000000        0.00006070        0.00008531        0.00017213        0.00002499
      98         -0.298799        1.000000        0.00011249        0.00001400        0.00050144        0.00010797
      99         -0.276492        1.000000        0.00041142        0.00159559        0.00022123        0.00043611
     100         -0.273732        1.000000        0.00118339        0.00194323        0.00122461        0.00111815
     101         -0.273066        1.000000        0.00134837        0.00336825        0.00021975        0.00116194
     102         -0.269511        1.000000        0.00024818        0.00031089        0.00023692        0.00011508
     103         -0.268426        1.000000        0.00035294        0.00024125        0.00027099        0.00016130
     104         -0.265560        1.000000        0.00031486        0.00024285        0.00018300        0.00014498
     105         -0.264931        1.000000        0.00024631        0.00136667        0.00027475        0.00035715
     106         -0.264692        1.000000        0.00030664        0.00071631        0.00126742        0.00011789
     107         -0.262923        1.000000        0.00011299        0.00006510        0.00046976        0.00020554
     108         -0.257322        1.000000        0.00021853        0.00128621        0.00054303        0.00060857
     109         -0.256894        1.000000        0.00046518        0.00130801        0.00039744        0.00058249
     110         -0.256130        1.000000        0.00030950        0.00025931        0.00032753        0.00029336
     111         -0.255739        1.000000        0.00026019        0.00012021        0.00038964        0.00013377
     112         -0.254158        1.000000        0.00024575        0.00046778        0.00014311        0.00021475
     113         -0.252575        1.000000        0.00058636        0.00059714        0.00042160        0.00031858
     114         -0.251752        1.000000        0.00072995        0.00162261        0.00009578        0.00055068
     115         -0.250358        1.000000        0.00041539        0.00067462        0.00055833        0.00034532
     116         -0.247144        1.000000        0.00016822        0.00036515        0.00042609        0.00019143
     117         -0.245542        1.000000        0.00038138        0.00033679        0.00032946        0.00026107
     118         -0.244403        1.000000        0.00015710        0.00084983        0.00021329        0.00012835
     119         -0.243421        1.000000        0.00021096        0.00060217        0.00020384        0.00018859
     120         -0.242997        1.000000        0.00039046        0.00082637        0.00037879        0.00036917
     121         -0.239911        1.000000        0.00036381        0.00032514        0.00026057        0.00032498
     122         -0.238443        1.000000        0.00015115        0.00116802        0.00207992        0.00015426
     123         -0.236608        1.000000        0.00066208        0.00034193        0.00176813        0.00031953
     124         -0.236013        1.000000        0.00039222        0.00051343        0.00083733        0.00007823
     125         -0.235208        1.000000        0.00099757        0.00012818        0.00047985        0.00058605
     126         -0.233913        1.000000        0.00141903        0.00056743        0.00206250        0.00084603
     127         -0.232358        1.000000        0.00019216        0.00060171        0.00059088        0.00011666
     128         -0.231975        1.000000        0.00065560        0.00101953        0.00011951        0.00036891
     129         -0.229303        1.000000        0.00083863        0.00035370        0.00224946        0.00028110
     130         -0.227524        1.000000        0.00051430        0.00065031        0.00091681        0.00047328
     131         -0.224407        1.000000        0.00324367        0.00590181        0.00103986        0.00195679
     132         -0.223099        1.000000        0.00095037        0.00026653        0.00053846        0.00036304
     133         -0.221927        1.000000        0.00198649        0.00176866        0.00092477        0.00123994
     134         -0.219921        1.000000        0.00051615        0.00031939        0.00043683        0.00019807
     135         -0.218616        1.000000        0.00070610        0.00100389        0.00243833        0.00024079
     136         -0.217955        1.000000        0.00066994        0.00124064        0.00055573        0.00038309
     137         -0.215980        1.000000        0.00094938        0.00032712        0.00158040        0.00046052
     138         -0.215282        1.000000        0.00281290        0.00270507        0.00303093        0.00116794
     139         -0.214268        1.000000        0.00072824        0.00128646        0.00088779        0.00023367
     140         -0.213955        1.000000        0.00144234        0.00437941        0.00121444        0.00085198
     141         -0.212335        1.000000        0.00140344        0.00067527        0.00516091        0.00027619
     142         -0.211675        1.000000        0.00191278        0.00457974        0.00224699        0.00029576
     143         -0.210759        1.000000        0.00043428        0.00074363        0.00116651        0.00034554
     144         -0.209500        1.000000        0.00031869        0.00152131        0.00056265        0.00026212
     145         -0.207903        1.000000        0.00143306        0.00174816        0.00060203        0.00083777
     146         -0.207805        1.000000        0.00020987        0.00053439        0.00046172        0.00003380
     147         -0.207349        1.000000        0.00058164        0.00183917        0.00102929        0.00072023
     148         -0.206403        1.000000        0.00170094        0.00671155        0.00109102        0.00111981
     149         -0.205587        1.000000        0.00034670        0.00624894        0.00045069        0.00060983
     150         -0.205023        1.000000        0.00113983        0.00329912        0.00080164        0.00083359
     151         -0.204515        1.000000        0.00026038        0.00176590        0.00064108        0.00024681
     152         -0.203628        1.000000        0.00045068        0.00280157        0.00037871        0.00094027
     153         -0.202296        1.000000        0.00102920        0.00188867        0.00046064        0.00058341
     154         -0.201945        1.000000        0.00068318        0.00201456        0.00072049        0.00099243
     155         -0.201719        1.000000        0.00061154        0.00413169        0.00029077        0.00047063
     156         -0.201037        1.000000        0.00029108        0.00193232        0.00011277        0.00032994
     157         -0.200342        1.000000        0.00031195        0.00203570        0.00023843        0.00082496
     158         -0.199338        1.000000        0.00029357        0.00062801        0.00039262        0.00053296
     159         -0.198120        1.000000        0.00062233        0.00235300        0.00065262        0.00180152
     160         -0.197881        1.000000        0.00139631        0.00123845        0.00087068        0.00243275
     161         -0.196969        1.000000        0.00037709        0.00057150        0.00074440        0.00013494
     162         -0.196420        1.000000        0.00033994        0.00049082        0.00100424        0.00018966
     163         -0.195978        1.000000        0.00085069        0.00321030        0.00172168        0.00049101
     164         -0.195766        1.000000        0.00059589        0.00337701        0.00132113        0.00048692
     165         -0.194940        1.000000        0.00168044        0.00480228        0.00179356        0.00057628
     166         -0.194230        1.000000        0.00017254        0.00089081        0.00121358        0.00023736
     167         -0.193669        1.000000        0.00065181        0.00121456        0.00332441        0.00088421
     168         -0.193260        1.000000        0.00050323        0.00205392        0.00058234        0.00028871
     169         -0.193007        1.000000        0.00010917        0.00062624        0.00093908        0.00028017
     170         -0.192643        1.000000        0.00015854        0.00102827        0.00041178        0.00009417
     171         -0.191575        1.000000        0.00129583        0.00569093        0.00237259        0.00123098
     172         -0.190365        1.000000        0.00056550        0.00225516        0.00038794        0.00025016
     173         -0.189998        1.000000        0.00222963        0.01032167        0.00122513        0.00161604
     174         -0.189711        1.000000        0.00004971        0.00016579        0.00025271        0.00014616
     175         -0.188943        1.000000        0.00067824        0.00622510        0.00007929        0.00007590
     176         -0.188649        1.000000        0.00028895        0.00205724        0.00070908        0.00029809
     177         -0.188060        1.000000        0.00012643        0.00068508        0.00041563        0.00012013
     178         -0.187647        1.000000        0.00010532        0.00118913        0.00011937        0.00019429
     179         -0.187376        1.000000        0.00002660        0.00012268        0.00002846        0.00002381
     180         -0.187074        1.000000        0.00016277        0.00115124        0.00036016        0.00009672
     181         -0.186116        1.000000        0.00004654        0.00050273        0.00012299        0.00002676
     182         -0.185475        1.000000        0.00008074        0.00020584        0.00020278        0.00032044
     183         -0.184652        1.000000        0.00082659        0.00320009        0.00041686        0.00056188
     184         -0.183392        1.000000        0.00040014        0.00130934        0.00024263        0.00020161
     185         -0.183104        1.000000        0.00025530        0.00051906        0.00025426        0.00004837
     186         -0.182342        1.000000        0.00018093        0.00076010        0.00027227        0.00004683
     187         -0.182068        1.000000        0.00011904        0.00050595        0.00003890        0.00002228
     188         -0.181585        1.000000        0.00023847        0.00096070        0.00020217        0.00005623
     189         -0.179810        1.000000        0.00003162        0.00017320        0.00002506        0.00007835
     190         -0.176111        1.000000        0.00004374        0.00017817        0.00003829        0.00035705
     191         -0.174276        1.000000        0.00001078        0.00014492        0.00006718        0.00002196
     192         -0.173452        1.000000        0.00006381        0.00013778        0.00004221        0.00002966
     193         -0.172084        1.000000        0.00008681        0.00018873        0.00011730        0.00010853
     194         -0.171329        1.000000        0.00000300        0.00001214        0.00000436        0.00000389
     195         -0.168816        0.000000        0.00002540        0.00010024        0.00002544        0.00002390
     196         -0.167304        0.000000        0.00000087        0.00000313        0.00003484        0.00000213
     197         -0.164426        0.000000        0.00006634        0.00014381        0.00001561        0.00004418
     198         -0.158483        0.000000        0.00003163        0.00010602        0.00003342        0.00002045
     199         -0.155454        0.000000        0.00002893        0.00022775        0.00007170        0.00009266
     200         -0.155031        0.000000        0.00001994        0.00011814        0.00005269        0.00001945
     201         -0.129174        0.000000        0.00000406        0.00000927        0.00000638        0.00000577
     202         -0.074048        0.000000        0.00032725        0.00015332        0.00030900        0.00000665
     203         -0.073755        0.000000        0.00003252        0.00000560        0.00004013        0.00001504
     204         -0.071854        0.000000        0.00007152        0.00008868        0.00024609        0.00004316
     205         -0.062687        0.000000        0.00056643        0.00033864        0.00038191        0.00003889
     206         -0.055405        0.000000        0.00009153        0.00006000        0.00020315        0.00008205
     207         -0.052774        0.000000        0.00005397        0.00010088        0.00003608        0.00002790
     208         -0.049415        0.000000        0.00011907        0.00002872        0.00012955        0.00002139
     209         -0.045620        0.000000        0.00006444        0.00002433        0.00004753        0.00011487
     210         -0.040740        0.000000        0.00012657        0.00002838        0.00010067        0.00002066
     211         -0.040492        0.000000        0.00005836        0.00002595        0.00007612        0.00000615
     212         -0.038395        0.000000        0.00015304        0.00035131        0.00014004        0.00007633
     213         -0.034583        0.000000        0.00003278        0.00014317        0.00007370        0.00003134
     214         -0.033636        0.000000        0.00017052        0.00014618        0.00001542        0.00000918
     215         -0.030204        0.000000        0.00012680        0.00021767        0.00031430        0.00003317
     216         -0.026360        0.000000        0.00008430        0.00026875        0.00015164        0.00004056
     217         -0.023999        0.000000        0.00004333        0.00002513        0.00003713        0.00002903
     218         -0.022549        0.000000        0.00023831        0.00064805        0.00021599        0.00004000
     219         -0.018004        0.000000        0.00004765        0.00004079        0.00004584        0.00003081
     220         -0.017859        0.000000        0.00007656        0.00006444        0.00004008        0.00004209
     221         -0.017676        0.000000        0.00003633        0.00011853        0.00004058        0.00001670
     222         -0.014839        0.000000        0.00027324        0.00048460        0.00009356        0.00003393
     223         -0.013976        0.000000        0.00009258        0.00019312        0.00009066        0.00000751
     224         -0.011664        0.000000        0.00015515        0.00001162        0.00014868        0.00012347
     225         -0.005075        0.000000        0.00035885        0.00073541        0.00007562        0.00005771
     226          0.088308        0.000000        0.09809305        0.00058327        0.00087816        0.26047909
     227          0.098888        0.000000        0.09804084        0.00649351        0.05650513        0.19562670
     228          0.102781        0.000000        0.10460193        0.00152557        0.00283445        0.25567330
     229          0.103763        0.000000        0.10436573        0.00016195        0.07542406        0.17973749
     230          0.103953        0.000000        0.10421288        0.00179092        0.00326935        0.25591484
     231          0.109000        0.000000        0.10277126        0.00205126        0.12060848        0.13530558
     232          0.115317        0.000000        0.10183010        0.01857136        0.07584560        0.16753270
     233          0.283729        0.000000        0.00286313        0.30913526        0.00438443        0.00018342
     234          0.284820        0.000000        0.00000388        0.00539743        0.32482821        0.00128073
     235          0.286039        0.000000        0.00013216        0.27443178        0.03381805        0.00361458
     236          0.290041        0.000000        0.00330947        0.30013383        0.02622473        0.00060788
     237          0.293168        0.000000        0.00233459        0.02436328        0.22677875        0.07940681
     238          0.294704        0.000000        0.00418099        0.18356940        0.09731344        0.02506821
     239          0.295023        0.000000        0.00123492        0.09021982        0.17353880        0.05004876
     240          0.295167        0.000000        0.00148437        0.25675351        0.04570829        0.00654066
     241          0.296596        0.000000        0.00415928        0.03085350        0.12427656        0.16781508
     242          0.298059        0.000000        0.00168601        0.02891521        0.29025112        0.00325797
     243          0.300357        0.000000        0.00014765        0.27706860        0.02759202        0.01078075
     244          0.301918        0.000000        0.01014222        0.07626465        0.24399614        0.00104112
     245          0.307554        0.000000        0.00062425        0.15037289        0.07742757        0.08786485
     246          0.311192        0.000000        0.00019879        0.14166756        0.15996822        0.01828594
     247          0.316562        0.000000        0.24646296        0.00060116        0.00051675        0.09404771
     248          0.327639        0.000000        0.24578873        0.00030422        0.01611302        0.08407341
     249          0.336288        0.000000        0.23992962        0.00050500        0.02169210        0.08410807
     250          0.337493        0.000000        0.23901935        0.00171952        0.00832923        0.09701427
     251          0.337676        0.000000        0.23956041        0.00111756        0.05547194        0.04659614
     252          0.344756        0.000000        0.22788932        0.01372332        0.00092844        0.09417192
     253          0.349264        0.000000        0.24375761        0.00454099        0.02511941        0.07166592
     254          0.454596        0.000000        0.00000020        0.00580003        0.01716840        0.00016878
     255          0.459542        0.000000        0.00000342        0.01527357        0.00527878        0.00001383
     256          0.462974        0.000000        0.00004926        0.02285436        0.00138894        0.00015468
     257          0.464494        0.000000        0.00000641        0.00085406        0.02524773        0.00021622
     258          0.466161        0.000000        0.00004534        0.02268460        0.00048822        0.00020780
     259          0.467274        0.000000        0.00001469        0.00153485        0.02365822        0.00045041