# Projected DOS for atomic kind C at iteration step i = 0, E(Fermi) =    -0.171329 a.u.
#     MO Eigenvalue [a.u.]      Occupation                 s                py                pz                px
       1         -0.952921        1.000000        0.05885643        0.00031018        0.00014619        0.04303121
       2         -0.945307        1.000000        0.05737512        0.00092150        0.00917146        0.03311338
       3         -0.942426        1.000000        0.06246006        0.00029087        0.00017735        0.04383094
       4         -0.940424        1.000000        0.05893694        0.00000357        0.01301827        0.03034155
       5         -0.936657        1.000000        0.06208649        0.00023396        0.00090291        0.04296000
       6         -0.936357        1.000000        0.06020780        0.00021120        0.02000967        0.02369991
       7         -0.926084        1.000000        0.06109338        0.00309081        0.01254451        0.02831768
       8         -0.693810        1.000000        0.44284457        0.00002495        0.00001859        0.00106003
       9         -0.690003        1.000000        0.43788156        0.00004028        0.00000616        0.00180371
      10         -0.684866        1.000000        0.44033242        0.00003877        0.00000307        0.00167492
      11         -0.683700        1.000000        0.44161235        0.00000015        0.00003181        0.00077331
      12         -0.683458        1.000000        0.43989381        0.00001724        0.00035221        0.00069058
      13         -0.680384        1.000000        0.43911614        0.00001579        0.00035860        0.00093550
      14         -0.671848        1.000000        0.44112801        0.00008121        0.00064154        0.00083101
      15         -0.640367        1.000000        0.00080377        0.00072560        0.00004666        0.00003962
      16         -0.631104        1.000000        0.00003186        0.00034091        0.00002137        0.00003794
      17         -0.622824        1.000000        0.00005003        0.00003011        0.00032891        0.00002391
      18         -0.619654        1.000000        0.00016640        0.00004371        0.00064762        0.00007776
      19         -0.614885        1.000000        0.00019226        0.00004659        0.00088300        0.00008628
      20         -0.603481        1.000000        0.00016872        0.00196793        0.00186566        0.00028986
      21         -0.597755        1.000000        0.00012396        0.00099281        0.00204986        0.00084929
      22         -0.594224        1.000000        0.00021597        0.00162175        0.00061492        0.00009674
      23         -0.594030        1.000000        0.00037749        0.00066061        0.00150369        0.00012923
      24         -0.592277        1.000000        0.00017628        0.00162380        0.00179078        0.00034933
      25         -0.591212        1.000000        0.00002863        0.00079402        0.00557327        0.00225913
      26         -0.587664        1.000000        0.00014356        0.00169493        0.00144624        0.00026263
      27         -0.586485        1.000000        0.00030418        0.00857239        0.00206526        0.00039347
      28         -0.585400        1.000000        0.00012599        0.01520196        0.00146210        0.00019229
      29         -0.583846        1.000000        0.00060763        0.00050754        0.00164864        0.00020482
      30         -0.582996        1.000000        0.00016635        0.00398417        0.00478891        0.00033616
      31         -0.582420        1.000000        0.00035157        0.00635663        0.00257543        0.00044537
      32         -0.582207        1.000000        0.00019520        0.00558083        0.00117345        0.00034441
      33         -0.580324        1.000000        0.00016040        0.00178311        0.00239739        0.00049459
      34         -0.580057        1.000000        0.00018335        0.00299656        0.00231935        0.00068739
      35         -0.577897        1.000000        0.00021227        0.00474340        0.00417415        0.00094929
      36         -0.577823        1.000000        0.00004621        0.00315125        0.03760064        0.00045237
      37         -0.576942        1.000000        0.00012696        0.00259600        0.00867353        0.00033439
      38         -0.575891        1.000000        0.00042284        0.00701508        0.00229552        0.00040804
      39         -0.574955        1.000000        0.00003080        0.00450985        0.00145278        0.00012612
      40         -0.574743        1.000000        0.00031754        0.00105410        0.00492480        0.00104588
      41         -0.574171        1.000000        0.00008701        0.00310952        0.00396787        0.00127459
      42         -0.573190        1.000000        0.00022529        0.00357285        0.01350850        0.00380275
      43         -0.572513        1.000000        0.00006018        0.00149186        0.00018461        0.00024026
      44         -0.571375        1.000000        0.00000512        0.00017786        0.00008784        0.00001495
      45         -0.570494        1.000000        0.00003036        0.01210876        0.01069383        0.00369659
      46         -0.569631        1.000000        0.00014872        0.00666048        0.00473804        0.00012076
      47         -0.568008        1.000000        0.00002701        0.04351919        0.00645693        0.00004304
      48         -0.567088        1.000000        0.00018014        0.00109963        0.00778495        0.00069102
      49         -0.565592        1.000000        0.00005748        0.00343975        0.00097956        0.00022289
      50         -0.564140        1.000000        0.00010256        0.00325992        0.04172475        0.00059987
      51         -0.562719        1.000000        0.00000744        0.00813691        0.03052090        0.01301768
      52         -0.560392        1.000000        0.00010887        0.01932111        0.01568940        0.00313234
      53         -0.559963        1.000000        0.00011692        0.03084634        0.01450651        0.00236472
      54         -0.559468        1.000000        0.00010460        0.00086716        0.00231360        0.00048118
      55         -0.557586        1.000000        0.00042415        0.01123332        0.02619025        0.01319805
      56         -0.554223        1.000000        0.00030025        0.00320312        0.00757569        0.00212986
      57         -0.553685        1.000000        0.00021691        0.00909134        0.00295747        0.00113257
      58         -0.552342        1.000000        0.00038773        0.01606811        0.00176950        0.00136081
      59         -0.551138        1.000000        0.00037333        0.03312243        0.02008345        0.00291053
      60         -0.545807        1.000000        0.00019131        0.00052183        0.03384099        0.01797022
      61         -0.544886        1.000000        0.00038343        0.03993694        0.00506108        0.00348075
      62         -0.541934        1.000000        0.00051732        0.03593028        0.00168583        0.00311305
      63         -0.538424        1.000000        0.00018484        0.04274872        0.01356136        0.00175468
      64         -0.537832        1.000000        0.00005692        0.04981827        0.00004886        0.00350112
      65         -0.473928        1.000000        0.02526444        0.00414828        0.00190493        0.33514290
      66         -0.469954        1.000000        0.02227324        0.00272242        0.00233592        0.33480065
      67         -0.465117        1.000000        0.00449389        0.00061855        0.00115125        0.06920016
      68         -0.464752        1.000000        0.01768848        0.00285273        0.00494014        0.26440412
      69         -0.464187        1.000000        0.02300685        0.00063782        0.09038287        0.21883095
      70         -0.463806        1.000000        0.02656500        0.00428317        0.06594244        0.26447578
      71         -0.461691        1.000000        0.01339003        0.00022616        0.07692078        0.11089018
      72         -0.460663        1.000000        0.00312461        0.00055173        0.01886728        0.02476482
      73         -0.459418        1.000000        0.00973777        0.00193436        0.05999763        0.07692567
      74         -0.458458        1.000000        0.00063108        0.00049033        0.00151803        0.00678901
      75         -0.454140        1.000000        0.00392584        0.00249413        0.01537071        0.03859324
      76         -0.451578        1.000000        0.01921001        0.02228094        0.08772353        0.17801128
      77         -0.447662        1.000000        0.00004156        0.00080488        0.00021012        0.00064238
      78         -0.443151        1.000000        0.00036905        0.00152574        0.00216077        0.00633938
      79         -0.438487        1.000000        0.00017410        0.00066134        0.00094400        0.00107334
      80         -0.410725        1.000000        0.00000079        0.52481418        0.00209221        0.00462036
      81         -0.409899        1.000000        0.00001581        0.00203843        0.53623146        0.00241325
      82         -0.407698        1.000000        0.00000631        0.00482363        0.51808381        0.00242391
      83         -0.406288        1.000000        0.00000773        0.50977233        0.00349512        0.00376495
      84         -0.402421        1.000000        0.00003546        0.02710537        0.48511652        0.01130113
      85         -0.401817        1.000000        0.00000472        0.51703054        0.01856598        0.00169059
      86         -0.400759        1.000000        0.00003622        0.41959604        0.08107809        0.02804041
      87         -0.400111        1.000000        0.00001448        0.07712961        0.32681547        0.12980670
      88         -0.398917        1.000000        0.00000628        0.51465054        0.00654353        0.00343579
      89         -0.398310        1.000000        0.00005858        0.01514699        0.38383840        0.13788429
      90         -0.398196        1.000000        0.00004153        0.02945462        0.31040020        0.19317226
      91         -0.395468        1.000000        0.00000344        0.49988044        0.00701118        0.02126037
      92         -0.390099        1.000000        0.00002536        0.12622042        0.33276089        0.07343724
      93         -0.386842        1.000000        0.00000836        0.36579447        0.04463598        0.12110830
      94         -0.323849        1.000000        0.00001581        0.00024828        0.00011597        0.00012581
      95         -0.315952        1.000000        0.00001090        0.00005432        0.00010303        0.00001776
      96         -0.305510        1.000000        0.00003971        0.00005325        0.00035672        0.00005441
      97         -0.303277        1.000000        0.00001579        0.00009305        0.00006474        0.00003903
      98         -0.298799        1.000000        0.00004267        0.00014361        0.00009827        0.00006550
      99         -0.276492        1.000000        0.00005586        0.00006510        0.00028286        0.00031860
     100         -0.273732        1.000000        0.00011779        0.00026953        0.00015405        0.00080997
     101         -0.273066        1.000000        0.00008124        0.00048264        0.00012982        0.00095327
     102         -0.269511        1.000000        0.00009869        0.00024972        0.00006875        0.00011246
     103         -0.268426        1.000000        0.00020792        0.00026415        0.00033587        0.00034221
     104         -0.265560        1.000000        0.00020344        0.00056009        0.00011957        0.00026332
     105         -0.264931        1.000000        0.00014823        0.00019253        0.00056493        0.00025611
     106         -0.264692        1.000000        0.00011649        0.00058542        0.00007843        0.00017965
     107         -0.262923        1.000000        0.00038657        0.00062468        0.00041888        0.00012515
     108         -0.257322        1.000000        0.00014634        0.00030478        0.00007355        0.00010075
     109         -0.256894        1.000000        0.00006119        0.00004701        0.00012755        0.00023404
     110         -0.256130        1.000000        0.00030918        0.00029372        0.00021554        0.00018152
     111         -0.255739        1.000000        0.00006418        0.00043514        0.00021830        0.00017171
     112         -0.254158        1.000000        0.00020672        0.00081032        0.00028208        0.00020613
     113         -0.252575        1.000000        0.00033535        0.00048585        0.00079962        0.00052757
     114         -0.251752        1.000000        0.00012065        0.00046050        0.00006040        0.00026047
     115         -0.250358        1.000000        0.00004429        0.00008888        0.00004825        0.00025875
     116         -0.247144        1.000000        0.00021821        0.00026940        0.00014257        0.00020849
     117         -0.245542        1.000000        0.00027255        0.00042042        0.00051101        0.00025334
     118         -0.244403        1.000000        0.00027959        0.00012377        0.00019366        0.00014774
     119         -0.243421        1.000000        0.00018339        0.00046488        0.00018297        0.00019572
     120         -0.242997        1.000000        0.00001822        0.00025819        0.00024078        0.00030882
     121         -0.239911        1.000000        0.00025971        0.00027850        0.00024826        0.00055428
     122         -0.238443        1.000000        0.00012363        0.00027252        0.00024698        0.00024800
     123         -0.236608        1.000000        0.00024002        0.00042088        0.00059808        0.00017224
     124         -0.236013        1.000000        0.00027285        0.00010180        0.00083297        0.00029652
     125         -0.235208        1.000000        0.00005990        0.00015141        0.00032392        0.00039875
     126         -0.233913        1.000000        0.00014532        0.00017242        0.00041851        0.00060064
     127         -0.232358        1.000000        0.00019744        0.00045196        0.00096545        0.00032692
     128         -0.231975        1.000000        0.00009212        0.00011667        0.00018410        0.00042346
     129         -0.229303        1.000000        0.00029311        0.00089847        0.00015378        0.00024469
     130         -0.227524        1.000000        0.00039226        0.00060058        0.00074492        0.00046915
     131         -0.224407        1.000000        0.00035339        0.00036219        0.00088934        0.00266082
     132         -0.223099        1.000000        0.00011040        0.00027800        0.00075868        0.00091579
     133         -0.221927        1.000000        0.00016016        0.00010305        0.00138506        0.00097859
     134         -0.219921        1.000000        0.00008051        0.00031288        0.00011445        0.00020978
     135         -0.218616        1.000000        0.00017204        0.00060322        0.00058140        0.00021540
     136         -0.217955        1.000000        0.00031162        0.00036062        0.00024592        0.00025931
     137         -0.215980        1.000000        0.00049798        0.00025299        0.00035125        0.00042961
     138         -0.215282        1.000000        0.00008967        0.00061566        0.00139985        0.00077147
     139         -0.214268        1.000000        0.00066874        0.00113769        0.00053670        0.00031319
     140         -0.213955        1.000000        0.00046393        0.00097799        0.00083142        0.00067583
     141         -0.212335        1.000000        0.00006524        0.00048867        0.00037065        0.00019045
     142         -0.211675        1.000000        0.00015159        0.00027301        0.00117457        0.00011561
     143         -0.210759        1.000000        0.00049355        0.00083188        0.00069414        0.00014480
     144         -0.209500        1.000000        0.00027967        0.00072314        0.00075234        0.00027679
     145         -0.207903        1.000000        0.00029838        0.00069792        0.00024748        0.00067842
     146         -0.207805        1.000000        0.00008583        0.00019468        0.00075335        0.00005242
     147         -0.207349        1.000000        0.00020169        0.00039493        0.00034723        0.00045772
     148         -0.206403        1.000000        0.00011766        0.00043865        0.00045757        0.00072711
     149         -0.205587        1.000000        0.00017054        0.00075599        0.00023165        0.00010657
     150         -0.205023        1.000000        0.00023100        0.00043356        0.00017052        0.00038438
     151         -0.204515        1.000000        0.00007040        0.00061769        0.00031722        0.00007908
     152         -0.203628        1.000000        0.00024423        0.00017396        0.00010693        0.00028136
     153         -0.202296        1.000000        0.00015613        0.00038610        0.00027246        0.00057223
     154         -0.201945        1.000000        0.00007340        0.00019256        0.00013490        0.00040637
     155         -0.201719        1.000000        0.00019690        0.00009876        0.00036014        0.00014491
     156         -0.201037        1.000000        0.00011434        0.00010639        0.00015937        0.00017313
     157         -0.200342        1.000000        0.00019469        0.00040955        0.00010386        0.00016199
     158         -0.199338        1.000000        0.00020628        0.00018748        0.00035452        0.00012577
     159         -0.198120        1.000000        0.00012270        0.00011285        0.00015026        0.00011097
     160         -0.197881        1.000000        0.00023712        0.00014497        0.00014409        0.00026563
     161         -0.196969        1.000000        0.00063485        0.00122448        0.00039358        0.00046678
     162         -0.196420        1.000000        0.00006316        0.00286202        0.00027194        0.00010463
     163         -0.195978        1.000000        0.00019940        0.00043745        0.00039603        0.00036862
     164         -0.195766        1.000000        0.00008074        0.00024709        0.00027086        0.00002833
     165         -0.194940        1.000000        0.00004931        0.00030891        0.00036019        0.00016336
     166         -0.194230        1.000000        0.00003387        0.00013697        0.00006566        0.00019003
     167         -0.193669        1.000000        0.00004691        0.00029684        0.00027299        0.00038853
     168         -0.193260        1.000000        0.00002847        0.00039368        0.00046642        0.00026879
     169         -0.193007        1.000000        0.00003031        0.00003523        0.00013039        0.00004116
     170         -0.192643        1.000000        0.00003824        0.00021587        0.00003063        0.00008559
     171         -0.191575        1.000000        0.00007276        0.00070623        0.00013039        0.00018422
     172         -0.190365        1.000000        0.00029819        0.00040935        0.00081010        0.00016936
     173         -0.189998        1.000000        0.00013936        0.00057315        0.00014887        0.00024015
     174         -0.189711        1.000000        0.00025086        0.00060840        0.00079116        0.00005546
     175         -0.188943        1.000000        0.00001704        0.00039957        0.00014770        0.00008637
     176         -0.188649        1.000000        0.00008386        0.00023319        0.00007331        0.00017745
     177         -0.188060        1.000000        0.00008760        0.00021966        0.00007676        0.00002752
     178         -0.187647        1.000000        0.00006345        0.00038086        0.00005656        0.00007067
     179         -0.187376        1.000000        0.00003600        0.00051797        0.00011625        0.00004507
     180         -0.187074        1.000000        0.00002995        0.00012474        0.00012292        0.00007040
     181         -0.186116        1.000000        0.00002584        0.00003622        0.00003479        0.00001780
     182         -0.185475        1.000000        0.00073454        0.00008584        0.00111271        0.00030634
     183         -0.184652        1.000000        0.00003110        0.00013296        0.00010614        0.00015497
     184         -0.183392        1.000000        0.00013617        0.00007495        0.00003771        0.00026218
     185         -0.183104        1.000000        0.00015406        0.00009990        0.00116753        0.00007081
     186         -0.182342        1.000000        0.00001825        0.00002685        0.00011128        0.00003596
     187         -0.182068        1.000000        0.00010681        0.00020233        0.00059986        0.00003209
     188         -0.181585        1.000000        0.00010353        0.00017973        0.00037478        0.00005637
     189         -0.179810        1.000000        0.00013900        0.00025385        0.00019957        0.00025088
     190         -0.176111        1.000000        0.00037964        0.00051408        0.00011215        0.00052380
     191         -0.174276        1.000000        0.00000375        0.00000559        0.00000464        0.00005830
     192         -0.173452        1.000000        0.00005032        0.00005440        0.00003692        0.00012657
     193         -0.172084        1.000000        0.00001019        0.00000365        0.00002246        0.00001809
     194         -0.171329        1.000000        0.00003216        0.00000571        0.00009718        0.00001718
     195         -0.168816        0.000000        0.00001438        0.00000807        0.00003257        0.00002411
     196         -0.167304        0.000000        0.00001254        0.00002761        0.00004951        0.00000546
     197         -0.164426        0.000000        0.00001349        0.00002607        0.00001084        0.00001664
     198         -0.158483        0.000000        0.00000890        0.00004047        0.00000880        0.00000780
     199         -0.155454        0.000000        0.00001515        0.00003998        0.00000784        0.00003371
     200         -0.155031        0.000000        0.00000833        0.00001756        0.00000642        0.00002031
     201         -0.129174        0.000000        0.00000635        0.00001241        0.00001991        0.00000907
     202         -0.074048        0.000000        0.00007059        0.00009212        0.00002509        0.00015418
     203         -0.073755        0.000000        0.00001666        0.00003157        0.00004228        0.00001707
     204         -0.071854        0.000000        0.00005806        0.00001713        0.00005701        0.00005148
     205         -0.062687        0.000000        0.00007754        0.00000914        0.00014697        0.00016486
     206         -0.055405        0.000000        0.00001874        0.00004199        0.00001676        0.00002615
     207         -0.052774        0.000000        0.00006114        0.00000819        0.00006754        0.00002564
     208         -0.049415        0.000000        0.00001283        0.00009070        0.00003041        0.00007668
     209         -0.045620        0.000000        0.00000945        0.00001612        0.00001451        0.00001676
     210         -0.040740        0.000000        0.00001336        0.00003446        0.00003033        0.00003953
     211         -0.040492        0.000000        0.00004520        0.00008332        0.00001004        0.00003989
     212         -0.038395        0.000000        0.00001468        0.00002649        0.00002552        0.00005394
     213         -0.034583        0.000000        0.00000972        0.00001241        0.00001068        0.00000463
     214         -0.033636        0.000000        0.00003039        0.00001012        0.00006900        0.00011326
     215         -0.030204        0.000000        0.00001278        0.00000116        0.00000707        0.00004904
     216         -0.026360        0.000000        0.00001656        0.00000752        0.00000680        0.00001261
     217         -0.023999        0.000000        0.00005115        0.00002007        0.00009974        0.00002859
     218         -0.022549        0.000000        0.00000443        0.00000721        0.00009460        0.00007628
     219         -0.018004        0.000000        0.00004898        0.00004316        0.00002474        0.00002140
     220         -0.017859        0.000000        0.00003989        0.00003328        0.00002560        0.00004987
     221         -0.017676        0.000000        0.00001251        0.00004307        0.00005223        0.00002877
     222         -0.014839        0.000000        0.00001250        0.00000225        0.00002308        0.00013915
     223         -0.013976        0.000000        0.00000626        0.00000943        0.00005750        0.00004925
     224         -0.011664        0.000000        0.00011673        0.00003976        0.00017366        0.00011467
     225         -0.005075        0.000000        0.00004899        0.00003433        0.00002387        0.00012097
     226          0.088308        0.000000        0.07961113        0.00360547        0.00193303        0.55009057
     227          0.098888        0.000000        0.07875540        0.01040991        0.12001672        0.42801405
     228          0.102781        0.000000        0.07880177        0.00357826        0.00547522        0.54033574
     229          0.103763        0.000000        0.07867617        0.00017064        0.16178747        0.39199582
     230          0.103953        0.000000        0.08150398        0.00294234        0.01011149        0.53382847
     231          0.109000        0.000000        0.07916467        0.00249718        0.24597167        0.30406997
     232          0.115317        0.000000        0.08111284        0.03722440        0.15673297        0.35521528
     233          0.283729        0.000000        0.00014437        0.00544710        0.00000702        0.00006969
     234          0.284820        0.000000        0.00000040        0.00005047        0.00588540        0.00000446
     235          0.286039        0.000000        0.00000771        0.00544851        0.00059221        0.00006029
     236          0.290041        0.000000        0.00003689        0.00438189        0.00065666        0.00001987
     237          0.293168        0.000000        0.00003131        0.00044909        0.00329517        0.00179632
     238          0.294704        0.000000        0.00009338        0.00407323        0.00157830        0.00054791
     239          0.295023        0.000000        0.00002159        0.00209548        0.00251050        0.00125322
     240          0.295167        0.000000        0.00005502        0.00516315        0.00085683        0.00008480
     241          0.296596        0.000000        0.00015020        0.00075482        0.00218426        0.00275712
     242          0.298059        0.000000        0.00004154        0.00028040        0.00758615        0.00004223
     243          0.300357        0.000000        0.00000042        0.00541067        0.00063620        0.00017614
     244          0.301918        0.000000        0.00034978        0.00174922        0.00563168        0.00000051
     245          0.307554        0.000000        0.00000063        0.00313052        0.00155415        0.00176970
     246          0.311192        0.000000        0.00000248        0.00333117        0.00336171        0.00049128
     247          0.316562        0.000000        0.00473066        0.00013061        0.00000220        0.00002175
     248          0.327639        0.000000        0.00456702        0.00018109        0.00003903        0.00003366
     249          0.336288        0.000000        0.00533353        0.00001847        0.00007026        0.00029719
     250          0.337493        0.000000        0.00507030        0.00008503        0.00019061        0.00022350
     251          0.337676        0.000000        0.00497230        0.00000856        0.00019716        0.00006725
     252          0.344756        0.000000        0.00488668        0.00088328        0.00011159        0.00009341
     253          0.349264        0.000000        0.00523021        0.00000363        0.00001512        0.00009163
     254          0.454596        0.000000        0.00004771        0.08918983        0.30029835        0.00294049
     255          0.459542        0.000000        0.00002121        0.30254031        0.09068466        0.00096715
     256          0.462974        0.000000        0.00009261        0.36685497        0.02369050        0.00279569
     257          0.464494        0.000000        0.00012649        0.01350398        0.37783459        0.00129988
     258          0.466161        0.000000        0.00003689        0.38249655        0.00791177        0.00340785
     259          0.467274        0.000000        0.00061902        0.01857483        0.36262151        0.00980527