# Projected DOS for atomic kind Pb at iteration step i = 0, E(Fermi) =    -0.172077 a.u.
#     MO Eigenvalue [a.u.]      Occupation                 s                py                pz                px
       1         -0.952918        1.000000        0.00000006        0.00000013        0.00000074        0.00000009
       2         -0.945306        1.000000        0.00000041        0.00000303        0.00000698        0.00000353
       3         -0.942427        1.000000        0.00000021        0.00000088        0.00000128        0.00000056
       4         -0.940424        1.000000        0.00000063        0.00000725        0.00000575        0.00000603
       5         -0.936657        1.000000        0.00000063        0.00000659        0.00000722        0.00000364
       6         -0.936357        1.000000        0.00000047        0.00000255        0.00000351        0.00000487
       7         -0.926083        1.000000        0.00000116        0.00001520        0.00001021        0.00000968
       8         -0.693813        1.000000        0.00000321        0.00000211        0.00000538        0.00000016
       9         -0.690003        1.000000        0.00001608        0.00001377        0.00001450        0.00000797
      10         -0.684866        1.000000        0.00003327        0.00002295        0.00003226        0.00001149
      11         -0.683701        1.000000        0.00002430        0.00002991        0.00003801        0.00002333
      12         -0.683459        1.000000        0.00008481        0.00008381        0.00004665        0.00006171
      13         -0.680384        1.000000        0.00004101        0.00003748        0.00005461        0.00003597
      14         -0.671849        1.000000        0.00006852        0.00005107        0.00004000        0.00001953
      15         -0.640367        1.000000        0.00171104        0.00027921        0.00206615        0.00047821
      16         -0.631081        1.000000        0.01278589        0.00034484        0.00628118        0.00080888
      17         -0.622812        1.000000        0.02272308        0.00745957        0.00040805        0.00843863
      18         -0.619688        1.000000        0.00153519        0.00563976        0.00005270        0.00010567
      19         -0.615428        1.000000        0.03865276        0.01114822        0.00069643        0.00074582
      20         -0.603536        1.000000        0.04518512        0.00223430        0.00334446        0.00843519
      21         -0.597807        1.000000        0.11713241        0.00803152        0.00042034        0.00131442
      22         -0.594685        1.000000        0.10253973        0.00345312        0.00127103        0.01323507
      23         -0.594373        1.000000        0.09324197        0.00373913        0.00133771        0.00995125
      24         -0.593210        1.000000        0.07970806        0.00446819        0.00170141        0.01254812
      25         -0.591257        1.000000        0.02289669        0.01175935        0.00085723        0.00408550
      26         -0.588248        1.000000        0.02391127        0.00511943        0.00479909        0.00380355
      27         -0.587614        1.000000        0.06005274        0.00485730        0.00297473        0.00286158
      28         -0.586131        1.000000        0.04343540        0.00478101        0.00130142        0.01296410
      29         -0.583927        1.000000        0.03158783        0.02147230        0.00091570        0.00326087
      30         -0.583168        1.000000        0.00555398        0.00144912        0.00398679        0.00326835
      31         -0.582586        1.000000        0.02692438        0.00698853        0.00702760        0.00725181
      32         -0.582336        1.000000        0.00870024        0.00641065        0.00154592        0.00151018
      33         -0.580369        1.000000        0.02184126        0.00362447        0.02485947        0.00489571
      34         -0.580076        1.000000        0.01762716        0.00534947        0.02522761        0.00347812
      35         -0.578440        1.000000        0.01304652        0.00833603        0.00395211        0.00213825
      36         -0.577987        1.000000        0.02851587        0.00765735        0.00882634        0.00919211
      37         -0.577675        1.000000        0.00514125        0.00571313        0.00199920        0.00156887
      38         -0.576143        1.000000        0.00922321        0.00539918        0.01525985        0.00550539
      39         -0.575209        1.000000        0.02824620        0.00561012        0.02280706        0.00372667
      40         -0.574827        1.000000        0.00386332        0.01902758        0.01174999        0.00446383
      41         -0.574316        1.000000        0.01454322        0.00253581        0.01790275        0.00352798
      42         -0.573214        1.000000        0.00214200        0.00650724        0.00149349        0.01201910
      43         -0.572806        1.000000        0.00023914        0.01474473        0.02573941        0.00646973
      44         -0.571373        1.000000        0.00212004        0.01825725        0.00525663        0.00358180
      45         -0.570790        1.000000        0.07724102        0.00681240        0.01160700        0.00278372
      46         -0.570480        1.000000        0.01063536        0.00177024        0.01091753        0.00250236
      47         -0.569812        1.000000        0.04258788        0.00606983        0.01622472        0.00303503
      48         -0.568011        1.000000        0.00108902        0.00075970        0.00125239        0.00081952
      49         -0.566927        1.000000        0.01381450        0.00061262        0.01223913        0.02558359
      50         -0.564172        1.000000        0.00081374        0.00280111        0.00158077        0.00672063
      51         -0.562723        1.000000        0.00594530        0.00154349        0.00231403        0.00017516
      52         -0.561038        1.000000        0.00377313        0.02034621        0.01624715        0.00036929
      53         -0.560386        1.000000        0.00637612        0.00984261        0.00558493        0.00038864
      54         -0.559965        1.000000        0.00713036        0.00700931        0.00191040        0.00046424
      55         -0.559374        1.000000        0.00089805        0.00226799        0.00258884        0.00130960
      56         -0.557587        1.000000        0.00492787        0.00024454        0.00170251        0.00570232
      57         -0.556621        1.000000        0.00091837        0.00731170        0.00443554        0.00089731
      58         -0.554431        1.000000        0.02719977        0.02344945        0.00197878        0.00045160
      59         -0.551156        1.000000        0.02611238        0.00290370        0.00061429        0.00062518
      60         -0.545922        1.000000        0.00288503        0.00096923        0.00644858        0.00021357
      61         -0.544889        1.000000        0.01168582        0.00239074        0.00396932        0.00694547
      62         -0.541933        1.000000        0.00195974        0.00011898        0.01353881        0.00449449
      63         -0.538446        1.000000        0.00038708        0.00448312        0.00137124        0.00016501
      64         -0.538039        1.000000        0.00902801        0.00115004        0.00759868        0.00016698
      65         -0.473953        1.000000        0.00277359        0.00002435        0.00010052        0.00001030
      66         -0.469955        1.000000        0.01218953        0.00005717        0.00009673        0.00004526
      67         -0.465112        1.000000        0.57272548        0.00008343        0.00180267        0.00013327
      68         -0.464752        1.000000        0.15884264        0.00005416        0.00030734        0.00004293
      69         -0.464189        1.000000        0.06744907        0.00017714        0.00009926        0.00003208
      70         -0.463813        1.000000        0.01177792        0.00003903        0.00003175        0.00003196
      71         -0.461699        1.000000        0.32166625        0.00041691        0.00028724        0.00024814
      72         -0.460867        1.000000        0.58798194        0.00093474        0.00052107        0.00063206
      73         -0.459448        1.000000        0.39458262        0.00045650        0.00022389        0.00033176
      74         -0.458486        1.000000        0.73877965        0.00001645        0.00118038        0.00013667
      75         -0.454241        1.000000        0.59669868        0.00094396        0.00052063        0.00069177
      76         -0.451607        1.000000        0.11035263        0.00013023        0.00015143        0.00023491
      77         -0.450242        1.000000        0.71491440        0.00166218        0.00098091        0.00072195
      78         -0.443153        1.000000        0.70988938        0.00044364        0.00039099        0.00043925
      79         -0.439584        1.000000        0.75001852        0.00047893        0.00022736        0.00078624
      80         -0.410742        1.000000        0.00053680        0.00000285        0.00008006        0.00000615
      81         -0.409901        1.000000        0.00005534        0.00001038        0.00000932        0.00000219
      82         -0.407698        1.000000        0.00071148        0.00007864        0.00001394        0.00009557
      83         -0.406292        1.000000        0.00117628        0.00004863        0.00007392        0.00010756
      84         -0.402421        1.000000        0.00034155        0.00015394        0.00024528        0.00004022
      85         -0.401821        1.000000        0.00026968        0.00008715        0.00015065        0.00001446
      86         -0.400759        1.000000        0.00013078        0.00004380        0.00008747        0.00004830
      87         -0.400112        1.000000        0.00040724        0.00020336        0.00004296        0.00009551
      88         -0.398917        1.000000        0.00093859        0.00043093        0.00028208        0.00020641
      89         -0.398313        1.000000        0.00046307        0.00015802        0.00015775        0.00008800
      90         -0.398197        1.000000        0.00055389        0.00013311        0.00012444        0.00014203
      91         -0.395468        1.000000        0.00087966        0.00005569        0.00027793        0.00026587
      92         -0.390100        1.000000        0.00006614        0.00001286        0.00003578        0.00001045
      93         -0.386859        1.000000        0.00017288        0.00005442        0.00014315        0.00003536
      94         -0.323843        1.000000        0.00592823        0.00689486        0.00791647        0.00204554
      95         -0.315921        1.000000        0.00416386        0.02314877        0.05187565        0.01789477
      96         -0.305522        1.000000        0.00104078        0.00851623        0.00863569        0.00270674
      97         -0.303267        1.000000        0.00924365        0.05931205        0.00820227        0.01636079
      98         -0.299335        1.000000        0.00541932        0.10440027        0.00525745        0.02770733
      99         -0.276640        1.000000        0.00605917        0.08814560        0.08215172        0.03581407
     100         -0.273909        1.000000        0.00407521        0.11970768        0.04891379        0.02736707
     101         -0.273376        1.000000        0.00563553        0.05305345        0.03723495        0.02851002
     102         -0.269729        1.000000        0.00231925        0.07170089        0.08783693        0.08277930
     103         -0.268748        1.000000        0.00217738        0.08672586        0.06744608        0.01987535
     104         -0.266654        1.000000        0.00428025        0.05638059        0.09946888        0.05157119
     105         -0.265242        1.000000        0.00220555        0.04584975        0.02646987        0.10669952
     106         -0.264939        1.000000        0.00092682        0.01681104        0.04321056        0.18489561
     107         -0.263329        1.000000        0.00130100        0.06393251        0.08425228        0.07113125
     108         -0.260755        1.000000        0.00116056        0.02495167        0.13451052        0.04052039
     109         -0.257656        1.000000        0.00191745        0.06720225        0.07691503        0.05352760
     110         -0.256438        1.000000        0.00043973        0.12262976        0.04165084        0.06719854
     111         -0.256062        1.000000        0.00056024        0.06610851        0.09970037        0.04731210
     112         -0.254499        1.000000        0.00023545        0.03909382        0.09874516        0.05243652
     113         -0.253895        1.000000        0.00171522        0.05836526        0.06896978        0.05431546
     114         -0.252564        1.000000        0.00084394        0.04410912        0.01960055        0.01446576
     115         -0.251026        1.000000        0.00132391        0.03292431        0.12097213        0.03904982
     116         -0.247308        1.000000        0.00417933        0.03799380        0.10021360        0.02205748
     117         -0.245709        1.000000        0.00834717        0.03563091        0.03205288        0.03507128
     118         -0.244702        1.000000        0.00093695        0.04947665        0.06191541        0.04765799
     119         -0.244475        1.000000        0.00285751        0.05713698        0.02354347        0.07729849
     120         -0.243351        1.000000        0.00779763        0.05883192        0.04944867        0.10298204
     121         -0.240288        1.000000        0.00462951        0.05352509        0.07141476        0.02667567
     122         -0.239086        1.000000        0.00068313        0.01026203        0.02660082        0.00887151
     123         -0.237191        1.000000        0.00434982        0.03504706        0.01135370        0.05267903
     124         -0.236270        1.000000        0.00736208        0.04302668        0.02348244        0.06181207
     125         -0.235699        1.000000        0.00071160        0.05107310        0.04062841        0.01397705
     126         -0.234113        1.000000        0.00514372        0.03395107        0.03653266        0.05990676
     127         -0.233479        1.000000        0.00278405        0.02696525        0.02846926        0.07904585
     128         -0.232405        1.000000        0.00688760        0.01349334        0.05233669        0.02066822
     129         -0.229411        1.000000        0.00279128        0.01536952        0.00402922        0.01310544
     130         -0.227763        1.000000        0.00619058        0.03354544        0.01682552        0.03148442
     131         -0.225413        1.000000        0.00676440        0.01711963        0.01410952        0.01541359
     132         -0.224052        1.000000        0.00381534        0.00929557        0.00546847        0.00631665
     133         -0.222361        1.000000        0.00616940        0.00712112        0.03678422        0.01912030
     134         -0.220691        1.000000        0.01186354        0.02372456        0.00443876        0.02592735
     135         -0.219020        1.000000        0.01156252        0.01994980        0.00751326        0.01582252
     136         -0.218327        1.000000        0.00550026        0.01170539        0.01405192        0.01072757
     137         -0.216233        1.000000        0.00930641        0.01775870        0.00970705        0.01527317
     138         -0.215483        1.000000        0.00862404        0.01697299        0.01753237        0.00552380
     139         -0.214606        1.000000        0.00316387        0.00401071        0.00622849        0.00325264
     140         -0.214369        1.000000        0.00198406        0.00230960        0.00380206        0.00408610
     141         -0.213409        1.000000        0.01042820        0.01397474        0.01519907        0.00729689
     142         -0.211776        1.000000        0.00185141        0.00486613        0.00131919        0.00443002
     143         -0.211151        1.000000        0.00271698        0.00689337        0.00285081        0.00407114
     144         -0.210146        1.000000        0.00551273        0.00550669        0.00688390        0.00514744
     145         -0.208580        1.000000        0.00559791        0.01141026        0.00432363        0.00329445
     146         -0.208428        1.000000        0.01423364        0.00657231        0.00555103        0.01195761
     147         -0.207772        1.000000        0.00177029        0.00424073        0.00119208        0.00610139
     148         -0.207417        1.000000        0.00376249        0.00433050        0.00190795        0.00252003
     149         -0.205794        1.000000        0.00308759        0.00203302        0.00273802        0.00722700
     150         -0.205456        1.000000        0.00774847        0.00575398        0.00367103        0.00554587
     151         -0.205045        1.000000        0.00365143        0.00401692        0.00208367        0.00954171
     152         -0.203876        1.000000        0.00652457        0.00785177        0.00351486        0.00751185
     153         -0.203271        1.000000        0.01317583        0.00914702        0.00783048        0.02021372
     154         -0.202406        1.000000        0.00719849        0.00180657        0.00203882        0.00381212
     155         -0.201918        1.000000        0.00294439        0.00231565        0.00302783        0.00612712
     156         -0.201169        1.000000        0.01116115        0.01022773        0.00431274        0.01399328
     157         -0.200653        1.000000        0.00515714        0.00475787        0.00307438        0.00221406
     158         -0.199566        1.000000        0.01059595        0.00477251        0.00225706        0.01245072
     159         -0.198541        1.000000        0.00776516        0.00253714        0.00266343        0.00757189
     160         -0.197965        1.000000        0.00210219        0.00189684        0.00160498        0.00278370
     161         -0.197009        1.000000        0.00328042        0.00277851        0.00102086        0.00487346
     162         -0.196589        1.000000        0.01035971        0.00175555        0.00228373        0.00360630
     163         -0.196293        1.000000        0.00426642        0.00087722        0.00114770        0.00586505
     164         -0.195928        1.000000        0.00787716        0.00235176        0.00180644        0.00588677
     165         -0.195080        1.000000        0.00132338        0.00094980        0.00069377        0.00227563
     166         -0.194735        1.000000        0.00758656        0.00252960        0.00165468        0.00509323
     167         -0.193768        1.000000        0.00935332        0.00379078        0.00272715        0.00220586
     168         -0.193492        1.000000        0.01103012        0.00064069        0.00265986        0.00309668
     169         -0.193362        1.000000        0.00332433        0.00043110        0.00093706        0.00054115
     170         -0.192850        1.000000        0.00781491        0.00151773        0.00277482        0.00194650
     171         -0.191806        1.000000        0.00472881        0.00189686        0.00267385        0.00169587
     172         -0.191160        1.000000        0.00173266        0.00259786        0.00040150        0.00673773
     173         -0.190214        1.000000        0.00303086        0.00505159        0.00229801        0.00557298
     174         -0.190079        1.000000        0.00441975        0.00151568        0.00064202        0.00317533
     175         -0.189442        1.000000        0.00282318        0.00081101        0.00241903        0.00349878
     176         -0.188828        1.000000        0.00721602        0.00207387        0.00119806        0.00401981
     177         -0.188175        1.000000        0.00397425        0.00126515        0.00066461        0.00212639
     178         -0.187748        1.000000        0.00584301        0.00238555        0.00143731        0.00473344
     179         -0.187689        1.000000        0.00312082        0.00088006        0.00084536        0.00173440
     180         -0.187342        1.000000        0.00284098        0.00151118        0.00036306        0.00017206
     181         -0.186848        1.000000        0.00661665        0.00236531        0.00264011        0.00302324
     182         -0.186470        1.000000        0.00480587        0.00109630        0.00131843        0.00412235
     183         -0.186117        1.000000        0.00222814        0.00056766        0.00124922        0.00082692
     184         -0.184686        1.000000        0.00090546        0.00092740        0.00033097        0.00090967
     185         -0.184078        1.000000        0.00634809        0.00214722        0.00054596        0.00685405
     186         -0.183198        1.000000        0.01706491        0.00273631        0.00280226        0.00299469
     187         -0.182472        1.000000        0.01293056        0.00215796        0.00088006        0.00351094
     188         -0.182396        1.000000        0.00103679        0.00015657        0.00024035        0.00211890
     189         -0.181912        1.000000        0.01373384        0.00319631        0.00078209        0.00656999
     190         -0.178394        1.000000        0.00087092        0.00081852        0.00011437        0.00010972
     191         -0.176336        1.000000        0.04345299        0.00824148        0.00149178        0.00398200
     192         -0.174275        1.000000        0.00147051        0.00055925        0.00017868        0.00049781
     193         -0.174208        1.000000        0.00223345        0.00009866        0.00130105        0.00003508
     194         -0.172599        1.000000        0.07696035        0.01010811        0.00233076        0.00421858
     195         -0.172077        1.000000        0.08731254        0.01027803        0.00356815        0.00592410
     196         -0.168826        0.000000        0.11760049        0.00367226        0.00336731        0.00339002
     197         -0.167272        0.000000        0.05114088        0.00077143        0.00194983        0.00954467
     198         -0.160679        0.000000        0.09031472        0.00141154        0.00074492        0.00449232
     199         -0.155514        0.000000        0.00862513        0.01483015        0.00710128        0.00992703
     200         -0.155092        0.000000        0.05812037        0.00515173        0.00123528        0.00140330
     201         -0.129184        0.000000        0.00008409        0.00015179        0.00006801        0.00012984
     202         -0.074147        0.000000        0.00598484        0.14728393        0.09365344        0.49120865
     203         -0.073773        0.000000        0.00019161        0.06026088        0.01009323        0.66431605
     204         -0.072841        0.000000        0.00131010        0.06575736        0.09509042        0.61211900
     205         -0.062706        0.000000        0.00617019        0.21736271        0.13794219        0.36022343
     206         -0.055850        0.000000        0.01185798        0.15023233        0.08622348        0.47416705
     207         -0.052998        0.000000        0.00481850        0.06007512        0.03908350        0.59685252
     208         -0.049522        0.000000        0.00190807        0.38580387        0.05098388        0.26947995
     209         -0.046686        0.000000        0.00426578        0.16721206        0.14659293        0.38848119
     210         -0.040753        0.000000        0.00287013        0.55171839        0.08043411        0.05211197
     211         -0.040501        0.000000        0.00467212        0.11548554        0.55313805        0.01820828
     212         -0.038560        0.000000        0.00533144        0.09548522        0.29097373        0.29818565
     213         -0.034739        0.000000        0.00317122        0.10466416        0.46100225        0.11720788
     214         -0.033647        0.000000        0.00158286        0.22298981        0.42953026        0.02597778
     215         -0.030607        0.000000        0.00523135        0.28605827        0.33938489        0.06288236
     216         -0.026412        0.000000        0.00064796        0.28265827        0.15841406        0.23808866
     217         -0.024009        0.000000        0.00221319        0.05266641        0.59242288        0.01937138
     218         -0.022598        0.000000        0.00130956        0.39604578        0.19647729        0.09148483
     219         -0.020635        0.000000        0.00209658        0.54063262        0.12595810        0.02519100
     220         -0.017987        0.000000        0.00040498        0.24650372        0.09182242        0.33953798
     221         -0.017747        0.000000        0.00031534        0.20336770        0.10541872        0.36777986
     222         -0.014872        0.000000        0.00023887        0.08655857        0.55221949        0.04478616
     223         -0.014478        0.000000        0.00069048        0.42354693        0.23365279        0.02433234
     224         -0.011896        0.000000        0.00030107        0.56379213        0.02777324        0.07349203
     225         -0.008742        0.000000        0.00014524        0.07828178        0.59806638        0.01112092
     226          0.088305        0.000000        0.00000080        0.00003718        0.00007439        0.00001593
     227          0.098884        0.000000        0.00000187        0.00020538        0.00005951        0.00001347
     228          0.102781        0.000000        0.00000975        0.00015951        0.00003945        0.00005420
     229          0.103763        0.000000        0.00000449        0.00051361        0.00015731        0.00007656
     230          0.103953        0.000000        0.00000047        0.00007421        0.00003272        0.00001421
     231          0.108999        0.000000        0.00000657        0.00008514        0.00007090        0.00017496
     232          0.115317        0.000000        0.00000097        0.00005879        0.00008930        0.00001735
     233          0.283665        0.000000        0.00001483        0.00012114        0.00030542        0.00000311
     234          0.284817        0.000000        0.00000555        0.00009384        0.00004503        0.00000607
     235          0.286037        0.000000        0.00000636        0.00005489        0.00022976        0.00000890
     236          0.290040        0.000000        0.00000524        0.00003235        0.00001931        0.00000052
     237          0.293168        0.000000        0.00000089        0.00004247        0.00005111        0.00012508
     238          0.294703        0.000000        0.00001262        0.00033488        0.00005129        0.00002905
     239          0.295023        0.000000        0.00000689        0.00014885        0.00007207        0.00002152
     240          0.295166        0.000000        0.00000587        0.00006824        0.00015472        0.00006518
     241          0.296596        0.000000        0.00000548        0.00006952        0.00002837        0.00006186
     242          0.298058        0.000000        0.00003577        0.00020099        0.00007194        0.00006972
     243          0.300357        0.000000        0.00000374        0.00007607        0.00002792        0.00013715
     244          0.301917        0.000000        0.00000368        0.00002138        0.00003315        0.00003638
     245          0.307552        0.000000        0.00000177        0.00003519        0.00007173        0.00003622
     246          0.311189        0.000000        0.00000312        0.00003424        0.00003257        0.00002232
     247          0.316485        0.000000        0.00001875        0.00012626        0.00030226        0.00001434
     248          0.327639        0.000000        0.00000364        0.00008537        0.00001153        0.00001169
     249          0.336288        0.000000        0.00002402        0.00016414        0.00013332        0.00016837
     250          0.337491        0.000000        0.00002242        0.00008405        0.00012484        0.00005756
     251          0.337676        0.000000        0.00000511        0.00003663        0.00002433        0.00025660
     252          0.344754        0.000000        0.00000985        0.00008281        0.00007184        0.00004024
     253          0.349259        0.000000        0.00000434        0.00003328        0.00010366        0.00002476
     254          0.454596        0.000000        0.00000021        0.00000283        0.00000117        0.00000035
     255          0.459539        0.000000        0.00000057        0.00000591        0.00001179        0.00000090
     256          0.462974        0.000000        0.00000043        0.00000681        0.00001218        0.00000472
     257          0.464494        0.000000        0.00000471        0.00000585        0.00001051        0.00003326
     258          0.466160        0.000000        0.00000210        0.00000826        0.00000899        0.00001171
     259          0.467274        0.000000        0.00000051        0.00000845        0.00008809        0.00001778