# Projected DOS for atomic kind C at iteration step i = 0, E(Fermi) =    -0.172077 a.u.
#     MO Eigenvalue [a.u.]      Occupation                 s                py                pz                px
       1         -0.952918        1.000000        0.05885710        0.00031021        0.00014617        0.04303116
       2         -0.945306        1.000000        0.05737528        0.00092149        0.00917148        0.03311319
       3         -0.942427        1.000000        0.06245965        0.00029085        0.00017734        0.04383092
       4         -0.940424        1.000000        0.05893696        0.00000357        0.01301829        0.03034152
       5         -0.936657        1.000000        0.06208634        0.00023396        0.00090291        0.04295997
       6         -0.936357        1.000000        0.06020781        0.00021120        0.02000967        0.02369991
       7         -0.926083        1.000000        0.06109417        0.00309075        0.01254452        0.02831780
       8         -0.693813        1.000000        0.44282401        0.00002473        0.00001860        0.00105965
       9         -0.690003        1.000000        0.43787887        0.00004029        0.00000616        0.00180370
      10         -0.684866        1.000000        0.44033148        0.00003877        0.00000307        0.00167488
      11         -0.683701        1.000000        0.44160374        0.00000016        0.00003187        0.00077362
      12         -0.683459        1.000000        0.43989226        0.00001725        0.00035220        0.00069063
      13         -0.680384        1.000000        0.43911575        0.00001579        0.00035861        0.00093551
      14         -0.671849        1.000000        0.44111315        0.00008113        0.00064148        0.00083128
      15         -0.640367        1.000000        0.00080239        0.00072648        0.00004664        0.00003968
      16         -0.631081        1.000000        0.00003193        0.00034239        0.00002140        0.00003794
      17         -0.622812        1.000000        0.00005010        0.00003075        0.00032985        0.00002401
      18         -0.619688        1.000000        0.00016731        0.00004434        0.00065735        0.00007825
      19         -0.615428        1.000000        0.00019418        0.00004989        0.00084692        0.00008537
      20         -0.603536        1.000000        0.00017164        0.00200365        0.00183376        0.00028959
      21         -0.597807        1.000000        0.00012239        0.00105844        0.00210772        0.00082256
      22         -0.594685        1.000000        0.00024931        0.00256530        0.00153559        0.00014463
      23         -0.594373        1.000000        0.00029000        0.00045375        0.00069352        0.00017016
      24         -0.593210        1.000000        0.00022673        0.00144684        0.00081739        0.00010482
      25         -0.591257        1.000000        0.00003284        0.00094303        0.00589096        0.00240940
      26         -0.588248        1.000000        0.00004980        0.01183734        0.00239547        0.00014416
      27         -0.587614        1.000000        0.00016840        0.00627030        0.00063901        0.00027333
      28         -0.586131        1.000000        0.00034299        0.00605474        0.00173445        0.00042124
      29         -0.583927        1.000000        0.00061325        0.00040588        0.00110643        0.00018415
      30         -0.583168        1.000000        0.00015460        0.00167700        0.00578605        0.00019338
      31         -0.582586        1.000000        0.00026925        0.00676001        0.00296061        0.00075692
      32         -0.582336        1.000000        0.00028798        0.00329935        0.00074193        0.00011483
      33         -0.580369        1.000000        0.00015766        0.00186501        0.00242436        0.00054111
      34         -0.580076        1.000000        0.00017112        0.00283891        0.00224380        0.00068609
      35         -0.578440        1.000000        0.00010452        0.00494016        0.00414994        0.00012987
      36         -0.577987        1.000000        0.00018912        0.00333075        0.00962083        0.00101169
      37         -0.577675        1.000000        0.00005114        0.00113206        0.03551386        0.00042029
      38         -0.576143        1.000000        0.00045525        0.00714653        0.00248208        0.00047080
      39         -0.575209        1.000000        0.00011538        0.00354758        0.00173075        0.00036380
      40         -0.574827        1.000000        0.00028672        0.00099613        0.00512378        0.00086360
      41         -0.574316        1.000000        0.00008283        0.00334995        0.00368027        0.00118410
      42         -0.573214        1.000000        0.00020531        0.00354971        0.01347441        0.00373339
      43         -0.572806        1.000000        0.00007542        0.00121253        0.00033734        0.00040187
      44         -0.571373        1.000000        0.00000763        0.00020638        0.00006300        0.00001042
      45         -0.570790        1.000000        0.00019520        0.00384753        0.00341943        0.00053708
      46         -0.570480        1.000000        0.00005024        0.01135472        0.00984972        0.00346318
      47         -0.569812        1.000000        0.00003795        0.00579488        0.00330753        0.00019946
      48         -0.568011        1.000000        0.00001719        0.04364110        0.00619083        0.00007595
      49         -0.566927        1.000000        0.00014803        0.00093251        0.00733781        0.00050943
      50         -0.564172        1.000000        0.00010384        0.00302549        0.04230003        0.00059509
      51         -0.562723        1.000000        0.00000711        0.00814103        0.03053117        0.01303703
      52         -0.561038        1.000000        0.00005624        0.00552117        0.00670319        0.00076915
      53         -0.560386        1.000000        0.00017032        0.01790948        0.00996162        0.00248576
      54         -0.559965        1.000000        0.00014342        0.03060358        0.01234156        0.00214082
      55         -0.559374        1.000000        0.00011476        0.00128039        0.00299127        0.00094559
      56         -0.557587        1.000000        0.00042452        0.01123833        0.02618708        0.01320229
      57         -0.556621        1.000000        0.00050247        0.02886096        0.00256755        0.00176606
      58         -0.554431        1.000000        0.00026735        0.00261328        0.01054361        0.00211997
      59         -0.551156        1.000000        0.00037375        0.03325692        0.02013473        0.00293288
      60         -0.545922        1.000000        0.00018217        0.00058900        0.03452955        0.01795962
      61         -0.544889        1.000000        0.00038411        0.04003303        0.00499100        0.00346167
      62         -0.541933        1.000000        0.00051700        0.03593686        0.00168936        0.00311186
      63         -0.538446        1.000000        0.00018370        0.04274131        0.01359503        0.00176255
      64         -0.538039        1.000000        0.00005313        0.05037051        0.00005469        0.00378598
      65         -0.473953        1.000000        0.02527342        0.00408148        0.00191327        0.33516003
      66         -0.469955        1.000000        0.02227151        0.00272234        0.00233615        0.33478465
      67         -0.465112        1.000000        0.00461451        0.00063571        0.00117957        0.07104346
      68         -0.464752        1.000000        0.01756124        0.00283452        0.00490612        0.26251337
      69         -0.464189        1.000000        0.02299801        0.00064120        0.09031088        0.21875798
      70         -0.463813        1.000000        0.02653868        0.00427111        0.06597172        0.26428325
      71         -0.461699        1.000000        0.01303492        0.00021316        0.07473297        0.10805056
      72         -0.460867        1.000000        0.00301085        0.00048099        0.01803591        0.02393235
      73         -0.459448        1.000000        0.01024985        0.00201816        0.06321294        0.08093813
      74         -0.458486        1.000000        0.00061393        0.00048961        0.00137889        0.00670440
      75         -0.454241        1.000000        0.00363317        0.00221137        0.01431557        0.03619255
      76         -0.451607        1.000000        0.01940696        0.02268238        0.08797489        0.17903980
      77         -0.450242        1.000000        0.00015289        0.00070143        0.00090988        0.00214676
      78         -0.443153        1.000000        0.00036788        0.00152358        0.00216151        0.00632774
      79         -0.439584        1.000000        0.00017916        0.00046172        0.00102373        0.00119687
      80         -0.410742        1.000000        0.00000074        0.52540153        0.00174534        0.00456162
      81         -0.409901        1.000000        0.00001588        0.00170196        0.53658108        0.00245371
      82         -0.407698        1.000000        0.00000632        0.00477699        0.51812608        0.00242717
      83         -0.406292        1.000000        0.00000767        0.50982545        0.00345139        0.00376011
      84         -0.402421        1.000000        0.00003545        0.02707738        0.48514654        0.01130072
      85         -0.401821        1.000000        0.00000473        0.51703353        0.01857775        0.00168551
      86         -0.400759        1.000000        0.00003622        0.41972931        0.08097676        0.02800644
      87         -0.400112        1.000000        0.00001446        0.07703196        0.32688289        0.12983743
      88         -0.398917        1.000000        0.00000630        0.51463986        0.00654839        0.00343875
      89         -0.398313        1.000000        0.00005857        0.01489759        0.38530934        0.13675006
      90         -0.398197        1.000000        0.00004124        0.02971409        0.30890545        0.19432173
      91         -0.395468        1.000000        0.00000344        0.49987652        0.00701249        0.02126198
      92         -0.390100        1.000000        0.00002533        0.12625471        0.33275325        0.07341609
      93         -0.386859        1.000000        0.00000812        0.36576416        0.04466013        0.12109063
      94         -0.323843        1.000000        0.00001582        0.00024873        0.00011604        0.00012573
      95         -0.315921        1.000000        0.00001091        0.00005433        0.00010308        0.00001783
      96         -0.305522        1.000000        0.00003968        0.00005391        0.00035588        0.00005423
      97         -0.303267        1.000000        0.00001571        0.00009343        0.00006385        0.00003912
      98         -0.299335        1.000000        0.00004158        0.00014333        0.00009840        0.00006495
      99         -0.276640        1.000000        0.00005101        0.00006899        0.00027808        0.00031576
     100         -0.273909        1.000000        0.00006520        0.00014152        0.00018785        0.00037379
     101         -0.273376        1.000000        0.00013753        0.00059821        0.00010812        0.00134734
     102         -0.269729        1.000000        0.00010179        0.00023922        0.00007450        0.00012220
     103         -0.268748        1.000000        0.00023200        0.00041942        0.00032018        0.00042397
     104         -0.266654        1.000000        0.00013791        0.00057261        0.00008665        0.00011814
     105         -0.265242        1.000000        0.00009409        0.00022755        0.00020877        0.00020205
     106         -0.264939        1.000000        0.00018831        0.00019693        0.00045510        0.00027398
     107         -0.263329        1.000000        0.00036482        0.00052139        0.00041310        0.00015659
     108         -0.260755        1.000000        0.00009142        0.00037911        0.00009299        0.00023337
     109         -0.257656        1.000000        0.00012440        0.00027015        0.00009612        0.00009706
     110         -0.256438        1.000000        0.00015672        0.00024973        0.00029619        0.00017381
     111         -0.256062        1.000000        0.00020106        0.00046351        0.00013896        0.00020413
     112         -0.254499        1.000000        0.00022827        0.00085175        0.00020532        0.00019871
     113         -0.253895        1.000000        0.00008352        0.00064335        0.00017181        0.00014724
     114         -0.252564        1.000000        0.00041360        0.00032418        0.00075724        0.00066590
     115         -0.251026        1.000000        0.00002504        0.00006605        0.00004685        0.00019775
     116         -0.247308        1.000000        0.00020796        0.00024160        0.00013751        0.00019707
     117         -0.245709        1.000000        0.00022644        0.00037046        0.00049788        0.00032250
     118         -0.244702        1.000000        0.00014666        0.00038371        0.00011972        0.00028293
     119         -0.244475        1.000000        0.00030693        0.00014692        0.00018505        0.00011929
     120         -0.243351        1.000000        0.00007858        0.00034847        0.00027973        0.00018558
     121         -0.240288        1.000000        0.00023929        0.00017885        0.00023962        0.00039328
     122         -0.239086        1.000000        0.00015737        0.00036934        0.00030169        0.00044100
     123         -0.237191        1.000000        0.00029728        0.00041308        0.00063328        0.00014378
     124         -0.236270        1.000000        0.00020151        0.00014066        0.00061731        0.00032582
     125         -0.235699        1.000000        0.00007266        0.00011570        0.00034697        0.00040476
     126         -0.234113        1.000000        0.00010157        0.00016165        0.00054096        0.00064517
     127         -0.233479        1.000000        0.00019529        0.00046664        0.00095842        0.00025428
     128         -0.232405        1.000000        0.00007894        0.00008292        0.00016666        0.00044035
     129         -0.229411        1.000000        0.00027873        0.00085507        0.00014258        0.00024148
     130         -0.227763        1.000000        0.00039882        0.00066766        0.00063932        0.00040629
     131         -0.225413        1.000000        0.00021644        0.00031337        0.00044980        0.00068617
     132         -0.224052        1.000000        0.00025552        0.00041744        0.00099998        0.00276778
     133         -0.222361        1.000000        0.00017715        0.00003554        0.00154978        0.00124037
     134         -0.220691        1.000000        0.00012376        0.00027572        0.00032165        0.00016561
     135         -0.219020        1.000000        0.00016816        0.00062591        0.00057797        0.00022171
     136         -0.218327        1.000000        0.00032202        0.00036295        0.00028784        0.00030526
     137         -0.216233        1.000000        0.00042375        0.00024529        0.00030047        0.00043042
     138         -0.215483        1.000000        0.00012533        0.00049908        0.00145218        0.00078257
     139         -0.214606        1.000000        0.00037415        0.00139266        0.00043311        0.00056905
     140         -0.214369        1.000000        0.00071671        0.00102891        0.00077988        0.00041371
     141         -0.213409        1.000000        0.00006671        0.00043863        0.00034798        0.00013908
     142         -0.211776        1.000000        0.00016186        0.00023747        0.00119498        0.00014988
     143         -0.211151        1.000000        0.00048853        0.00065032        0.00052296        0.00023170
     144         -0.210146        1.000000        0.00018036        0.00048136        0.00068982        0.00030053
     145         -0.208580        1.000000        0.00024439        0.00062557        0.00022448        0.00075365
     146         -0.208428        1.000000        0.00015351        0.00036343        0.00032306        0.00007564
     147         -0.207772        1.000000        0.00016387        0.00063928        0.00110289        0.00015489
     148         -0.207417        1.000000        0.00023876        0.00029339        0.00043500        0.00049022
     149         -0.205794        1.000000        0.00022765        0.00085216        0.00020521        0.00015531
     150         -0.205456        1.000000        0.00022748        0.00037938        0.00024512        0.00043164
     151         -0.205045        1.000000        0.00006025        0.00075163        0.00033982        0.00029176
     152         -0.203876        1.000000        0.00020545        0.00016119        0.00007892        0.00027840
     153         -0.203271        1.000000        0.00019976        0.00020904        0.00014391        0.00012903
     154         -0.202406        1.000000        0.00016238        0.00048845        0.00036172        0.00054332
     155         -0.201918        1.000000        0.00012584        0.00005167        0.00028014        0.00036985
     156         -0.201169        1.000000        0.00008517        0.00011333        0.00014583        0.00015914
     157         -0.200653        1.000000        0.00025830        0.00033378        0.00019814        0.00020292
     158         -0.199566        1.000000        0.00021004        0.00018135        0.00034182        0.00015038
     159         -0.198541        1.000000        0.00011847        0.00016583        0.00021628        0.00007389
     160         -0.197965        1.000000        0.00024589        0.00013882        0.00005358        0.00030057
     161         -0.197009        1.000000        0.00062118        0.00111651        0.00039590        0.00047791
     162         -0.196589        1.000000        0.00010263        0.00219862        0.00028461        0.00007714
     163         -0.196293        1.000000        0.00012455        0.00130593        0.00033548        0.00035678
     164         -0.195928        1.000000        0.00010385        0.00021149        0.00032846        0.00004203
     165         -0.195080        1.000000        0.00004676        0.00032240        0.00031489        0.00007231
     166         -0.194735        1.000000        0.00004826        0.00018197        0.00009812        0.00030773
     167         -0.193768        1.000000        0.00004771        0.00032845        0.00031781        0.00041951
     168         -0.193492        1.000000        0.00001712        0.00017175        0.00024597        0.00003450
     169         -0.193362        1.000000        0.00002605        0.00026053        0.00029036        0.00020799
     170         -0.192850        1.000000        0.00003346        0.00013472        0.00007531        0.00009366
     171         -0.191806        1.000000        0.00006320        0.00061789        0.00016470        0.00018757
     172         -0.191160        1.000000        0.00036651        0.00034523        0.00086296        0.00024381
     173         -0.190214        1.000000        0.00016581        0.00035449        0.00040655        0.00008341
     174         -0.190079        1.000000        0.00015336        0.00059101        0.00013765        0.00025038
     175         -0.189442        1.000000        0.00006795        0.00074313        0.00031964        0.00004482
     176         -0.188828        1.000000        0.00007268        0.00023973        0.00008681        0.00014989
     177         -0.188175        1.000000        0.00009114        0.00025915        0.00007895        0.00004336
     178         -0.187748        1.000000        0.00010546        0.00026800        0.00007249        0.00012183
     179         -0.187689        1.000000        0.00008889        0.00061787        0.00010495        0.00007779
     180         -0.187342        1.000000        0.00002691        0.00007330        0.00005644        0.00006110
     181         -0.186848        1.000000        0.00032456        0.00009558        0.00016944        0.00048683
     182         -0.186470        1.000000        0.00037334        0.00015427        0.00083496        0.00027637
     183         -0.186117        1.000000        0.00005009        0.00003465        0.00010124        0.00003078
     184         -0.184686        1.000000        0.00002363        0.00012972        0.00009299        0.00015231
     185         -0.184078        1.000000        0.00031968        0.00047243        0.00082544        0.00020159
     186         -0.183198        1.000000        0.00011646        0.00017166        0.00085559        0.00000876
     187         -0.182472        1.000000        0.00003907        0.00004272        0.00031605        0.00000306
     188         -0.182396        1.000000        0.00003253        0.00002694        0.00015545        0.00003710
     189         -0.181912        1.000000        0.00006281        0.00018203        0.00056997        0.00005567
     190         -0.178394        1.000000        0.00036140        0.00035989        0.00007404        0.00042240
     191         -0.176336        1.000000        0.00001605        0.00002664        0.00007688        0.00005070
     192         -0.174275        1.000000        0.00000378        0.00000384        0.00000442        0.00005244
     193         -0.174208        1.000000        0.00004543        0.00000791        0.00010128        0.00002836
     194         -0.172599        1.000000        0.00001819        0.00002489        0.00002547        0.00004354
     195         -0.172077        1.000000        0.00000841        0.00000723        0.00002533        0.00002338
     196         -0.168826        0.000000        0.00001458        0.00000803        0.00003230        0.00002406
     197         -0.167272        0.000000        0.00001192        0.00002669        0.00004917        0.00000551
     198         -0.160679        0.000000        0.00001475        0.00003980        0.00001515        0.00000582
     199         -0.155514        0.000000        0.00001448        0.00004437        0.00000755        0.00003904
     200         -0.155092        0.000000        0.00000835        0.00001918        0.00000488        0.00001614
     201         -0.129184        0.000000        0.00000633        0.00001238        0.00001989        0.00000905
     202         -0.074147        0.000000        0.00007203        0.00010877        0.00003563        0.00016664
     203         -0.073773        0.000000        0.00002059        0.00002389        0.00004303        0.00002310
     204         -0.072841        0.000000        0.00005087        0.00000635        0.00004407        0.00003148
     205         -0.062706        0.000000        0.00007780        0.00000898        0.00014747        0.00016572
     206         -0.055850        0.000000        0.00002047        0.00004284        0.00001568        0.00002152
     207         -0.052998        0.000000        0.00005954        0.00000930        0.00006955        0.00002594
     208         -0.049522        0.000000        0.00001319        0.00008969        0.00003015        0.00007799
     209         -0.046686        0.000000        0.00001005        0.00001593        0.00001469        0.00001788
     210         -0.040753        0.000000        0.00001327        0.00003499        0.00003019        0.00003937
     211         -0.040501        0.000000        0.00004538        0.00008271        0.00001000        0.00003979
     212         -0.038560        0.000000        0.00001510        0.00002710        0.00002611        0.00005379
     213         -0.034739        0.000000        0.00001009        0.00001256        0.00001089        0.00000484
     214         -0.033647        0.000000        0.00003052        0.00001007        0.00006881        0.00011368
     215         -0.030607        0.000000        0.00001436        0.00000063        0.00000544        0.00005023
     216         -0.026412        0.000000        0.00001647        0.00000762        0.00000632        0.00001282
     217         -0.024009        0.000000        0.00004980        0.00002099        0.00009820        0.00003071
     218         -0.022598        0.000000        0.00000457        0.00000732        0.00009614        0.00007632
     219         -0.020635        0.000000        0.00005335        0.00003384        0.00003062        0.00004730
     220         -0.017987        0.000000        0.00003412        0.00004391        0.00002552        0.00003067
     221         -0.017747        0.000000        0.00001181        0.00004122        0.00005042        0.00002396
     222         -0.014872        0.000000        0.00001262        0.00000139        0.00002818        0.00013843
     223         -0.014478        0.000000        0.00000943        0.00001128        0.00005253        0.00004803
     224         -0.011896        0.000000        0.00011500        0.00003863        0.00017144        0.00011623
     225         -0.008742        0.000000        0.00004212        0.00003420        0.00002143        0.00010106
     226          0.088305        0.000000        0.07960986        0.00360580        0.00193328        0.55011465
     227          0.098884        0.000000        0.07876400        0.01041014        0.12001643        0.42802815
     228          0.102781        0.000000        0.07880236        0.00357862        0.00547308        0.54033954
     229          0.103763        0.000000        0.07867656        0.00017056        0.16179039        0.39199412
     230          0.103953        0.000000        0.08150456        0.00294232        0.01011103        0.53382975
     231          0.108999        0.000000        0.07916487        0.00249721        0.24597221        0.30406986
     232          0.115317        0.000000        0.08111470        0.03722531        0.15673514        0.35521310
     233          0.283665        0.000000        0.00014044        0.00543356        0.00000812        0.00006921
     234          0.284817        0.000000        0.00000050        0.00005924        0.00588375        0.00000427
     235          0.286037        0.000000        0.00000768        0.00544890        0.00059215        0.00006038
     236          0.290040        0.000000        0.00003687        0.00438217        0.00065677        0.00001986
     237          0.293168        0.000000        0.00003132        0.00044908        0.00329520        0.00179634
     238          0.294703        0.000000        0.00009359        0.00408118        0.00157513        0.00054513
     239          0.295023        0.000000        0.00002147        0.00208486        0.00251723        0.00125689
     240          0.295166        0.000000        0.00005492        0.00516547        0.00085412        0.00008389
     241          0.296596        0.000000        0.00015020        0.00075480        0.00218431        0.00275712
     242          0.298058        0.000000        0.00004156        0.00028101        0.00758498        0.00004225
     243          0.300357        0.000000        0.00000042        0.00541069        0.00063619        0.00017614
     244          0.301917        0.000000        0.00034976        0.00174909        0.00563182        0.00000051
     245          0.307552        0.000000        0.00000064        0.00313563        0.00155110        0.00176846
     246          0.311189        0.000000        0.00000246        0.00332613        0.00336494        0.00049291
     247          0.316485        0.000000        0.00473729        0.00012582        0.00000211        0.00002174
     248          0.327639        0.000000        0.00456737        0.00018114        0.00003902        0.00003366
     249          0.336288        0.000000        0.00533344        0.00001850        0.00007025        0.00029714
     250          0.337491        0.000000        0.00507067        0.00008497        0.00019034        0.00022370
     251          0.337676        0.000000        0.00497228        0.00000853        0.00019743        0.00006711
     252          0.344754        0.000000        0.00488685        0.00088317        0.00011161        0.00009342
     253          0.349259        0.000000        0.00523117        0.00000363        0.00001509        0.00009160
     254          0.454596        0.000000        0.00004770        0.08924730        0.30024178        0.00294082
     255          0.459539        0.000000        0.00002119        0.30249233        0.09074181        0.00096638
     256          0.462974        0.000000        0.00009261        0.36685191        0.02369406        0.00279558
     257          0.464494        0.000000        0.00012649        0.01351169        0.37782770        0.00130046
     258          0.466160        0.000000        0.00003690        0.38251403        0.00789727        0.00340654
     259          0.467274        0.000000        0.00061897        0.01855816        0.36263853        0.00980530