100
Lattice="31.7900009155 0.0 0.0 0.0 31.0900001526 0.0 0.0 0.0 30.3899993896" Properties=species:S:1:pos:R:3 i=301 E=-575.4882135721 pbc="F F F"
I       12.28199753      11.52539824       8.57355573
I       19.25272193      13.58690548       8.46542620
I       12.67575222      18.51701127       8.82789342
I       17.29546118      18.87412621       8.48500599
I       14.89631555       8.73903519      11.54278975
I       17.57941364      10.44870059      11.68654568
I       11.42667030       7.91955662      11.35966697
I       11.06505465      11.64784763      14.25429052
I       11.95039263      15.02110541      11.79525136
I       14.70135282      13.38875682      11.97820810
I       18.02890468      12.53629919      15.40001340
I       18.52555133      15.63313508      12.32462242
I       22.42832151      13.05702104      12.07268937
I        9.31094439      16.57228834      11.62075817
I       11.58492808      18.66864276      14.85567756
I       12.50960510      22.12697560      11.79648086
I       15.28194941      18.26122036      12.56452272
I       18.32900618      19.07375393      15.63722619
I       17.58498678      22.29228842      11.81903127
I       20.91221333      19.41672951      14.09588447
I       12.07065149       9.24803235      19.28645102
I       18.47022513       9.13320928      18.40560945
I        9.39158865      11.81556836      16.78083834
I       13.66618535      12.13870988      22.59170742
I       11.47018330      14.89788375      19.24017089
I       15.06030859      12.51851434      18.13217955
I       18.44229191      12.51536134      21.62273397
I       18.50864053      15.76579283      18.41317318
I       21.85652297      12.38555579      18.23571974
I       11.10068777      18.03303911      18.58034666
I       14.82539299      19.41088805      21.79201010
I       15.44305077      22.98907753      18.79629409
I       15.42652198      18.66522194      17.20144359
I       19.87563270      17.43190833      22.41126217
I       18.48820284      20.96785368      19.46697815
I       22.66345309      18.01140537      18.37810106
Pb      12.44508857      10.82951644      11.40795747
Pb      19.55457549      12.91761198      11.35923531
Pb      12.34749498      19.19246564      11.76440318
Pb      18.02676524      19.38934869      11.35215329
Pb      12.64925935      12.07524047      19.84582803
Pb      18.87389494      12.12829242      18.59565022
Pb      13.73931169      20.39239382      19.24828350
Pb      19.90587453      18.29283173      19.57222271
C       15.07634852      15.11946236       8.34333804
C       15.00406007       9.26972590      15.72449387
C        8.69841035      15.66655053      15.61118745
C       14.78538160      15.42435545      15.40040594
C       21.05039186      15.33030947      15.18597406
C       14.96305818      21.92248756      14.78120724
C       15.45225253      15.53729607      21.00407047
N       16.33505232      15.54132219       9.17862001
N       16.55221717       9.39430537      15.51256075
N       10.26153038      15.54492783      15.51345675
N       16.34044985      15.54353828      15.30248422
N       22.19550552      15.22033631      16.25047368
N       16.34113169      22.14342070      15.50609136
N       16.77101356      15.54403121      21.85301813
H       15.29980960      15.27111643       7.31547647
H       14.26545595      15.73793759       8.64669894
H       14.86694298      14.09637614       8.54762021
H       16.57677861      16.55544541       9.00790158
H       17.17011898      14.95984473       8.91396316
H       16.15826560      15.40097850      10.19147371
H       14.51965131       9.56575843      14.82635529
H       14.73790449       9.90900379      16.53209191
H       14.77868355       8.25766320      15.96134231
H       16.83607814      10.39427496      15.31932785
H       16.86901086       8.80608127      14.72332923
H       17.07165122       9.12123668      16.39340535
H        8.33691087      15.91132055      14.63975010
H        8.47892941      16.44387205      16.30480203
H        8.31989642      14.73041028      15.94487021
H       10.67135195      16.48877713      15.24232340
H       10.53137028      14.84259272      14.79873656
H       10.65287801      15.26439263      16.43526257
H       14.48026294      14.73597872      14.65062762
H       14.37566432      16.38905193      15.22877093
H       14.54256092      15.06552574      16.37101414
H       16.62013213      15.95254433      14.38737728
H       16.80310578      14.59069561      15.36875748
H       16.71631773      16.13526131      16.06979013
H       21.26463639      16.14690831      14.54016006
H       20.14346450      15.48940486      15.71369703
H       21.02293037      14.41570169      14.64576216
H       22.25282786      16.09051231      16.84129304
H       23.10765973      15.07512967      15.78457927
H       22.02219298      14.39490607      16.89197686
H       15.16576496      21.74524392      13.75247545
H       14.38960820      22.80868614      14.90718395
H       14.48927805      21.08372187      15.22975384
H       16.85873389      22.90833783      15.03612212
H       16.93022295      21.28302624      15.46415503
H       16.17819026      22.39840654      16.51816808
H       15.72669499      15.38552329      19.98931625
H       14.96567966      16.47314609      21.13869831
H       14.85086163      14.73631273      21.36096188
H       17.42615799      16.29551201      21.55630062
H       17.27969776      14.61424374      21.75601376
H       16.55351392      15.69213576      22.85380854
