# Projected DOS for atomic kind I at iteration step i = 0, E(Fermi) =    -0.171329 a.u.
#     MO Eigenvalue [a.u.]      Occupation                 s                py                pz                px
       1         -0.952921        1.000000        0.00011658        0.00043150        0.00015729        0.00007580
       2         -0.945307        1.000000        0.00015240        0.00021919        0.00041136        0.00010358
       3         -0.942426        1.000000        0.00018431        0.00050972        0.00028085        0.00021962
       4         -0.940424        1.000000        0.00012824        0.00036853        0.00007856        0.00025133
       5         -0.936657        1.000000        0.00018681        0.00033167        0.00032552        0.00019834
       6         -0.936357        1.000000        0.00017248        0.00047239        0.00026617        0.00002931
       7         -0.926084        1.000000        0.00015941        0.00039954        0.00014814        0.00026089
       8         -0.693810        1.000000        0.00070679        0.00025677        0.00013830        0.00004762
       9         -0.690003        1.000000        0.00219213        0.00060465        0.00054839        0.00021036
      10         -0.684866        1.000000        0.00163099        0.00036945        0.00036217        0.00007720
      11         -0.683700        1.000000        0.00214925        0.00023950        0.00028662        0.00033285
      12         -0.683458        1.000000        0.00165830        0.00056274        0.00015151        0.00033558
      13         -0.680384        1.000000        0.00241347        0.00054767        0.00045932        0.00031853
      14         -0.671848        1.000000        0.00161601        0.00031610        0.00024981        0.00019781
      15         -0.640367        1.000000        0.95254071        0.00117488        0.00684974        0.01711370
      16         -0.631104        1.000000        0.95074425        0.00144028        0.01580314        0.00763703
      17         -0.622824        1.000000        0.94024061        0.00642777        0.00254929        0.00937330
      18         -0.619654        1.000000        0.96012812        0.00659573        0.00183803        0.01686199
      19         -0.614885        1.000000        0.91580873        0.00911923        0.00295268        0.00166025
      20         -0.603481        1.000000        0.87337905        0.00328437        0.00745404        0.01464959
      21         -0.597755        1.000000        0.80466811        0.00442339        0.00555215        0.00641272
      22         -0.594224        1.000000        0.83257803        0.00830581        0.00571232        0.00794533
      23         -0.594030        1.000000        0.84056116        0.00568099        0.00537580        0.00914711
      24         -0.592277        1.000000        0.84919504        0.00364491        0.00379446        0.00384228
      25         -0.591212        1.000000        0.76449912        0.00406944        0.00575459        0.00547767
      26         -0.587664        1.000000        0.84495881        0.00729212        0.00791367        0.01071568
      27         -0.586485        1.000000        0.73296732        0.00551572        0.00339030        0.00415960
      28         -0.585400        1.000000        0.68136830        0.00567850        0.00369984        0.00330017
      29         -0.583846        1.000000        0.88192820        0.00459194        0.00355548        0.01068331
      30         -0.582996        1.000000        0.79578541        0.00235519        0.00701453        0.00610772
      31         -0.582420        1.000000        0.76939730        0.00275526        0.00347810        0.00564718
      32         -0.582207        1.000000        0.82775603        0.00181504        0.00366769        0.00627710
      33         -0.580324        1.000000        0.84987666        0.00279437        0.00473466        0.00424286
      34         -0.580057        1.000000        0.83447506        0.00264701        0.00412344        0.00372136
      35         -0.577897        1.000000        0.75240772        0.00338954        0.00289698        0.00322027
      36         -0.577823        1.000000        0.25925427        0.00135180        0.00175463        0.00139494
      37         -0.576942        1.000000        0.75185925        0.00501763        0.00327747        0.00150256
      38         -0.575891        1.000000        0.77136902        0.00255238        0.00185986        0.00196586
      39         -0.574955        1.000000        0.85217946        0.00284151        0.00250278        0.00207232
      40         -0.574743        1.000000        0.82158769        0.00236920        0.00393581        0.00093585
      41         -0.574171        1.000000        0.77818137        0.00143948        0.00301744        0.00362003
      42         -0.573190        1.000000        0.57665040        0.00313898        0.00340424        0.00198638
      43         -0.572513        1.000000        0.92476736        0.00199383        0.00178421        0.00040964
      44         -0.571375        1.000000        0.96086716        0.00229595        0.00047336        0.00241262
      45         -0.570494        1.000000        0.47170786        0.00580062        0.00203078        0.00172741
      46         -0.569631        1.000000        0.69867593        0.00497406        0.00561093        0.00239811
      47         -0.568008        1.000000        0.14329245        0.00276821        0.00079956        0.00059266
      48         -0.567088        1.000000        0.78581888        0.00198444        0.00135812        0.00446167
      49         -0.565592        1.000000        0.82257817        0.00713731        0.00375249        0.00137650
      50         -0.564140        1.000000        0.28517194        0.00124086        0.00191228        0.00097378
      51         -0.562719        1.000000        0.12054418        0.00061190        0.00054773        0.00086105
      52         -0.560392        1.000000        0.40342946        0.00497485        0.00138332        0.00171386
      53         -0.559963        1.000000        0.25236306        0.00505505        0.00094651        0.00072341
      54         -0.559468        1.000000        0.92616443        0.00256376        0.00109672        0.00637525
      55         -0.557586        1.000000        0.19319678        0.00128479        0.00104956        0.00055845
      56         -0.554223        1.000000        0.68795347        0.00439711        0.00118572        0.00094265
      57         -0.553685        1.000000        0.77516210        0.00120358        0.00207778        0.00035711
      58         -0.552342        1.000000        0.74794493        0.00074572        0.00167588        0.00060755
      59         -0.551138        1.000000        0.20658234        0.00637674        0.00239174        0.00161644
      60         -0.545807        1.000000        0.19317434        0.00133549        0.00166584        0.00108375
      61         -0.544886        1.000000        0.34190166        0.00162585        0.00211148        0.00167909
      62         -0.541934        1.000000        0.46208626        0.00072588        0.00137447        0.00045336
      63         -0.538424        1.000000        0.35185734        0.00100578        0.00097697        0.00105215
      64         -0.537832        1.000000        0.23674464        0.00226198        0.00100741        0.00213962
      65         -0.473928        1.000000        0.00293309        0.00186795        0.00107004        0.00025067
      66         -0.469954        1.000000        0.00502282        0.00357995        0.00327292        0.00143161
      67         -0.465117        1.000000        0.12192298        0.03343900        0.04265559        0.01900811
      68         -0.464752        1.000000        0.03285102        0.01023267        0.01302584        0.00511365
      69         -0.464187        1.000000        0.01471641        0.00680364        0.00425549        0.00542676
      70         -0.463806        1.000000        0.00330573        0.00138675        0.00253738        0.00165633
      71         -0.461691        1.000000        0.08021978        0.02336646        0.02133985        0.01700902
      72         -0.460663        1.000000        0.16216713        0.05217461        0.03847392        0.03134149
      73         -0.459418        1.000000        0.11317204        0.03165174        0.02374330        0.02075392
      74         -0.458458        1.000000        0.13306603        0.03342975        0.04253988        0.02826126
      75         -0.454140        1.000000        0.13438661        0.04058109        0.02815650        0.04222804
      76         -0.451578        1.000000        0.03371200        0.00891507        0.00783789        0.00737044
      77         -0.447662        1.000000        0.14831463        0.03593173        0.03959392        0.04716485
      78         -0.443151        1.000000        0.15028227        0.03619477        0.03901399        0.03593838
      79         -0.438487        1.000000        0.15074988        0.04494463        0.04384537        0.00543794
      80         -0.410725        1.000000        0.00189522        0.00383847        0.00040792        0.00072759
      81         -0.409899        1.000000        0.00081223        0.00065540        0.00220411        0.00073027
      82         -0.407698        1.000000        0.00192095        0.00358605        0.00524051        0.00131361
      83         -0.406288        1.000000        0.00268918        0.00627977        0.00383454        0.00256510
      84         -0.402421        1.000000        0.00193943        0.00164612        0.00403462        0.00096586
      85         -0.401817        1.000000        0.00058822        0.00273007        0.00140225        0.00127212
      86         -0.400759        1.000000        0.00133432        0.00476338        0.00201082        0.00132869
      87         -0.400111        1.000000        0.00134589        0.00189384        0.00071904        0.00306788
      88         -0.398917        1.000000        0.00366916        0.00760053        0.00111008        0.00141949
      89         -0.398310        1.000000        0.00210480        0.00194869        0.00285466        0.00310277
      90         -0.398196        1.000000        0.00191656        0.00181530        0.00363006        0.00149808
      91         -0.395468        1.000000        0.00232030        0.00571197        0.00204833        0.00108237
      92         -0.390099        1.000000        0.00077203        0.00131467        0.00112211        0.00082424
      93         -0.386842        1.000000        0.00174734        0.00373756        0.00053973        0.00227995
      94         -0.323849        1.000000        0.02829481        0.01364258        0.23847471        0.69327907
      95         -0.315952        1.000000        0.02624190        0.05058056        0.52069240        0.30494090
      96         -0.305510        1.000000        0.03183208        0.23374591        0.06521710        0.64715670
      97         -0.303277        1.000000        0.01589526        0.21672993        0.05204534        0.62180807
      98         -0.298799        1.000000        0.01573218        0.73876897        0.06100611        0.03906763
      99         -0.276492        1.000000        0.00915143        0.31880457        0.23518117        0.22009491
     100         -0.273732        1.000000        0.01149978        0.27888134        0.27388072        0.26003348
     101         -0.273066        1.000000        0.00907071        0.55468561        0.09945399        0.17958099
     102         -0.269511        1.000000        0.01622741        0.13628062        0.19720174        0.40310504
     103         -0.268426        1.000000        0.01899227        0.40601870        0.22447672        0.17131941
     104         -0.265560        1.000000        0.01402405        0.37119509        0.17463131        0.23397777
     105         -0.264931        1.000000        0.01955495        0.16622666        0.19701747        0.35777346
     106         -0.264692        1.000000        0.00961244        0.43474348        0.12977779        0.23385431
     107         -0.262923        1.000000        0.02112724        0.35184070        0.27825220        0.12157102
     108         -0.257322        1.000000        0.01704751        0.31819990        0.19462541        0.27480810
     109         -0.256894        1.000000        0.01648860        0.25843807        0.33689168        0.17203489
     110         -0.256130        1.000000        0.01756496        0.20094401        0.33823185        0.21970687
     111         -0.255739        1.000000        0.01742347        0.28840179        0.23262397        0.23804430
     112         -0.254158        1.000000        0.01535739        0.24493749        0.32076250        0.24026979
     113         -0.252575        1.000000        0.00588532        0.51574514        0.30528837        0.08538847
     114         -0.251752        1.000000        0.01372151        0.23229568        0.41951855        0.14015760
     115         -0.250358        1.000000        0.01479139        0.25594411        0.36563705        0.17946773
     116         -0.247144        1.000000        0.01278970        0.16589495        0.41310807        0.24194336
     117         -0.245542        1.000000        0.01003372        0.15113594        0.42498577        0.31497698
     118         -0.244403        1.000000        0.01380525        0.20307139        0.22935287        0.37181944
     119         -0.243421        1.000000        0.01281724        0.19312165        0.36246523        0.25020476
     120         -0.242997        1.000000        0.01369647        0.24686463        0.39877639        0.12816382
     121         -0.239911        1.000000        0.01212311        0.22743415        0.38956282        0.23324783
     122         -0.238443        1.000000        0.00659804        0.21089247        0.52041225        0.19053951
     123         -0.236608        1.000000        0.00796336        0.17601851        0.44341406        0.25393410
     124         -0.236013        1.000000        0.00803891        0.22895276        0.30042975        0.34798730
     125         -0.235208        1.000000        0.01256140        0.28102622        0.43034130        0.13119919
     126         -0.233913        1.000000        0.00719361        0.23666269        0.35828087        0.26338117
     127         -0.232358        1.000000        0.00832530        0.39320749        0.31550201        0.14571114
     128         -0.231975        1.000000        0.00979717        0.27335819        0.48381069        0.13453903
     129         -0.229303        1.000000        0.00952757        0.30953377        0.31674208        0.32272177
     130         -0.227524        1.000000        0.00546092        0.26380946        0.29152136        0.34475484
     131         -0.224407        1.000000        0.00348122        0.42644321        0.41087809        0.10425790
     132         -0.223099        1.000000        0.00490968        0.35650387        0.31868900        0.25071683
     133         -0.221927        1.000000        0.00335638        0.31182981        0.39453319        0.21373585
     134         -0.219921        1.000000        0.00728934        0.42122770        0.20048973        0.30967648
     135         -0.218616        1.000000        0.00451292        0.36755779        0.29929521        0.26146580
     136         -0.217955        1.000000        0.00755248        0.36097689        0.18297040        0.40046744
     137         -0.215980        1.000000        0.00501646        0.26363213        0.25283544        0.41905249
     138         -0.215282        1.000000        0.00343521        0.34440469        0.44094698        0.15066844
     139         -0.214268        1.000000        0.00206146        0.31592451        0.51695823        0.13912024
     140         -0.213955        1.000000        0.00226988        0.25390954        0.55405844        0.15728603
     141         -0.212335        1.000000        0.00540837        0.17420155        0.54813167        0.22029456
     142         -0.211675        1.000000        0.00226374        0.43017538        0.30625918        0.23823401
     143         -0.210759        1.000000        0.00265735        0.38743243        0.40893418        0.18111761
     144         -0.209500        1.000000        0.00226921        0.43741917        0.28516220        0.25254372
     145         -0.207903        1.000000        0.00294941        0.50487871        0.23718340        0.21409347
     146         -0.207805        1.000000        0.00164024        0.33673801        0.26248947        0.36508996
     147         -0.207349        1.000000        0.00159967        0.44715868        0.19448037        0.33700713
     148         -0.206403        1.000000        0.00278863        0.41077608        0.22268648        0.33316408
     149         -0.205587        1.000000        0.00237069        0.47815634        0.20398786        0.28949737
     150         -0.205023        1.000000        0.00319504        0.44948368        0.22257331        0.28906825
     151         -0.204515        1.000000        0.00445980        0.23314475        0.26850161        0.46112988
     152         -0.203628        1.000000        0.00281223        0.31455944        0.17895018        0.47435669
     153         -0.202296        1.000000        0.00417435        0.28810659        0.17061060        0.51300407
     154         -0.201945        1.000000        0.00239316        0.32907818        0.33053735        0.28390632
     155         -0.201719        1.000000        0.00378648        0.32513939        0.30513155        0.34034419
     156         -0.201037        1.000000        0.00259051        0.35431000        0.30564474        0.29692554
     157         -0.200342        1.000000        0.00189396        0.28072989        0.33082100        0.36763477
     158         -0.199338        1.000000        0.00258400        0.26547925        0.31338857        0.38498105
     159         -0.198120        1.000000        0.00215671        0.30961729        0.24457367        0.41345260
     160         -0.197881        1.000000        0.00298499        0.28102838        0.27157186        0.42579072
     161         -0.196969        1.000000        0.00101422        0.43995943        0.35126002        0.19081734
     162         -0.196420        1.000000        0.00107793        0.40264677        0.22665899        0.35201869
     163         -0.195978        1.000000        0.00185191        0.37121521        0.32756567        0.27924137
     164         -0.195766        1.000000        0.00157097        0.32144866        0.26451374        0.38376872
     165         -0.194940        1.000000        0.00214183        0.32100011        0.26010887        0.40107080
     166         -0.194230        1.000000        0.00150727        0.48992928        0.28221032        0.20551036
     167         -0.193669        1.000000        0.00275545        0.44127816        0.39434111        0.13517942
     168         -0.193260        1.000000        0.00123087        0.21871178        0.28690171        0.48474824
     169         -0.193007        1.000000        0.00163413        0.43267152        0.23307007        0.31274655
     170         -0.192643        1.000000        0.00075002        0.35405432        0.16825154        0.45122801
     171         -0.191575        1.000000        0.00238942        0.42108827        0.42379659        0.12796832
     172         -0.190365        1.000000        0.00159825        0.31426042        0.39666382        0.26613209
     173         -0.189998        1.000000        0.00320578        0.44718261        0.18655710        0.33457485
     174         -0.189711        1.000000        0.00101640        0.31621245        0.37932521        0.29102571
     175         -0.188943        1.000000        0.00219684        0.35138643        0.33112921        0.28871240
     176         -0.188649        1.000000        0.00121070        0.32606533        0.39911839        0.25711847
     177         -0.188060        1.000000        0.00105269        0.26125363        0.49884787        0.22561516
     178         -0.187647        1.000000        0.00125457        0.20740112        0.10434496        0.66847155
     179         -0.187376        1.000000        0.00070346        0.25452830        0.38317260        0.35555471
     180         -0.187074        1.000000        0.00079239        0.21036115        0.47194111        0.30551507
     181         -0.186116        1.000000        0.00036963        0.51025315        0.24426536        0.23924833
     182         -0.185475        1.000000        0.00069748        0.19113880        0.13028468        0.66562959
     183         -0.184652        1.000000        0.00098710        0.21044363        0.60737046        0.17155443
     184         -0.183392        1.000000        0.00089353        0.40668889        0.35607801        0.21800241
     185         -0.183104        1.000000        0.00227620        0.23782240        0.45244795        0.27995110
     186         -0.182342        1.000000        0.00053522        0.20044307        0.26314842        0.52993070
     187         -0.182068        1.000000        0.00229126        0.34077515        0.12853737        0.48619993
     188         -0.181585        1.000000        0.00064398        0.17481939        0.36868851        0.44661617
     189         -0.179810        1.000000        0.00093758        0.34006856        0.42859630        0.21797688
     190         -0.176111        1.000000        0.00044859        0.37046774        0.42169415        0.20082360
     191         -0.174276        1.000000        0.00022954        0.25250912        0.12302633        0.62127407
     192         -0.173452        1.000000        0.00086983        0.09044917        0.36163057        0.51331415
     193         -0.172084        1.000000        0.00128727        0.17947747        0.46497941        0.24526147
     194         -0.171329        1.000000        0.00036576        0.14552269        0.12588696        0.71689394
     195         -0.168816        0.000000        0.00122458        0.28368109        0.26427111        0.32239318
     196         -0.167304        0.000000        0.00978809        0.10141721        0.58530258        0.24000083
     197         -0.164426        0.000000        0.00214333        0.32652029        0.39091438        0.17283487
     198         -0.158483        0.000000        0.00314124        0.41744193        0.38675893        0.10339347
     199         -0.155454        0.000000        0.01042529        0.08625206        0.19823213        0.66004863
     200         -0.155031        0.000000        0.00520281        0.20305111        0.10495405        0.62189143
     201         -0.129174        0.000000        0.00792194        0.26566513        0.00403763        0.72184787
     202         -0.074048        0.000000        0.01223808        0.06444915        0.12103794        0.06973116
     203         -0.073755        0.000000        0.01191663        0.10047973        0.05788052        0.09564277
     204         -0.071854        0.000000        0.02673530        0.05479602        0.05017223        0.08603529
     205         -0.062687        0.000000        0.02543207        0.10050503        0.07289609        0.07685609
     206         -0.055405        0.000000        0.01699562        0.11089362        0.07090310        0.07953784
     207         -0.052774        0.000000        0.02038044        0.05567896        0.10627203        0.11637244
     208         -0.049415        0.000000        0.01785091        0.14626395        0.02822403        0.09972340
     209         -0.045620        0.000000        0.01130526        0.08986671        0.04564994        0.14719297
     210         -0.040740        0.000000        0.01945408        0.20480079        0.03167397        0.05634012
     211         -0.040492        0.000000        0.02263205        0.04232111        0.17457004        0.06846292
     212         -0.038395        0.000000        0.02050437        0.05416451        0.14330344        0.09092435
     213         -0.034583        0.000000        0.02094950        0.03755426        0.18285013        0.07323191
     214         -0.033636        0.000000        0.02235214        0.03850476        0.19548073        0.06272878
     215         -0.030204        0.000000        0.01705824        0.10210052        0.14815650        0.03780263
     216         -0.026360        0.000000        0.02472271        0.12885711        0.05315831        0.11283175
     217         -0.023999        0.000000        0.02666774        0.03045530        0.25035524        0.02556724
     218         -0.022549        0.000000        0.01838060        0.14514801        0.05059142        0.09839503
     219         -0.018004        0.000000        0.02187413        0.16632185        0.03886266        0.09154782
     220         -0.017859        0.000000        0.02094032        0.16520842        0.02400811        0.10753176
     221         -0.017676        0.000000        0.02355645        0.10579162        0.03353090        0.15988709
     222         -0.014839        0.000000        0.02376258        0.02050668        0.22969612        0.03988218
     223         -0.013976        0.000000        0.02060344        0.19353160        0.06595041        0.03894868
     224         -0.011664        0.000000        0.02661744        0.21654237        0.02308111        0.06889100
     225         -0.005075        0.000000        0.02676914        0.02686498        0.26546573        0.01238689
     226          0.088308        0.000000        0.00002627        0.00071626        0.00044474        0.00002835
     227          0.098888        0.000000        0.00007986        0.00037831        0.00178166        0.00076855
     228          0.102781        0.000000        0.00011786        0.00050707        0.00113958        0.00049053
     229          0.103763        0.000000        0.00006885        0.00127094        0.00024431        0.00111187
     230          0.103953        0.000000        0.00005672        0.00121005        0.00092046        0.00022191
     231          0.109000        0.000000        0.00013458        0.00112375        0.00133225        0.00096915
     232          0.115317        0.000000        0.00004848        0.00096651        0.00077043        0.00063147
     233          0.283729        0.000000        0.00080895        0.01175189        0.00146021        0.00198391
     234          0.284820        0.000000        0.00010447        0.00087045        0.00261995        0.00029418
     235          0.286039        0.000000        0.00210997        0.00018398        0.00334712        0.00890289
     236          0.290041        0.000000        0.00022233        0.00277850        0.00050487        0.00101038
     237          0.293168        0.000000        0.00005896        0.00027278        0.00022644        0.00135427
     238          0.294704        0.000000        0.00053313        0.01067357        0.00602367        0.00293603
     239          0.295023        0.000000        0.00075822        0.00539631        0.00852277        0.00259811
     240          0.295167        0.000000        0.00071726        0.01248088        0.00196496        0.00387401
     241          0.296596        0.000000        0.00042588        0.00542209        0.00242622        0.00012728
     242          0.298059        0.000000        0.00012557        0.00179175        0.00249998        0.00182288
     243          0.300357        0.000000        0.00082201        0.01025246        0.00541036        0.00025778
     244          0.301918        0.000000        0.00015639        0.00051729        0.00215370        0.00080198
     245          0.307554        0.000000        0.00068686        0.00663095        0.00048322        0.00691947
     246          0.311192        0.000000        0.00048716        0.00803283        0.00083151        0.00142059
     247          0.316562        0.000000        0.00087095        0.01186129        0.00285966        0.00260080
     248          0.327639        0.000000        0.00079056        0.00445092        0.00759317        0.00247401
     249          0.336288        0.000000        0.00101425        0.00811785        0.00162893        0.00513701
     250          0.337493        0.000000        0.00145337        0.00310513        0.00473496        0.00732214
     251          0.337676        0.000000        0.00098009        0.01145491        0.00631247        0.00119763
     252          0.344756        0.000000        0.00034222        0.01798174        0.00394998        0.00250219
     253          0.349264        0.000000        0.00086486        0.00962808        0.00091560        0.00670579
     254          0.454596        0.000000        0.00001011        0.00007651        0.00024906        0.00007358
     255          0.459542        0.000000        0.00004321        0.00050823        0.00018681        0.00027213
     256          0.462974        0.000000        0.00004431        0.00022625        0.00018000        0.00020945
     257          0.464494        0.000000        0.00006311        0.00079562        0.00064000        0.00008911
     258          0.466161        0.000000        0.00005795        0.00051804        0.00049958        0.00028564
     259          0.467274        0.000000        0.00003790        0.00037516        0.00029684        0.00016216