# Projected DOS for atomic kind I at iteration step i = 0, E(Fermi) =    -0.112050 a.u.
#     MO Eigenvalue [a.u.]      Occupation                 s                py                pz                px
       1         -0.905634        1.000000        0.00002430        0.00012192        0.00000531        0.00001782
       2         -0.901779        1.000000        0.00031219        0.00050774        0.00018829        0.00000828
       3         -0.900648        1.000000        0.00008946        0.00006099        0.00000473        0.00035854
       4         -0.897188        1.000000        0.00002400        0.00009199        0.00000806        0.00006830
       5         -0.895660        1.000000        0.00008420        0.00004042        0.00030065        0.00003800
       6         -0.894405        1.000000        0.00002092        0.00012134        0.00002202        0.00000046
       7         -0.892851        1.000000        0.00013131        0.00001346        0.00006420        0.00049935
       8         -0.891926        1.000000        0.00000703        0.00001927        0.00003738        0.00002407
       9         -0.891861        1.000000        0.00006329        0.00002424        0.00023728        0.00003088
      10         -0.889827        1.000000        0.00004874        0.00014935        0.00010762        0.00008090
      11         -0.886852        1.000000        0.00001554        0.00002162        0.00004395        0.00005386
      12         -0.886136        1.000000        0.00005998        0.00003845        0.00009079        0.00015100
      13         -0.884241        1.000000        0.00024194        0.00059648        0.00026733        0.00020649
      14         -0.884121        1.000000        0.00003040        0.00012836        0.00003961        0.00005811
      15         -0.883913        1.000000        0.00007282        0.00006670        0.00014870        0.00012927
      16         -0.879998        1.000000        0.00012821        0.00044183        0.00004872        0.00005163
      17         -0.878692        1.000000        0.00019884        0.00005601        0.00043348        0.00001575
      18         -0.878425        1.000000        0.00009292        0.00030709        0.00029352        0.00024583
      19         -0.878377        1.000000        0.00019441        0.00007821        0.00049763        0.00006652
      20         -0.877788        1.000000        0.00011907        0.00009923        0.00004822        0.00022987
      21         -0.876965        1.000000        0.00009798        0.00002800        0.00001045        0.00037391
      22         -0.876504        1.000000        0.00000563        0.00002548        0.00000080        0.00001050
      23         -0.873766        1.000000        0.00004115        0.00009947        0.00002295        0.00011017
      24         -0.872612        1.000000        0.00002656        0.00003420        0.00007477        0.00006894
      25         -0.870259        1.000000        0.00031139        0.00001031        0.00049464        0.00007732
      26         -0.868998        1.000000        0.00047289        0.00011113        0.00113826        0.00009131
      27         -0.868330        1.000000        0.00014153        0.00007600        0.00025744        0.00017985
      28         -0.867263        1.000000        0.00008363        0.00005805        0.00008803        0.00021840
      29         -0.867194        1.000000        0.00017742        0.00018334        0.00000175        0.00012143
      30         -0.866877        1.000000        0.00022225        0.00027437        0.00055142        0.00024298
      31         -0.865902        1.000000        0.00011889        0.00025278        0.00004806        0.00002181
      32         -0.865820        1.000000        0.00013189        0.00020170        0.00004219        0.00023898
      33         -0.862701        1.000000        0.00002555        0.00002802        0.00003301        0.00007600
      34         -0.861665        1.000000        0.00011626        0.00000787        0.00017125        0.00023258
      35         -0.861419        1.000000        0.00003768        0.00013115        0.00001692        0.00005336
      36         -0.860874        1.000000        0.00003936        0.00007757        0.00003641        0.00008687
      37         -0.860104        1.000000        0.00021061        0.00009717        0.00022276        0.00026029
      38         -0.859939        1.000000        0.00013452        0.00002810        0.00022685        0.00024166
      39         -0.859143        1.000000        0.00008019        0.00013765        0.00018376        0.00003959
      40         -0.858352        1.000000        0.00004346        0.00011078        0.00002157        0.00009540
      41         -0.857062        1.000000        0.00004354        0.00004539        0.00001937        0.00005565
      42         -0.856680        1.000000        0.00014212        0.00005912        0.00006696        0.00025167
      43         -0.855274        1.000000        0.00037817        0.00000361        0.00061076        0.00004377
      44         -0.854412        1.000000        0.00021717        0.00018755        0.00006672        0.00031076
      45         -0.852889        1.000000        0.00001357        0.00020101        0.00001171        0.00004362
      46         -0.852037        1.000000        0.00028921        0.00003434        0.00041206        0.00003285
      47         -0.851359        1.000000        0.00154382        0.00032412        0.00314813        0.00033164
      48         -0.850083        1.000000        0.00001423        0.00001665        0.00000758        0.00007224
      49         -0.850056        1.000000        0.00001831        0.00003038        0.00000605        0.00007417
      50         -0.849096        1.000000        0.00006987        0.00016153        0.00021669        0.00005945
      51         -0.848510        1.000000        0.00081552        0.00005675        0.00044457        0.00078790
      52         -0.848294        1.000000        0.00013730        0.00022871        0.00021636        0.00003619
      53         -0.847473        1.000000        0.00005167        0.00007216        0.00006325        0.00003764
      54         -0.847388        1.000000        0.00023139        0.00020545        0.00002574        0.00013630
      55         -0.846091        1.000000        0.00009429        0.00002860        0.00011933        0.00014591
      56         -0.845040        1.000000        0.00000668        0.00000065        0.00000113        0.00001747
      57         -0.844792        1.000000        0.00119469        0.00002751        0.00154032        0.00009525
      58         -0.843605        1.000000        0.00036332        0.00015327        0.00047182        0.00046374
      59         -0.842133        1.000000        0.00011182        0.00004426        0.00015352        0.00008788
      60         -0.841839        1.000000        0.00013287        0.00024803        0.00010095        0.00019806
      61         -0.841384        1.000000        0.00001751        0.00001666        0.00009150        0.00001068
      62         -0.841273        1.000000        0.00000325        0.00000038        0.00001716        0.00001597
      63         -0.840423        1.000000        0.00006531        0.00004234        0.00007799        0.00009681
      64         -0.838267        1.000000        0.00005278        0.00004853        0.00002328        0.00017156
      65         -0.837943        1.000000        0.00047385        0.00042334        0.00008048        0.00013815
      66         -0.837412        1.000000        0.00003932        0.00002929        0.00003415        0.00014062
      67         -0.837214        1.000000        0.00004563        0.00003603        0.00016603        0.00000780
      68         -0.836317        1.000000        0.00105194        0.00008262        0.00051987        0.00097057
      69         -0.835855        1.000000        0.00007286        0.00000344        0.00002066        0.00018106
      70         -0.834683        1.000000        0.00003958        0.00011703        0.00005945        0.00002833
      71         -0.834588        1.000000        0.00004033        0.00000558        0.00008703        0.00000268
      72         -0.834574        1.000000        0.00015593        0.00002316        0.00026382        0.00001865
      73         -0.833892        1.000000        0.00047696        0.00041935        0.00014403        0.00012857
      74         -0.833677        1.000000        0.00034136        0.00006253        0.00044547        0.00000962
      75         -0.833268        1.000000        0.00031831        0.00015800        0.00021736        0.00024634
      76         -0.831755        1.000000        0.00008932        0.00013916        0.00021779        0.00002513
      77         -0.829591        1.000000        0.00006152        0.00008755        0.00005630        0.00008943
      78         -0.828434        1.000000        0.00429972        0.00035715        0.00769529        0.00015266
      79         -0.828290        1.000000        0.00000968        0.00008360        0.00004206        0.00000656
      80         -0.827001        1.000000        0.00000074        0.00000161        0.00000060        0.00000149
      81         -0.826593        1.000000        0.00089335        0.00072363        0.00011785        0.00018081
      82         -0.826220        1.000000        0.00116503        0.00110181        0.00034782        0.00046639
      83         -0.825129        1.000000        0.00046805        0.00003434        0.00053866        0.00001435
      84         -0.824205        1.000000        0.00020064        0.00013702        0.00020505        0.00018011
      85         -0.823379        1.000000        0.00048985        0.00004458        0.00033202        0.00034557
      86         -0.823290        1.000000        0.00001234        0.00004737        0.00000292        0.00003003
      87         -0.822550        1.000000        0.00004972        0.00001400        0.00005861        0.00008346
      88         -0.822163        1.000000        0.00041134        0.00004604        0.00079735        0.00002624
      89         -0.820444        1.000000        0.00003056        0.00002279        0.00006029        0.00002874
      90         -0.817929        1.000000        0.00102091        0.00075520        0.00014852        0.00017412
      91         -0.815954        1.000000        0.00004354        0.00002165        0.00000858        0.00011797
      92         -0.814961        1.000000        0.00032756        0.00027614        0.00006251        0.00007998
      93         -0.814679        1.000000        0.00000968        0.00000095        0.00002147        0.00002678
      94         -0.814636        1.000000        0.00031867        0.00008948        0.00026488        0.00002304
      95         -0.814396        1.000000        0.00007339        0.00007766        0.00018136        0.00000277
      96         -0.813981        1.000000        0.00033019        0.00001703        0.00030511        0.00057785
      97         -0.813787        1.000000        0.01097871        0.00019062        0.00620345        0.00632043
      98         -0.813773        1.000000        0.00039210        0.00010179        0.00031031        0.00023651
      99         -0.812599        1.000000        0.00256833        0.00240775        0.00053468        0.00078837
     100         -0.808131        1.000000        0.00004616        0.00007567        0.00005130        0.00005406
     101         -0.807741        1.000000        0.00000081        0.00000390        0.00000126        0.00000568
     102         -0.804779        1.000000        0.03063098        0.01939124        0.00283649        0.00408505
     103         -0.803136        1.000000        0.00000252        0.00001256        0.00000884        0.00000184
     104         -0.801399        1.000000        0.00011865        0.00001357        0.00012540        0.00004980
     105         -0.799731        1.000000        0.00426563        0.00390349        0.00070982        0.00095774
     106         -0.798759        1.000000        0.00008421        0.00000768        0.00034995        0.00005008
     107         -0.796935        1.000000        0.00052198        0.00061611        0.00069423        0.00012242
     108         -0.791002        1.000000        0.00004501        0.00009660        0.00006948        0.00004683
     109         -0.788452        1.000000        0.00001471        0.00002228        0.00004220        0.00001380
     110         -0.786993        1.000000        0.00002938        0.00004098        0.00001980        0.00004595
     111         -0.773270        1.000000        0.03675172        0.00052433        0.02345397        0.00154235
     112         -0.629236        1.000000        0.00214668        0.00030969        0.00036602        0.00014357
     113         -0.623175        1.000000        0.00254583        0.00035775        0.00044658        0.00013984
     114         -0.614666        1.000000        0.00246388        0.00042240        0.00056504        0.00043414
     115         -0.613695        1.000000        0.00092032        0.00013008        0.00011911        0.00025317
     116         -0.593180        1.000000        0.00202645        0.00008868        0.00022401        0.00036954
     117         -0.578894        1.000000        0.90064078        0.00023921        0.00158645        0.00064384
     118         -0.575972        1.000000        0.94297561        0.00027551        0.00648250        0.00546208
     119         -0.575409        1.000000        0.00387528        0.00038397        0.00019705        0.00029625
     120         -0.572508        1.000000        0.93476544        0.00136915        0.00466090        0.01415552
     121         -0.567990        1.000000        0.00753745        0.00030856        0.00023015        0.00027648
     122         -0.566872        1.000000        0.91683108        0.00097281        0.00122238        0.00258383
     123         -0.552366        1.000000        0.94786495        0.00042831        0.00076362        0.00052471
     124         -0.537892        1.000000        0.87072153        0.00333279        0.00644120        0.00569595
     125         -0.535692        1.000000        0.92294659        0.00210204        0.00504924        0.00976253
     126         -0.530706        1.000000        0.72825193        0.00531832        0.00298065        0.00206408
     127         -0.530118        1.000000        0.95171959        0.00026724        0.00084868        0.00029207
     128         -0.528386        1.000000        0.82912354        0.00303480        0.00376118        0.00207473
     129         -0.525798        1.000000        0.89944384        0.00140821        0.00555065        0.00433230
     130         -0.524552        1.000000        0.79361406        0.00415289        0.00437969        0.00199583
     131         -0.523217        1.000000        0.81565506        0.00321420        0.00431061        0.00278218
     132         -0.522429        1.000000        0.83837783        0.00295419        0.00516066        0.00295475
     133         -0.520747        1.000000        0.96344591        0.00108253        0.00042442        0.00029631
     134         -0.520522        1.000000        0.88022092        0.00127680        0.00154427        0.00112490
     135         -0.519548        1.000000        0.90238942        0.00171412        0.00089703        0.00080589
     136         -0.518719        1.000000        0.86997637        0.00103404        0.00132129        0.00266949
     137         -0.516356        1.000000        0.85680798        0.00147315        0.00178807        0.00210070
     138         -0.516024        1.000000        0.88092993        0.00065199        0.00089524        0.00216864
     139         -0.513761        1.000000        0.69161650        0.00208300        0.00077959        0.00174739
     140         -0.512593        1.000000        0.76807155        0.00061302        0.00343654        0.00153008
     141         -0.511603        1.000000        0.86429463        0.00167490        0.00126282        0.00124235
     142         -0.511223        1.000000        0.85809310        0.00249269        0.00223996        0.00124615
     143         -0.510081        1.000000        0.91670464        0.00125250        0.00071961        0.00071521
     144         -0.508738        1.000000        0.86642714        0.00185407        0.00270046        0.00144362
     145         -0.507241        1.000000        0.85851593        0.00106626        0.00166693        0.00125492
     146         -0.507011        1.000000        0.93155852        0.00033576        0.00070722        0.00068076
     147         -0.505588        1.000000        0.92967370        0.00085590        0.00014875        0.00037063
     148         -0.504209        1.000000        0.89689043        0.00045487        0.00040380        0.00123251
     149         -0.503270        1.000000        0.76122671        0.00172700        0.00089669        0.00212321
     150         -0.502548        1.000000        0.38794787        0.00176969        0.00057175        0.00079515
     151         -0.502210        1.000000        0.87576587        0.00027315        0.00074646        0.00028993
     152         -0.501466        1.000000        0.32605565        0.00165202        0.00149411        0.00081294
     153         -0.500989        1.000000        0.78943879        0.00165062        0.00049077        0.00178499
     154         -0.499576        1.000000        0.83222059        0.00198445        0.00039820        0.00052613
     155         -0.498498        1.000000        0.89821331        0.00123013        0.00041847        0.00035213
     156         -0.493515        1.000000        0.80249722        0.00122842        0.00096680        0.00105011
     157         -0.492982        1.000000        0.40549883        0.00259256        0.00188147        0.00100587
     158         -0.486626        1.000000        0.20225288        0.00268716        0.00279053        0.00246310
     159         -0.485456        1.000000        0.14246279        0.00415680        0.00163661        0.00156866
     160         -0.481261        1.000000        0.19799581        0.00055715        0.00363558        0.00245716
     161         -0.473309        1.000000        0.06305574        0.00197297        0.00152531        0.00181479
     162         -0.471358        1.000000        0.11920613        0.00161079        0.00083744        0.00033369
     163         -0.466666        1.000000        0.02336520        0.00126222        0.00135881        0.00167741
     164         -0.466140        1.000000        0.08235612        0.00118360        0.00018905        0.00380284
     165         -0.465793        1.000000        0.01628852        0.00311477        0.00006293        0.00052338
     166         -0.465782        1.000000        0.00180927        0.00064268        0.00050602        0.00012492
     167         -0.463911        1.000000        0.07978570        0.00238899        0.00046222        0.00356689
     168         -0.459478        1.000000        0.00383866        0.00035830        0.00053650        0.00188405
     169         -0.457994        1.000000        0.02373424        0.00141383        0.00413701        0.00057490
     170         -0.457565        1.000000        0.02083676        0.00273999        0.00070147        0.00236631
     171         -0.456704        1.000000        0.05244474        0.00117413        0.00096087        0.00440422
     172         -0.454586        1.000000        0.01445422        0.00022608        0.00561629        0.00005324
     173         -0.454035        1.000000        0.00186643        0.00067720        0.00003764        0.00009349
     174         -0.452856        1.000000        0.00338540        0.00149884        0.00035159        0.00011634
     175         -0.451611        1.000000        0.00731540        0.00076107        0.00119376        0.00060314
     176         -0.451340        1.000000        0.00143711        0.00041588        0.00039954        0.00028108
     177         -0.448169        1.000000        0.02390973        0.00096662        0.00067772        0.00291890
     178         -0.447180        1.000000        0.00237734        0.00016968        0.00101653        0.00116536
     179         -0.446386        1.000000        0.01956564        0.00127550        0.00174703        0.00327930
     180         -0.446202        1.000000        0.01052977        0.00316912        0.00138616        0.00136274
     181         -0.445508        1.000000        0.00246674        0.00030304        0.00116767        0.00044468
     182         -0.445293        1.000000        0.00495553        0.00010248        0.00023264        0.00054743
     183         -0.441188        1.000000        0.00964443        0.00307347        0.00050616        0.00248460
     184         -0.440990        1.000000        0.00043565        0.00027050        0.00017633        0.00032459
     185         -0.440881        1.000000        0.00091017        0.00052077        0.00003018        0.00019791
     186         -0.440718        1.000000        0.02763374        0.00348248        0.00071409        0.00129893
     187         -0.440338        1.000000        0.02657611        0.00103739        0.00034243        0.00641849
     188         -0.440109        1.000000        0.00342211        0.00034055        0.00054496        0.00119817
     189         -0.439992        1.000000        0.01149338        0.00066669        0.00651920        0.00176447
     190         -0.439528        1.000000        0.02006006        0.00096232        0.00093924        0.00116275
     191         -0.438659        1.000000        0.01038892        0.00077959        0.00119246        0.00103675
     192         -0.438393        1.000000        0.00164360        0.00037039        0.00058463        0.00018045
     193         -0.438372        1.000000        0.01242563        0.00124248        0.00097980        0.00149544
     194         -0.438254        1.000000        0.00014435        0.00010581        0.00010598        0.00037509
     195         -0.437957        1.000000        0.01641673        0.00164020        0.00095169        0.00282430
     196         -0.436964        1.000000        0.00632187        0.00023957        0.00065787        0.00083563
     197         -0.435929        1.000000        0.00267916        0.00032796        0.00011588        0.00041636
     198         -0.435551        1.000000        0.01100790        0.00104578        0.00050082        0.00205199
     199         -0.433610        1.000000        0.00081851        0.00006426        0.00004169        0.00042534
     200         -0.433002        1.000000        0.00018022        0.00004974        0.00007597        0.00093750
     201         -0.432516        1.000000        0.00110115        0.00171002        0.00054357        0.00043590
     202         -0.432207        1.000000        0.00429074        0.00260922        0.00024098        0.00085578
     203         -0.432053        1.000000        0.00473464        0.00076514        0.00086716        0.00172027
     204         -0.431951        1.000000        0.00589589        0.00051464        0.00064655        0.00121814
     205         -0.430296        1.000000        0.00735264        0.00143081        0.00023912        0.00195679
     206         -0.429598        1.000000        0.00121566        0.00109904        0.00060122        0.00302112
     207         -0.429355        1.000000        0.00319287        0.00135093        0.00012246        0.00085063
     208         -0.429179        1.000000        0.00324357        0.00068134        0.00095691        0.00298774
     209         -0.428137        1.000000        0.01417886        0.00151029        0.00180409        0.00148732
     210         -0.426915        1.000000        0.00105855        0.00016204        0.00016117        0.00016742
     211         -0.426449        1.000000        0.00051910        0.00015007        0.00012459        0.00086824
     212         -0.426422        1.000000        0.00205854        0.00169096        0.00078387        0.00023424
     213         -0.426225        1.000000        0.00224377        0.00567399        0.00042116        0.00067054
     214         -0.424779        1.000000        0.00134726        0.00042804        0.00052620        0.00026632
     215         -0.424699        1.000000        0.00185658        0.00068985        0.00104931        0.00055864
     216         -0.424651        1.000000        0.00512622        0.00173750        0.00301502        0.00047473
     217         -0.424102        1.000000        0.00390887        0.00058863        0.00117393        0.00066182
     218         -0.422671        1.000000        0.00060393        0.00040385        0.00054768        0.00042104
     219         -0.422009        1.000000        0.00236511        0.00057177        0.00018674        0.00160681
     220         -0.419805        1.000000        0.00214278        0.00125563        0.00021727        0.00050335
     221         -0.419591        1.000000        0.00081106        0.00113944        0.00097257        0.00100961
     222         -0.418607        1.000000        0.00076958        0.00028535        0.00181064        0.00198460
     223         -0.418375        1.000000        0.00132567        0.00044065        0.00050950        0.00110710
     224         -0.418095        1.000000        0.00069733        0.00008844        0.00044615        0.00009563
     225         -0.417025        1.000000        0.00060993        0.00097484        0.00020201        0.00011214
     226         -0.416724        1.000000        0.00952759        0.00099879        0.00248093        0.00176038
     227         -0.416494        1.000000        0.00159213        0.00230098        0.00010860        0.00024674
     228         -0.416243        1.000000        0.00146589        0.00027906        0.00014818        0.00019292
     229         -0.415992        1.000000        0.00325705        0.00061843        0.00031437        0.00031943
     230         -0.415601        1.000000        0.00259151        0.00057749        0.00048432        0.00181356
     231         -0.415000        1.000000        0.00035137        0.00019733        0.00031250        0.00042256
     232         -0.414520        1.000000        0.00230825        0.00052126        0.00006670        0.00031239
     233         -0.413969        1.000000        0.00166214        0.00110926        0.00029827        0.00077899
     234         -0.413727        1.000000        0.00065598        0.00012811        0.00060543        0.00029267
     235         -0.413680        1.000000        0.00043765        0.00020121        0.00034738        0.00079981
     236         -0.412955        1.000000        0.00505562        0.00166718        0.00594207        0.00334261
     237         -0.412571        1.000000        0.00149393        0.00082682        0.00086933        0.00031176
     238         -0.412400        1.000000        0.00263747        0.00023707        0.00017262        0.00181657
     239         -0.412272        1.000000        0.00037237        0.00017386        0.00017393        0.00028508
     240         -0.411530        1.000000        0.00025134        0.00018606        0.00005450        0.00055696
     241         -0.410312        1.000000        0.00318703        0.00301906        0.00315622        0.00134629
     242         -0.409676        1.000000        0.00026017        0.00002145        0.00042847        0.00156080
     243         -0.409579        1.000000        0.00163195        0.00066420        0.00097708        0.00195985
     244         -0.408492        1.000000        0.00156654        0.00072665        0.00081883        0.00186582
     245         -0.408193        1.000000        0.00122393        0.00033182        0.00109713        0.00035079
     246         -0.407442        1.000000        0.00382886        0.00167059        0.00157618        0.00474467
     247         -0.404510        1.000000        0.00034320        0.00011721        0.00066643        0.00005033
     248         -0.403931        1.000000        0.00541988        0.00209268        0.00155075        0.00623430
     249         -0.403651        1.000000        0.02969313        0.00804519        0.01618729        0.00847928
     250         -0.403278        1.000000        0.08048940        0.02191593        0.04038896        0.01918963
     251         -0.403098        1.000000        0.00953817        0.00243431        0.00511051        0.00218219
     252         -0.401724        1.000000        0.00052715        0.00011630        0.00007288        0.00256156
     253         -0.401180        1.000000        0.00038452        0.00023370        0.00023756        0.00004580
     254         -0.400991        1.000000        0.00132297        0.00039532        0.00072533        0.00185979
     255         -0.399087        1.000000        0.02721938        0.00896276        0.01899631        0.00908734
     256         -0.398472        1.000000        0.00052696        0.00008154        0.00057282        0.00034270
     257         -0.397634        1.000000        0.05425514        0.02063922        0.02120050        0.01398842
     258         -0.397104        1.000000        0.06070818        0.02315276        0.01833625        0.01390490
     259         -0.396182        1.000000        0.00385498        0.00136774        0.00181539        0.00136179