# Projected DOS for atomic kind H at iteration step i = 0, E(Fermi) =    -0.112050 a.u.
#     MO Eigenvalue [a.u.]      Occupation                 s
       1         -0.905634        1.000000        0.25651747
       2         -0.901779        1.000000        0.24941013
       3         -0.900648        1.000000        0.25477022
       4         -0.897188        1.000000        0.25444977
       5         -0.895660        1.000000        0.25809321
       6         -0.894405        1.000000        0.25559065
       7         -0.892851        1.000000        0.25678047
       8         -0.891926        1.000000        0.25409556
       9         -0.891861        1.000000        0.25358663
      10         -0.889827        1.000000        0.25237716
      11         -0.886852        1.000000        0.25542635
      12         -0.886136        1.000000        0.25662547
      13         -0.884241        1.000000        0.28223231
      14         -0.884121        1.000000        0.28563410
      15         -0.883913        1.000000        0.25759864
      16         -0.879998        1.000000        0.25637907
      17         -0.878692        1.000000        0.26009833
      18         -0.878425        1.000000        0.27833978
      19         -0.878377        1.000000        0.27743017
      20         -0.877788        1.000000        0.28177008
      21         -0.876965        1.000000        0.25668449
      22         -0.876504        1.000000        0.26415888
      23         -0.873766        1.000000        0.25579404
      24         -0.872612        1.000000        0.25424973
      25         -0.870259        1.000000        0.25439003
      26         -0.868998        1.000000        0.25337412
      27         -0.868330        1.000000        0.26709406
      28         -0.867263        1.000000        0.26282317
      29         -0.867194        1.000000        0.26332103
      30         -0.866877        1.000000        0.27988292
      31         -0.865902        1.000000        0.25580244
      32         -0.865820        1.000000        0.26604783
      33         -0.862701        1.000000        0.25983963
      34         -0.861665        1.000000        0.28137815
      35         -0.861419        1.000000        0.26319865
      36         -0.860874        1.000000        0.24954493
      37         -0.860104        1.000000        0.25055147
      38         -0.859939        1.000000        0.26738128
      39         -0.859143        1.000000        0.24975073
      40         -0.858352        1.000000        0.24383794
      41         -0.857062        1.000000        0.26108071
      42         -0.856680        1.000000        0.27539384
      43         -0.855274        1.000000        0.27049887
      44         -0.854412        1.000000        0.26891832
      45         -0.852889        1.000000        0.24517964
      46         -0.852037        1.000000        0.25232904
      47         -0.851359        1.000000        0.26382155
      48         -0.850083        1.000000        0.25611375
      49         -0.850056        1.000000        0.24948719
      50         -0.849096        1.000000        0.25582675
      51         -0.848510        1.000000        0.23588920
      52         -0.848294        1.000000        0.26112475
      53         -0.847473        1.000000        0.23853948
      54         -0.847388        1.000000        0.25422605
      55         -0.846091        1.000000        0.25206866
      56         -0.845040        1.000000        0.24751096
      57         -0.844792        1.000000        0.23348138
      58         -0.843605        1.000000        0.25118478
      59         -0.842133        1.000000        0.23471546
      60         -0.841839        1.000000        0.24569812
      61         -0.841384        1.000000        0.25015087
      62         -0.841273        1.000000        0.25670395
      63         -0.840423        1.000000        0.24348742
      64         -0.838267        1.000000        0.25599833
      65         -0.837943        1.000000        0.25176412
      66         -0.837412        1.000000        0.24732010
      67         -0.837214        1.000000        0.25729724
      68         -0.836317        1.000000        0.21097991
      69         -0.835855        1.000000        0.23949761
      70         -0.834683        1.000000        0.23951809
      71         -0.834588        1.000000        0.24608490
      72         -0.834574        1.000000        0.22260468
      73         -0.833892        1.000000        0.24554901
      74         -0.833677        1.000000        0.23004924
      75         -0.833268        1.000000        0.22712878
      76         -0.831755        1.000000        0.22676037
      77         -0.829591        1.000000        0.19368622
      78         -0.828434        1.000000        0.17976540
      79         -0.828290        1.000000        0.24421626
      80         -0.827001        1.000000        0.25548442
      81         -0.826593        1.000000        0.22093880
      82         -0.826220        1.000000        0.21895018
      83         -0.825129        1.000000        0.21702515
      84         -0.824205        1.000000        0.22592015
      85         -0.823379        1.000000        0.18843242
      86         -0.823290        1.000000        0.25740936
      87         -0.822550        1.000000        0.24007395
      88         -0.822163        1.000000        0.19157063
      89         -0.820444        1.000000        0.24382121
      90         -0.817929        1.000000        0.21449034
      91         -0.815954        1.000000        0.22634132
      92         -0.814961        1.000000        0.23267159
      93         -0.814679        1.000000        0.24177012
      94         -0.814636        1.000000        0.20102068
      95         -0.814396        1.000000        0.25679159
      96         -0.813981        1.000000        0.19981228
      97         -0.813787        1.000000        0.16486503
      98         -0.813773        1.000000        0.19334535
      99         -0.812599        1.000000        0.19582266
     100         -0.808131        1.000000        0.24066341
     101         -0.807741        1.000000        0.24914516
     102         -0.804779        1.000000        0.12377004
     103         -0.803136        1.000000        0.23437602
     104         -0.801399        1.000000        0.18555270
     105         -0.799731        1.000000        0.16626613
     106         -0.798759        1.000000        0.23553005
     107         -0.796935        1.000000        0.16346862
     108         -0.791002        1.000000        0.24509024
     109         -0.788452        1.000000        0.24682983
     110         -0.786993        1.000000        0.19913394
     111         -0.773270        1.000000        0.08830541
     112         -0.629236        1.000000        0.34399761
     113         -0.623175        1.000000        0.34391132
     114         -0.614666        1.000000        0.35035608
     115         -0.613695        1.000000        0.37128713
     116         -0.593180        1.000000        0.35024750
     117         -0.578894        1.000000        0.01436235
     118         -0.575972        1.000000        0.00541956
     119         -0.575409        1.000000        0.36786733
     120         -0.572508        1.000000        0.00844983
     121         -0.567990        1.000000        0.37076949
     122         -0.566872        1.000000        0.01166184
     123         -0.552366        1.000000        0.00428788
     124         -0.537892        1.000000        0.00972040
     125         -0.535692        1.000000        0.00763962
     126         -0.530706        1.000000        0.07890781
     127         -0.530118        1.000000        0.00334251
     128         -0.528386        1.000000        0.03417410
     129         -0.525798        1.000000        0.02268190
     130         -0.524552        1.000000        0.03352123
     131         -0.523217        1.000000        0.03351223
     132         -0.522429        1.000000        0.01975255
     133         -0.520747        1.000000        0.00487345
     134         -0.520522        1.000000        0.02545113
     135         -0.519548        1.000000        0.02287284
     136         -0.518719        1.000000        0.03496650
     137         -0.516356        1.000000        0.03321755
     138         -0.516024        1.000000        0.03861050
     139         -0.513761        1.000000        0.10580125
     140         -0.512593        1.000000        0.06112463
     141         -0.511603        1.000000        0.03305279
     142         -0.511223        1.000000        0.02839311
     143         -0.510081        1.000000        0.01554842
     144         -0.508738        1.000000        0.02546569
     145         -0.507241        1.000000        0.03408884
     146         -0.507011        1.000000        0.00947461
     147         -0.505588        1.000000        0.01985836
     148         -0.504209        1.000000        0.02198375
     149         -0.503270        1.000000        0.07555412
     150         -0.502548        1.000000        0.19153777
     151         -0.502210        1.000000        0.03376570
     152         -0.501466        1.000000        0.22170479
     153         -0.500989        1.000000        0.07162972
     154         -0.499576        1.000000        0.05129300
     155         -0.498498        1.000000        0.03542386
     156         -0.493515        1.000000        0.05279598
     157         -0.492982        1.000000        0.17573280
     158         -0.486626        1.000000        0.24465376
     159         -0.485456        1.000000        0.27142345
     160         -0.481261        1.000000        0.24483961
     161         -0.473309        1.000000        0.31180205
     162         -0.471358        1.000000        0.28479457
     163         -0.466666        1.000000        0.31607959
     164         -0.466140        1.000000        0.29119398
     165         -0.465793        1.000000        0.34695169
     166         -0.465782        1.000000        0.35272537
     167         -0.463911        1.000000        0.32142076
     168         -0.459478        1.000000        0.34971787
     169         -0.457994        1.000000        0.34202658
     170         -0.457565        1.000000        0.34802069
     171         -0.456704        1.000000        0.33749871
     172         -0.454586        1.000000        0.35243802
     173         -0.454035        1.000000        0.35024521
     174         -0.452856        1.000000        0.35462913
     175         -0.451611        1.000000        0.33395005
     176         -0.451340        1.000000        0.35392104
     177         -0.448169        1.000000        0.34887993
     178         -0.447180        1.000000        0.35605149
     179         -0.446386        1.000000        0.34770589
     180         -0.446202        1.000000        0.34389648
     181         -0.445508        1.000000        0.33754146
     182         -0.445293        1.000000        0.34295883
     183         -0.441188        1.000000        0.33174077
     184         -0.440990        1.000000        0.33195436
     185         -0.440881        1.000000        0.34732166
     186         -0.440718        1.000000        0.33783022
     187         -0.440338        1.000000        0.34571477
     188         -0.440109        1.000000        0.33639999
     189         -0.439992        1.000000        0.34646667
     190         -0.439528        1.000000        0.33609263
     191         -0.438659        1.000000        0.34265099
     192         -0.438393        1.000000        0.35291863
     193         -0.438372        1.000000        0.34367059
     194         -0.438254        1.000000        0.34715750
     195         -0.437957        1.000000        0.34006982
     196         -0.436964        1.000000        0.33306556
     197         -0.435929        1.000000        0.34892791
     198         -0.435551        1.000000        0.34277608
     199         -0.433610        1.000000        0.34062410
     200         -0.433002        1.000000        0.34179887
     201         -0.432516        1.000000        0.34301373
     202         -0.432207        1.000000        0.35444509
     203         -0.432053        1.000000        0.34269514
     204         -0.431951        1.000000        0.33909559
     205         -0.430296        1.000000        0.34613597
     206         -0.429598        1.000000        0.33473876
     207         -0.429355        1.000000        0.34286174
     208         -0.429179        1.000000        0.34957260
     209         -0.428137        1.000000        0.33719273
     210         -0.426915        1.000000        0.34894266
     211         -0.426449        1.000000        0.33400987
     212         -0.426422        1.000000        0.33957539
     213         -0.426225        1.000000        0.35958808
     214         -0.424779        1.000000        0.34105675
     215         -0.424699        1.000000        0.33756249
     216         -0.424651        1.000000        0.34151104
     217         -0.424102        1.000000        0.34099753
     218         -0.422671        1.000000        0.33707159
     219         -0.422009        1.000000        0.33883233
     220         -0.419805        1.000000        0.34875494
     221         -0.419591        1.000000        0.34129776
     222         -0.418607        1.000000        0.34556840
     223         -0.418375        1.000000        0.34836911
     224         -0.418095        1.000000        0.35483479
     225         -0.417025        1.000000        0.34918534
     226         -0.416724        1.000000        0.33926587
     227         -0.416494        1.000000        0.34914607
     228         -0.416243        1.000000        0.33092350
     229         -0.415992        1.000000        0.33496121
     230         -0.415601        1.000000        0.34721019
     231         -0.415000        1.000000        0.33061096
     232         -0.414520        1.000000        0.33701769
     233         -0.413969        1.000000        0.34117076
     234         -0.413727        1.000000        0.34512134
     235         -0.413680        1.000000        0.34624758
     236         -0.412955        1.000000        0.33009857
     237         -0.412571        1.000000        0.33442462
     238         -0.412400        1.000000        0.35004605
     239         -0.412272        1.000000        0.34333164
     240         -0.411530        1.000000        0.33846907
     241         -0.410312        1.000000        0.18326948
     242         -0.409676        1.000000        0.35394353
     243         -0.409579        1.000000        0.35823285
     244         -0.408492        1.000000        0.34719339
     245         -0.408193        1.000000        0.34527215
     246         -0.407442        1.000000        0.33455457
     247         -0.404510        1.000000        0.35176348
     248         -0.403931        1.000000        0.31357752
     249         -0.403651        1.000000        0.15664975
     250         -0.403278        1.000000        0.10455191
     251         -0.403098        1.000000        0.32070732
     252         -0.401724        1.000000        0.33958960
     253         -0.401180        1.000000        0.35548642
     254         -0.400991        1.000000        0.33742619
     255         -0.399087        1.000000        0.28020224
     256         -0.398472        1.000000        0.36744646
     257         -0.397634        1.000000        0.18412810
     258         -0.397104        1.000000        0.18249907
     259         -0.396182        1.000000        0.33877697
     260         -0.395293        1.000000        0.14898092
     261         -0.394071        1.000000        0.18033105
     262         -0.393687        1.000000        0.09833747
     263         -0.393462        1.000000        0.34046798
     264         -0.392879        1.000000        0.34552492
     265         -0.390735        1.000000        0.24351780
     266         -0.390119        1.000000        0.36250810
     267         -0.389904        1.000000        0.17324823
     268         -0.388921        1.000000        0.16513291
     269         -0.388753        1.000000        0.10207865
     270         -0.387089        1.000000        0.36754741
     271         -0.386895        1.000000        0.10130472
     272         -0.386389        1.000000        0.07612071
     273         -0.385764        1.000000        0.21134310
     274         -0.385520        1.000000        0.29513361
     275         -0.384955        1.000000        0.32158353
     276         -0.381336        1.000000        0.33316648
     277         -0.379271        1.000000        0.34927751
     278         -0.379249        1.000000        0.34201352
     279         -0.379119        1.000000        0.36089636
     280         -0.378183        1.000000        0.30725828
     281         -0.378121        1.000000        0.23577924
     282         -0.377449        1.000000        0.07914816
     283         -0.376204        1.000000        0.33560371
     284         -0.374675        1.000000        0.34870860
     285         -0.372516        1.000000        0.19782184
     286         -0.369525        1.000000        0.29883125
     287         -0.359525        1.000000        0.34721193
     288         -0.349640        1.000000        0.17891881
     289         -0.346737        1.000000        0.42397423
     290         -0.346428        1.000000        0.17559485
     291         -0.345567        1.000000        0.35163569
     292         -0.342376        1.000000        0.41698621
     293         -0.340600        1.000000        0.20123553
     294         -0.340404        1.000000        0.39823417
     295         -0.338409        1.000000        0.40697084
     296         -0.337351        1.000000        0.28931671
     297         -0.336795        1.000000        0.32083255
     298         -0.334173        1.000000        0.42467656
     299         -0.330784        1.000000        0.41996777
     300         -0.326287        1.000000        0.15884173
     301         -0.322478        1.000000        0.14613706
     302         -0.322014        1.000000        0.17819731
     303         -0.320659        1.000000        0.20745514
     304         -0.319548        1.000000        0.18083253
     305         -0.316508        1.000000        0.33202424
     306         -0.313077        1.000000        0.14605140
     307         -0.312556        1.000000        0.21233641
     308         -0.311209        1.000000        0.14970013
     309         -0.311077        1.000000        0.13586147
     310         -0.309634        1.000000        0.13869638
     311         -0.309270        1.000000        0.37297586
     312         -0.309053        1.000000        0.12368114
     313         -0.307262        1.000000        0.31064905
     314         -0.303683        1.000000        0.31217033
     315         -0.303002        1.000000        0.16574097
     316         -0.300578        1.000000        0.14737267
     317         -0.299220        1.000000        0.11978431
     318         -0.298314        1.000000        0.40401270
     319         -0.297320        1.000000        0.13562795
     320         -0.297101        1.000000        0.13752501
     321         -0.296747        1.000000        0.13620268
     322         -0.294852        1.000000        0.13960759
     323         -0.293824        1.000000        0.38811616
     324         -0.292883        1.000000        0.11313387
     325         -0.290865        1.000000        0.11005239
     326         -0.285886        1.000000        0.19985817
     327         -0.285204        1.000000        0.10082854
     328         -0.285025        1.000000        0.11077422
     329         -0.284921        1.000000        0.10669944
     330         -0.284715        1.000000        0.04109369
     331         -0.282867        1.000000        0.10827932
     332         -0.282677        1.000000        0.09815358
     333         -0.282466        1.000000        0.12794146
     334         -0.282244        1.000000        0.11272207
     335         -0.281589        1.000000        0.14777581
     336         -0.279291        1.000000        0.04641701
     337         -0.277746        1.000000        0.11297611
     338         -0.276750        1.000000        0.11412373
     339         -0.276487        1.000000        0.10657319
     340         -0.272692        1.000000        0.10815492
     341         -0.269245        1.000000        0.04421247
     342         -0.268986        1.000000        0.07141644
     343         -0.267680        1.000000        0.05161125
     344         -0.267239        1.000000        0.13697711
     345         -0.266016        1.000000        0.08652633
     346         -0.265464        1.000000        0.10023682
     347         -0.263054        1.000000        0.07060382
     348         -0.260361        1.000000        0.07855741
     349         -0.260104        1.000000        0.08001391
     350         -0.259240        1.000000        0.09651920
     351         -0.258843        1.000000        0.08183911
     352         -0.257251        1.000000        0.09365311
     353         -0.256880        1.000000        0.08942191
     354         -0.255921        1.000000        0.10940114
     355         -0.255482        1.000000        0.04038140
     356         -0.253204        1.000000        0.07391197
     357         -0.251142        1.000000        0.06351466
     358         -0.249090        1.000000        0.08984171
     359         -0.247938        1.000000        0.08412466
     360         -0.246923        1.000000        0.07566110
     361         -0.245524        1.000000        0.07750831
     362         -0.242238        1.000000        0.04739329
     363         -0.242130        1.000000        0.04252108
     364         -0.241129        1.000000        0.07561397
     365         -0.240389        1.000000        0.07990201
     366         -0.239041        1.000000        0.06188763
     367         -0.238467        1.000000        0.08180720
     368         -0.237553        1.000000        0.07957224
     369         -0.236926        1.000000        0.06174466
     370         -0.236120        1.000000        0.05956597
     371         -0.235354        1.000000        0.06456011
     372         -0.235051        1.000000        0.07051159
     373         -0.233112        1.000000        0.06867129
     374         -0.232617        1.000000        0.07851089
     375         -0.230192        1.000000        0.03206777
     376         -0.227704        1.000000        0.05912737
     377         -0.225819        1.000000        0.05567150
     378         -0.225324        1.000000        0.02046274
     379         -0.225276        1.000000        0.07452156
     380         -0.225188        1.000000        0.03543995
     381         -0.223773        1.000000        0.02770132
     382         -0.223408        1.000000        0.06747605
     383         -0.222462        1.000000        0.02512152
     384         -0.221851        1.000000        0.02153881
     385         -0.221606        1.000000        0.02130130
     386         -0.220732        1.000000        0.01239646
     387         -0.220397        1.000000        0.02013525
     388         -0.219966        1.000000        0.03500775
     389         -0.219209        1.000000        0.02360028
     390         -0.218532        1.000000        0.02015842
     391         -0.218079        1.000000        0.01695644
     392         -0.215665        1.000000        0.00663582
     393         -0.215498        1.000000        0.00310905
     394         -0.214305        1.000000        0.06767920
     395         -0.213507        1.000000        0.03536816
     396         -0.213254        1.000000        0.00780845
     397         -0.212720        1.000000        0.04149131
     398         -0.212549        1.000000        0.02543930
     399         -0.211966        1.000000        0.01571932
     400         -0.211250        1.000000        0.01348753
     401         -0.210775        1.000000        0.01785671
     402         -0.210310        1.000000        0.02630685
     403         -0.209871        1.000000        0.02859079
     404         -0.209426        1.000000        0.07476316
     405         -0.208823        1.000000        0.01901208
     406         -0.208675        1.000000        0.01024116
     407         -0.207479        1.000000        0.00648656
     408         -0.206416        1.000000        0.02684242
     409         -0.206174        1.000000        0.02840670
     410         -0.205617        1.000000        0.02918784
     411         -0.205505        1.000000        0.01856281
     412         -0.205350        1.000000        0.02428630
     413         -0.205035        1.000000        0.02418677
     414         -0.204385        1.000000        0.01864892
     415         -0.203752        1.000000        0.01603179
     416         -0.202997        1.000000        0.05244136
     417         -0.202859        1.000000        0.01452248
     418         -0.202161        1.000000        0.02810501
     419         -0.201535        1.000000        0.00549876
     420         -0.201367        1.000000        0.00764134
     421         -0.201221        1.000000        0.00548624
     422         -0.200981        1.000000        0.01289079
     423         -0.200554        1.000000        0.00904719
     424         -0.200198        1.000000        0.00542071
     425         -0.199256        1.000000        0.01207645
     426         -0.199185        1.000000        0.02049517
     427         -0.198855        1.000000        0.01370362
     428         -0.198498        1.000000        0.00715643
     429         -0.198049        1.000000        0.01040017
     430         -0.197710        1.000000        0.01014932
     431         -0.197086        1.000000        0.01249718
     432         -0.196850        1.000000        0.00912585
     433         -0.196698        1.000000        0.01718119
     434         -0.196295        1.000000        0.01386057
     435         -0.196177        1.000000        0.01018416
     436         -0.194978        1.000000        0.00490850
     437         -0.194629        1.000000        0.00846401
     438         -0.194030        1.000000        0.00677301
     439         -0.193437        1.000000        0.00856675
     440         -0.193326        1.000000        0.00897416
     441         -0.193061        1.000000        0.00571470
     442         -0.192396        1.000000        0.00663534
     443         -0.192138        1.000000        0.00615762
     444         -0.191470        1.000000        0.04836968
     445         -0.190706        1.000000        0.00925735
     446         -0.190501        1.000000        0.00922463
     447         -0.190209        1.000000        0.03296044
     448         -0.189947        1.000000        0.01311099
     449         -0.189528        1.000000        0.00846262
     450         -0.188812        1.000000        0.00944850
     451         -0.188453        1.000000        0.00421134
     452         -0.187971        1.000000        0.00355437
     453         -0.187593        1.000000        0.00389116
     454         -0.187432        1.000000        0.00458420
     455         -0.187076        1.000000        0.00907841
     456         -0.186820        1.000000        0.00526676
     457         -0.186637        1.000000        0.00680249
     458         -0.186107        1.000000        0.01252095
     459         -0.185691        1.000000        0.00585215
     460         -0.185294        1.000000        0.02024767
     461         -0.184952        1.000000        0.00671150
     462         -0.184706        1.000000        0.00348069
     463         -0.184004        1.000000        0.00465635
     464         -0.183510        1.000000        0.00530267
     465         -0.183072        1.000000        0.00435126
     466         -0.182437        1.000000        0.00256965
     467         -0.181608        1.000000        0.00610646
     468         -0.181370        1.000000        0.01225008
     469         -0.180553        1.000000        0.03071535
     470         -0.180215        1.000000        0.01102637
     471         -0.180051        1.000000        0.00432837
     472         -0.179701        1.000000        0.01243654
     473         -0.178807        1.000000        0.00362110
     474         -0.178641        1.000000        0.00773428
     475         -0.178553        1.000000        0.00373403
     476         -0.177755        1.000000        0.00653457
     477         -0.177442        1.000000        0.00431040
     478         -0.177139        1.000000        0.00336992
     479         -0.176693        1.000000        0.00575489
     480         -0.176588        1.000000        0.00309769
     481         -0.176352        1.000000        0.00972188
     482         -0.176051        1.000000        0.01447517
     483         -0.175276        1.000000        0.00925508
     484         -0.175090        1.000000        0.00399765
     485         -0.174556        1.000000        0.00513264
     486         -0.174184        1.000000        0.02051861
     487         -0.173965        1.000000        0.01922633
     488         -0.173354        1.000000        0.00404997
     489         -0.173173        1.000000        0.00239341