# Projected DOS for atomic kind Pb at iteration step i = 0, E(Fermi) =    -0.112050 a.u.
#     MO Eigenvalue [a.u.]      Occupation                 s                py                pz                px
       1         -0.905634        1.000000        0.00000004        0.00000016        0.00000000        0.00000003
       2         -0.901779        1.000000        0.00000016        0.00000099        0.00000010        0.00000000
       3         -0.900648        1.000000        0.00000023        0.00000118        0.00000003        0.00000092
       4         -0.897188        1.000000        0.00000011        0.00000060        0.00000003        0.00000006
       5         -0.895660        1.000000        0.00000021        0.00000023        0.00000020        0.00000119
       6         -0.894405        1.000000        0.00000001        0.00000004        0.00000001        0.00000000
       7         -0.892851        1.000000        0.00000033        0.00000004        0.00000001        0.00000134
       8         -0.891926        1.000000        0.00000007        0.00000040        0.00000030        0.00000061
       9         -0.891861        1.000000        0.00000013        0.00000118        0.00000061        0.00000001
      10         -0.889827        1.000000        0.00000086        0.00000305        0.00001391        0.00000674
      11         -0.886852        1.000000        0.00000004        0.00000001        0.00000001        0.00000018
      12         -0.886136        1.000000        0.00000013        0.00000141        0.00000014        0.00000069
      13         -0.884241        1.000000        0.00000031        0.00000248        0.00000574        0.00000066
      14         -0.884121        1.000000        0.00000020        0.00000112        0.00000015        0.00000031
      15         -0.883913        1.000000        0.00000022        0.00000005        0.00000024        0.00000201
      16         -0.879998        1.000000        0.00000073        0.00000423        0.00000005        0.00001556
      17         -0.878692        1.000000        0.00000066        0.00000126        0.00000351        0.00000059
      18         -0.878425        1.000000        0.00000022        0.00000458        0.00000468        0.00000260
      19         -0.878377        1.000000        0.00000072        0.00000243        0.00000120        0.00000439
      20         -0.877788        1.000000        0.00000088        0.00000250        0.00000303        0.00001103
      21         -0.876965        1.000000        0.00000018        0.00000000        0.00000004        0.00000076
      22         -0.876504        1.000000        0.00000001        0.00000016        0.00000002        0.00000013
      23         -0.873766        1.000000        0.00000044        0.00000510        0.00000342        0.00000393
      24         -0.872612        1.000000        0.00000005        0.00000001        0.00000028        0.00000000
      25         -0.870259        1.000000        0.00000044        0.00000005        0.00000200        0.00000023
      26         -0.868998        1.000000        0.00000000        0.00000121        0.00000005        0.00000408
      27         -0.868330        1.000000        0.00000018        0.00000016        0.00001099        0.00000169
      28         -0.867263        1.000000        0.00000036        0.00000003        0.00000010        0.00000297
      29         -0.867194        1.000000        0.00000012        0.00000128        0.00000004        0.00000017
      30         -0.866877        1.000000        0.00000053        0.00000574        0.00000550        0.00000414
      31         -0.865902        1.000000        0.00000011        0.00000040        0.00000085        0.00000000
      32         -0.865820        1.000000        0.00000063        0.00000006        0.00000017        0.00000892
      33         -0.862701        1.000000        0.00000010        0.00000014        0.00000017        0.00000116
      34         -0.861665        1.000000        0.00000040        0.00000042        0.00000616        0.00000056
      35         -0.861419        1.000000        0.00000012        0.00000076        0.00000046        0.00000089
      36         -0.860874        1.000000        0.00000004        0.00000070        0.00000199        0.00000108
      37         -0.860104        1.000000        0.00000054        0.00000160        0.00000319        0.00000538
      38         -0.859939        1.000000        0.00000063        0.00000087        0.00000225        0.00001040
      39         -0.859143        1.000000        0.00000029        0.00000086        0.00000049        0.00000110
      40         -0.858352        1.000000        0.00000009        0.00000091        0.00000224        0.00000127
      41         -0.857062        1.000000        0.00000022        0.00000208        0.00000122        0.00000136
      42         -0.856680        1.000000        0.00000061        0.00000164        0.00000051        0.00000249
      43         -0.855274        1.000000        0.00000035        0.00000016        0.00000181        0.00000009
      44         -0.854412        1.000000        0.00000014        0.00000297        0.00000052        0.00000046
      45         -0.852889        1.000000        0.00000005        0.00000045        0.00000024        0.00000330
      46         -0.852037        1.000000        0.00000022        0.00000008        0.00000135        0.00000010
      47         -0.851359        1.000000        0.00000131        0.00000994        0.00000551        0.00000022
      48         -0.850083        1.000000        0.00000005        0.00000009        0.00000008        0.00000019
      49         -0.850056        1.000000        0.00000036        0.00000206        0.00000601        0.00000346
      50         -0.849096        1.000000        0.00000002        0.00000109        0.00000062        0.00000053
      51         -0.848510        1.000000        0.00000091        0.00000019        0.00000615        0.00000349
      52         -0.848294        1.000000        0.00000047        0.00000002        0.00000552        0.00000009
      53         -0.847473        1.000000        0.00000001        0.00000013        0.00000025        0.00000055
      54         -0.847388        1.000000        0.00000004        0.00000072        0.00000081        0.00000014
      55         -0.846091        1.000000        0.00000004        0.00000028        0.00000047        0.00000029
      56         -0.845040        1.000000        0.00000001        0.00000003        0.00000005        0.00000007
      57         -0.844792        1.000000        0.00000079        0.00000031        0.00000479        0.00000061
      58         -0.843605        1.000000        0.00000005        0.00000339        0.00000387        0.00000041
      59         -0.842133        1.000000        0.00000012        0.00000078        0.00000132        0.00000091
      60         -0.841839        1.000000        0.00000143        0.00000978        0.00001323        0.00000969
      61         -0.841384        1.000000        0.00000002        0.00000037        0.00000001        0.00000043
      62         -0.841273        1.000000        0.00000001        0.00000008        0.00000003        0.00000004
      63         -0.840423        1.000000        0.00000003        0.00000125        0.00000068        0.00000018
      64         -0.838267        1.000000        0.00000025        0.00000007        0.00000029        0.00000094
      65         -0.837943        1.000000        0.00000027        0.00000022        0.00000021        0.00000043
      66         -0.837412        1.000000        0.00000025        0.00000003        0.00000154        0.00000227
      67         -0.837214        1.000000        0.00000017        0.00000001        0.00000088        0.00000000
      68         -0.836317        1.000000        0.00000005        0.00000314        0.00000735        0.00000247
      69         -0.835855        1.000000        0.00000015        0.00000002        0.00000077        0.00000092
      70         -0.834683        1.000000        0.00000005        0.00000017        0.00000044        0.00000005
      71         -0.834588        1.000000        0.00000005        0.00000016        0.00000011        0.00000005
      72         -0.834574        1.000000        0.00000021        0.00000100        0.00000033        0.00000031
      73         -0.833892        1.000000        0.00000008        0.00000048        0.00000073        0.00000069
      74         -0.833677        1.000000        0.00000042        0.00000017        0.00000174        0.00000026
      75         -0.833268        1.000000        0.00000029        0.00000084        0.00000029        0.00000042
      76         -0.831755        1.000000        0.00000000        0.00000013        0.00000006        0.00000143
      77         -0.829591        1.000000        0.00000043        0.00000272        0.00000429        0.00000328
      78         -0.828434        1.000000        0.00000329        0.00002020        0.00000840        0.00000077
      79         -0.828290        1.000000        0.00000002        0.00000008        0.00000041        0.00000003
      80         -0.827001        1.000000        0.00000000        0.00000000        0.00000002        0.00000003
      81         -0.826593        1.000000        0.00000017        0.00000103        0.00000060        0.00000004
      82         -0.826220        1.000000        0.00000069        0.00000468        0.00000089        0.00000021
      83         -0.825129        1.000000        0.00000047        0.00000022        0.00000230        0.00000034
      84         -0.824205        1.000000        0.00000020        0.00000006        0.00000011        0.00000230
      85         -0.823379        1.000000        0.00000048        0.00000050        0.00000007        0.00000147
      86         -0.823290        1.000000        0.00000004        0.00000023        0.00000013        0.00000012
      87         -0.822550        1.000000        0.00000007        0.00000027        0.00000029        0.00000037
      88         -0.822163        1.000000        0.00000016        0.00000121        0.00000067        0.00000020
      89         -0.820444        1.000000        0.00000000        0.00000040        0.00000001        0.00000047
      90         -0.817929        1.000000        0.00000078        0.00000080        0.00000065        0.00000132
      91         -0.815954        1.000000        0.00000019        0.00000005        0.00000008        0.00000060
      92         -0.814961        1.000000        0.00000008        0.00000305        0.00000070        0.00000028
      93         -0.814679        1.000000        0.00000000        0.00000004        0.00000017        0.00000006
      94         -0.814636        1.000000        0.00000018        0.00000051        0.00000093        0.00000027
      95         -0.814396        1.000000        0.00000013        0.00000013        0.00000090        0.00000210
      96         -0.813981        1.000000        0.00000007        0.00000050        0.00000002        0.00000032
      97         -0.813787        1.000000        0.00000050        0.00000069        0.00000337        0.00000592
      98         -0.813773        1.000000        0.00000123        0.00000116        0.00001065        0.00000128
      99         -0.812599        1.000000        0.00000173        0.00000940        0.00000279        0.00000007
     100         -0.808131        1.000000        0.00000031        0.00000116        0.00000142        0.00000107
     101         -0.807741        1.000000        0.00000000        0.00000000        0.00000000        0.00000000
     102         -0.804779        1.000000        0.00000939        0.00006129        0.00000741        0.00000017
     103         -0.803136        1.000000        0.00000001        0.00000006        0.00000003        0.00000002
     104         -0.801399        1.000000        0.00000022        0.00000007        0.00000119        0.00000011
     105         -0.799731        1.000000        0.00000413        0.00002061        0.00000080        0.00000000
     106         -0.798759        1.000000        0.00000051        0.00000002        0.00000197        0.00000006
     107         -0.796935        1.000000        0.00000032        0.00000004        0.00000115        0.00000102
     108         -0.791002        1.000000        0.00000004        0.00000031        0.00000010        0.00000000
     109         -0.788452        1.000000        0.00000015        0.00000053        0.00000081        0.00000076
     110         -0.786993        1.000000        0.00000022        0.00000079        0.00000093        0.00000072
     111         -0.773270        1.000000        0.00002830        0.00000471        0.00015273        0.00000424
     112         -0.629236        1.000000        0.00001750        0.00002050        0.00001697        0.00000669
     113         -0.623175        1.000000        0.00003957        0.00003176        0.00003525        0.00001221
     114         -0.614666        1.000000        0.00005335        0.00005354        0.00004424        0.00001465
     115         -0.613695        1.000000        0.00003189        0.00003773        0.00004864        0.00002460
     116         -0.593180        1.000000        0.00000782        0.00001712        0.00000319        0.00000309
     117         -0.578894        1.000000        0.00535460        0.00023207        0.00676572        0.00004677
     118         -0.575972        1.000000        0.00269571        0.00017176        0.00269077        0.00131010
     119         -0.575409        1.000000        0.00023290        0.00010718        0.00004203        0.00009957
     120         -0.572508        1.000000        0.00651197        0.00063649        0.00679972        0.00045315
     121         -0.567990        1.000000        0.00049286        0.00003019        0.00030652        0.00009695
     122         -0.566872        1.000000        0.00105184        0.00229690        0.00083821        0.00015965
     123         -0.552366        1.000000        0.00999084        0.00778933        0.00014210        0.00007733
     124         -0.537892        1.000000        0.06578450        0.00050326        0.01743088        0.00156505
     125         -0.535692        1.000000        0.02800990        0.00047122        0.00686041        0.00233826
     126         -0.530706        1.000000        0.04609170        0.00098931        0.01153889        0.00084862
     127         -0.530118        1.000000        0.00499268        0.00256746        0.00118382        0.00009489
     128         -0.528386        1.000000        0.06083363        0.00236728        0.00646045        0.01086447
     129         -0.525798        1.000000        0.01100747        0.00078351        0.00375153        0.01306504
     130         -0.524552        1.000000        0.09014393        0.01326261        0.00203299        0.00151976
     131         -0.523217        1.000000        0.06974209        0.01046165        0.00712991        0.00068055
     132         -0.522429        1.000000        0.07951834        0.00923023        0.01095555        0.00109775
     133         -0.520747        1.000000        0.00458518        0.00976795        0.00370863        0.00106964
     134         -0.520522        1.000000        0.04905814        0.00877468        0.00397183        0.00041770
     135         -0.519548        1.000000        0.02129273        0.00550630        0.00756267        0.00088345
     136         -0.518719        1.000000        0.01334634        0.00591738        0.00615072        0.01147232
     137         -0.516356        1.000000        0.02732809        0.00891165        0.00555833        0.00823846
     138         -0.516024        1.000000        0.00324534        0.00113211        0.00373994        0.01087318
     139         -0.513761        1.000000        0.00668360        0.00039024        0.01219417        0.00471878
     140         -0.512593        1.000000        0.02865844        0.00642737        0.01328114        0.00487798
     141         -0.511603        1.000000        0.03141291        0.00575421        0.00371938        0.00710835
     142         -0.511223        1.000000        0.03528942        0.00880907        0.01663000        0.00190609
     143         -0.510081        1.000000        0.00886480        0.02509193        0.00516071        0.00355965
     144         -0.508738        1.000000        0.04405484        0.00201684        0.01506475        0.00512154
     145         -0.507241        1.000000        0.02015741        0.00759492        0.01034743        0.01423337
     146         -0.507011        1.000000        0.00328778        0.00329543        0.01567500        0.02161521
     147         -0.505588        1.000000        0.00569959        0.01107872        0.00265476        0.00708531
     148         -0.504209        1.000000        0.00653082        0.00258682        0.00156947        0.02544614
     149         -0.503270        1.000000        0.01787742        0.01404091        0.00055225        0.00196031
     150         -0.502548        1.000000        0.00142386        0.00486341        0.00505283        0.00297902
     151         -0.502210        1.000000        0.00049401        0.00089628        0.01534406        0.01121545
     152         -0.501466        1.000000        0.00124961        0.00417144        0.00238384        0.00293843
     153         -0.500989        1.000000        0.00021927        0.00359200        0.00472629        0.01598929
     154         -0.499576        1.000000        0.00423709        0.00241238        0.00428778        0.02037156
     155         -0.498498        1.000000        0.00635103        0.00078820        0.00300748        0.00833130
     156         -0.493515        1.000000        0.01055548        0.01607557        0.00378858        0.00097226
     157         -0.492982        1.000000        0.00804190        0.00375184        0.00642335        0.00066462
     158         -0.486626        1.000000        0.00642368        0.00108644        0.00429622        0.00061672
     159         -0.485456        1.000000        0.00302423        0.00280743        0.00116479        0.00086391
     160         -0.481261        1.000000        0.00621592        0.00398134        0.00126809        0.00075350
     161         -0.473309        1.000000        0.00078448        0.00007880        0.00021807        0.00047460
     162         -0.471358        1.000000        0.00340451        0.00033410        0.00027855        0.00244731
     163         -0.466666        1.000000        0.00042391        0.00001893        0.00011724        0.00022274
     164         -0.466140        1.000000        0.00118064        0.00003217        0.00138826        0.00025655
     165         -0.465793        1.000000        0.00135015        0.00049231        0.00000690        0.00005542
     166         -0.465782        1.000000        0.00002367        0.00002543        0.00000134        0.00000352
     167         -0.463911        1.000000        0.00467681        0.00263651        0.00003299        0.00000215
     168         -0.459478        1.000000        0.00039044        0.00005919        0.00000929        0.00001089
     169         -0.457994        1.000000        0.00202093        0.00036728        0.00000420        0.00065347
     170         -0.457565        1.000000        0.00458806        0.00037347        0.00007650        0.00029020
     171         -0.456704        1.000000        0.00098832        0.00055710        0.00001139        0.00134732
     172         -0.454586        1.000000        0.00051557        0.00035073        0.00005248        0.00000065
     173         -0.454035        1.000000        0.00036908        0.00006502        0.00000204        0.00000377
     174         -0.452856        1.000000        0.00002000        0.00001337        0.00000175        0.00000018
     175         -0.451611        1.000000        0.00104441        0.00002048        0.00008588        0.00015607
     176         -0.451340        1.000000        0.00022953        0.00004715        0.00001270        0.00000484
     177         -0.448169        1.000000        0.00125333        0.00060342        0.00000482        0.00002110
     178         -0.447180        1.000000        0.00004193        0.00000137        0.00000377        0.00001754
     179         -0.446386        1.000000        0.00349997        0.00001004        0.00004154        0.00097293
     180         -0.446202        1.000000        0.00178356        0.00009818        0.00004106        0.00022926
     181         -0.445508        1.000000        0.00057989        0.00002549        0.00000454        0.00009300
     182         -0.445293        1.000000        0.00015798        0.00013756        0.00000148        0.00001800
     183         -0.441188        1.000000        0.00210323        0.00003087        0.00027282        0.00001943
     184         -0.440990        1.000000        0.00002503        0.00000729        0.00000138        0.00000026
     185         -0.440881        1.000000        0.00009444        0.00001081        0.00000060        0.00001950
     186         -0.440718        1.000000        0.00225268        0.00008396        0.00005064        0.00055733
     187         -0.440338        1.000000        0.00385942        0.00000804        0.00000592        0.00097931
     188         -0.440109        1.000000        0.00001004        0.00010757        0.00000060        0.00001165
     189         -0.439992        1.000000        0.00835054        0.00007490        0.00073183        0.00002103
     190         -0.439528        1.000000        0.00178417        0.00003403        0.00006450        0.00050169
     191         -0.438659        1.000000        0.00118092        0.00002427        0.00001214        0.00030231
     192         -0.438393        1.000000        0.00024146        0.00002062        0.00000503        0.00002623
     193         -0.438372        1.000000        0.00149163        0.00003569        0.00002921        0.00028527
     194         -0.438254        1.000000        0.00000601        0.00000140        0.00000029        0.00000032
     195         -0.437957        1.000000        0.00405860        0.00000843        0.00002086        0.00045425
     196         -0.436964        1.000000        0.00020909        0.00021999        0.00002386        0.00000931
     197         -0.435929        1.000000        0.00033294        0.00000416        0.00000572        0.00004359
     198         -0.435551        1.000000        0.00332018        0.00002458        0.00004583        0.00036998
     199         -0.433610        1.000000        0.00014712        0.00000290        0.00001717        0.00001831
     200         -0.433002        1.000000        0.00005707        0.00000101        0.00000653        0.00000116
     201         -0.432516        1.000000        0.00073865        0.00000173        0.00002252        0.00000433
     202         -0.432207        1.000000        0.00151794        0.00000392        0.00011540        0.00000401
     203         -0.432053        1.000000        0.00369465        0.00001403        0.00005133        0.00013219
     204         -0.431951        1.000000        0.00127637        0.00000923        0.00007383        0.00007604
     205         -0.430296        1.000000        0.00097372        0.00026025        0.00000259        0.00000643
     206         -0.429598        1.000000        0.00015425        0.00001289        0.00000681        0.00000064
     207         -0.429355        1.000000        0.00043778        0.00009573        0.00000141        0.00001293
     208         -0.429179        1.000000        0.00383461        0.00001641        0.00001408        0.00019360
     209         -0.428137        1.000000        0.00386561        0.00011775        0.00001052        0.00018269
     210         -0.426915        1.000000        0.00010956        0.00000453        0.00000611        0.00002911
     211         -0.426449        1.000000        0.00003594        0.00000841        0.00000447        0.00001654
     212         -0.426422        1.000000        0.00013728        0.00001738        0.00005372        0.00001676
     213         -0.426225        1.000000        0.00061217        0.00000106        0.00002886        0.00000597
     214         -0.424779        1.000000        0.00080225        0.00000151        0.00002808        0.00001873
     215         -0.424699        1.000000        0.00195245        0.00000495        0.00006873        0.00000697
     216         -0.424651        1.000000        0.00659420        0.00000783        0.00022640        0.00002051
     217         -0.424102        1.000000        0.00060161        0.00005515        0.00000210        0.00006150
     218         -0.422671        1.000000        0.00061950        0.00000250        0.00002406        0.00000681
     219         -0.422009        1.000000        0.00139240        0.00001106        0.00007418        0.00001538
     220         -0.419805        1.000000        0.00114623        0.00000194        0.00000361        0.00012722
     221         -0.419591        1.000000        0.00061230        0.00000698        0.00003352        0.00001274
     222         -0.418607        1.000000        0.00126809        0.00000367        0.00003739        0.00000895
     223         -0.418375        1.000000        0.00161152        0.00001161        0.00003880        0.00000789
     224         -0.418095        1.000000        0.00032859        0.00000851        0.00005718        0.00001038
     225         -0.417025        1.000000        0.00054627        0.00000707        0.00000978        0.00000208
     226         -0.416724        1.000000        0.00225028        0.00009093        0.00002866        0.00007439
     227         -0.416494        1.000000        0.00086539        0.00000216        0.00000183        0.00000199
     228         -0.416243        1.000000        0.00039814        0.00000276        0.00000623        0.00003143
     229         -0.415992        1.000000        0.00103659        0.00001377        0.00000917        0.00007909
     230         -0.415601        1.000000        0.00313220        0.00004159        0.00001995        0.00001337
     231         -0.415000        1.000000        0.00150649        0.00000408        0.00000647        0.00000795
     232         -0.414520        1.000000        0.00012932        0.00002417        0.00000086        0.00005631
     233         -0.413969        1.000000        0.00020633        0.00001735        0.00000304        0.00000848
     234         -0.413727        1.000000        0.00170818        0.00000439        0.00000996        0.00000379
     235         -0.413680        1.000000        0.00146880        0.00000856        0.00000333        0.00003839
     236         -0.412955        1.000000        0.02502445        0.00000944        0.00001699        0.00008602
     237         -0.412571        1.000000        0.00125486        0.00000174        0.00000467        0.00005401
     238         -0.412400        1.000000        0.00264888        0.00000218        0.00000108        0.00013383
     239         -0.412272        1.000000        0.00036804        0.00000091        0.00000850        0.00000740
     240         -0.411530        1.000000        0.00038695        0.00000085        0.00000424        0.00000524
     241         -0.410312        1.000000        0.01403793        0.00006102        0.00004261        0.00001993
     242         -0.409676        1.000000        0.00004532        0.00000033        0.00000028        0.00000113
     243         -0.409579        1.000000        0.01277109        0.00001149        0.00003291        0.00000397
     244         -0.408492        1.000000        0.01000321        0.00000296        0.00002621        0.00003888
     245         -0.408193        1.000000        0.00328294        0.00000887        0.00004689        0.00001986
     246         -0.407442        1.000000        0.02633640        0.00007361        0.00009843        0.00006084
     247         -0.404510        1.000000        0.00085063        0.00000334        0.00000856        0.00000130
     248         -0.403931        1.000000        0.02601722        0.00002811        0.00013084        0.00002467
     249         -0.403651        1.000000        0.17576436        0.00010290        0.00038340        0.00014216
     250         -0.403278        1.000000        0.45295673        0.00033579        0.00091491        0.00049084
     251         -0.403098        1.000000        0.04921213        0.00005000        0.00012337        0.00008212
     252         -0.401724        1.000000        0.00104938        0.00001300        0.00000515        0.00000099
     253         -0.401180        1.000000        0.00038377        0.00000307        0.00000469        0.00000434
     254         -0.400991        1.000000        0.01069299        0.00001557        0.00002336        0.00002817
     255         -0.399087        1.000000        0.17445419        0.00012998        0.00004509        0.00023170
     256         -0.398472        1.000000        0.00215015        0.00002717        0.00000320        0.00000186
     257         -0.397634        1.000000        0.36115276        0.00016873        0.00015396        0.00024302
     258         -0.397104        1.000000        0.35739607        0.00014594        0.00026678        0.00024464
     259         -0.396182        1.000000        0.02488219        0.00001290        0.00001935        0.00001975