# Projected DOS for atomic kind H at iteration step i = 0, E(Fermi) =    -0.112045 a.u.
#     MO Eigenvalue [a.u.]      Occupation                 s
       1         -0.905634        1.000000        0.25651748
       2         -0.901779        1.000000        0.24941057
       3         -0.900648        1.000000        0.25477027
       4         -0.897187        1.000000        0.25445019
       5         -0.895660        1.000000        0.25809327
       6         -0.894405        1.000000        0.25559066
       7         -0.892843        1.000000        0.25678517
       8         -0.891926        1.000000        0.25409528
       9         -0.891860        1.000000        0.25358659
      10         -0.889828        1.000000        0.25237742
      11         -0.886852        1.000000        0.25542639
      12         -0.886136        1.000000        0.25662547
      13         -0.884241        1.000000        0.28223231
      14         -0.884115        1.000000        0.28563966
      15         -0.883913        1.000000        0.25759853
      16         -0.879997        1.000000        0.25637727
      17         -0.878691        1.000000        0.26012449
      18         -0.878425        1.000000        0.27831426
      19         -0.878378        1.000000        0.27743019
      20         -0.877788        1.000000        0.28177011
      21         -0.876964        1.000000        0.25668527
      22         -0.876504        1.000000        0.26415882
      23         -0.873767        1.000000        0.25579376
      24         -0.872581        1.000000        0.25426020
      25         -0.870259        1.000000        0.25439134
      26         -0.868999        1.000000        0.25337166
      27         -0.868330        1.000000        0.26709404
      28         -0.867262        1.000000        0.26282529
      29         -0.867194        1.000000        0.26332009
      30         -0.866877        1.000000        0.27988282
      31         -0.865903        1.000000        0.25580278
      32         -0.865819        1.000000        0.26604376
      33         -0.862690        1.000000        0.25935391
      34         -0.861419        1.000000        0.26319912
      35         -0.861106        1.000000        0.28111493
      36         -0.860871        1.000000        0.24961211
      37         -0.860104        1.000000        0.25055145
      38         -0.859939        1.000000        0.26738128
      39         -0.859143        1.000000        0.24975032
      40         -0.858344        1.000000        0.24382546
      41         -0.857062        1.000000        0.26108098
      42         -0.856680        1.000000        0.27539328
      43         -0.855274        1.000000        0.27049877
      44         -0.854411        1.000000        0.26892023
      45         -0.852889        1.000000        0.24517927
      46         -0.852037        1.000000        0.25232830
      47         -0.851361        1.000000        0.26381714
      48         -0.850083        1.000000        0.25611401
      49         -0.850055        1.000000        0.24948524
      50         -0.848510        1.000000        0.23588891
      51         -0.848294        1.000000        0.26112661
      52         -0.847951        1.000000        0.25562476
      53         -0.847473        1.000000        0.23854016
      54         -0.847388        1.000000        0.25421631
      55         -0.846091        1.000000        0.25206877
      56         -0.845040        1.000000        0.24751078
      57         -0.844793        1.000000        0.23347638
      58         -0.843605        1.000000        0.25118313
      59         -0.842133        1.000000        0.23471542
      60         -0.841837        1.000000        0.24571316
      61         -0.841386        1.000000        0.25015533
      62         -0.841273        1.000000        0.25670398
      63         -0.840423        1.000000        0.24348828
      64         -0.838266        1.000000        0.25600076
      65         -0.837935        1.000000        0.25170180
      66         -0.837411        1.000000        0.24732169
      67         -0.837213        1.000000        0.25728517
      68         -0.836317        1.000000        0.21097946
      69         -0.835854        1.000000        0.23949908
      70         -0.834589        1.000000        0.23948364
      71         -0.834577        1.000000        0.22902531
      72         -0.834459        1.000000        0.24158550
      73         -0.833825        1.000000        0.24609003
      74         -0.833677        1.000000        0.23004967
      75         -0.833268        1.000000        0.22712977
      76         -0.830119        1.000000        0.22526680
      77         -0.829586        1.000000        0.19368321
      78         -0.828439        1.000000        0.17976233
      79         -0.828282        1.000000        0.24401202
      80         -0.827001        1.000000        0.25548486
      81         -0.826592        1.000000        0.22093547
      82         -0.826215        1.000000        0.21896349
      83         -0.825129        1.000000        0.21702497
      84         -0.824204        1.000000        0.22591979
      85         -0.823379        1.000000        0.18843457
      86         -0.823283        1.000000        0.25740144
      87         -0.822549        1.000000        0.24005758
      88         -0.822163        1.000000        0.19158428
      89         -0.820437        1.000000        0.24383354
      90         -0.817923        1.000000        0.21439946
      91         -0.815954        1.000000        0.22634153
      92         -0.814951        1.000000        0.23293935
      93         -0.814679        1.000000        0.24176418
      94         -0.814635        1.000000        0.20102088
      95         -0.814396        1.000000        0.25678907
      96         -0.813980        1.000000        0.19981305
      97         -0.813787        1.000000        0.16486523
      98         -0.812586        1.000000        0.19584958
      99         -0.810886        1.000000        0.19245518
     100         -0.808123        1.000000        0.24071891
     101         -0.807741        1.000000        0.24914512
     102         -0.804778        1.000000        0.12376972
     103         -0.803119        1.000000        0.23438081
     104         -0.801398        1.000000        0.18555298
     105         -0.799710        1.000000        0.16625175
     106         -0.798795        1.000000        0.23550238
     107         -0.790998        1.000000        0.24509300
     108         -0.788452        1.000000        0.24682965
     109         -0.787040        1.000000        0.19931645
     110         -0.778984        1.000000        0.17633292
     111         -0.773284        1.000000        0.08830629
     112         -0.629236        1.000000        0.34399774
     113         -0.623175        1.000000        0.34391134
     114         -0.614666        1.000000        0.35035632
     115         -0.613694        1.000000        0.37129165
     116         -0.593178        1.000000        0.35024254
     117         -0.578896        1.000000        0.01436205
     118         -0.575972        1.000000        0.00541955
     119         -0.575386        1.000000        0.36804544
     120         -0.572507        1.000000        0.00845327
     121         -0.567990        1.000000        0.37077001
     122         -0.566871        1.000000        0.01166185
     123         -0.552351        1.000000        0.00428852
     124         -0.537891        1.000000        0.00972278
     125         -0.535691        1.000000        0.00763843
     126         -0.530706        1.000000        0.07892418
     127         -0.530124        1.000000        0.00334045
     128         -0.528379        1.000000        0.03416428
     129         -0.525797        1.000000        0.02267260
     130         -0.524491        1.000000        0.03410136
     131         -0.523123        1.000000        0.02776435
     132         -0.522180        1.000000        0.03185014
     133         -0.520735        1.000000        0.00558929
     134         -0.520496        1.000000        0.02522878
     135         -0.518857        1.000000        0.03875711
     136         -0.516561        1.000000        0.03350485
     137         -0.516028        1.000000        0.04100280
     138         -0.513751        1.000000        0.10589762
     139         -0.512732        1.000000        0.05343381
     140         -0.511603        1.000000        0.03341289
     141         -0.511523        1.000000        0.03597062
     142         -0.510272        1.000000        0.01766429
     143         -0.510080        1.000000        0.01528320
     144         -0.507287        1.000000        0.03430584
     145         -0.507032        1.000000        0.00613803
     146         -0.505872        1.000000        0.02763465
     147         -0.505587        1.000000        0.01980260
     148         -0.504209        1.000000        0.02171703
     149         -0.503060        1.000000        0.07914130
     150         -0.502546        1.000000        0.19340122
     151         -0.502196        1.000000        0.03280912
     152         -0.501387        1.000000        0.22748829
     153         -0.500827        1.000000        0.05832761
     154         -0.499347        1.000000        0.05027953
     155         -0.498440        1.000000        0.03735600
     156         -0.493099        1.000000        0.20286769
     157         -0.492124        1.000000        0.02477729
     158         -0.486621        1.000000        0.24453792
     159         -0.485447        1.000000        0.27109247
     160         -0.481257        1.000000        0.24474576
     161         -0.473310        1.000000        0.31180274
     162         -0.471351        1.000000        0.28469506
     163         -0.466668        1.000000        0.31607690
     164         -0.466090        1.000000        0.29032993
     165         -0.465793        1.000000        0.34695071
     166         -0.465783        1.000000        0.35272813
     167         -0.463910        1.000000        0.32139602
     168         -0.459476        1.000000        0.34968259
     169         -0.457994        1.000000        0.34202066
     170         -0.457541        1.000000        0.34750660
     171         -0.456682        1.000000        0.33731824
     172         -0.454585        1.000000        0.35243202
     173         -0.454036        1.000000        0.35024519
     174         -0.452856        1.000000        0.35462918
     175         -0.451611        1.000000        0.33395034
     176         -0.451339        1.000000        0.35392182
     177         -0.448169        1.000000        0.34887796
     178         -0.447180        1.000000        0.35605162
     179         -0.446386        1.000000        0.34770332
     180         -0.446202        1.000000        0.34389682
     181         -0.445509        1.000000        0.33754160
     182         -0.445293        1.000000        0.34295890
     183         -0.441084        1.000000        0.33134748
     184         -0.440987        1.000000        0.33197735
     185         -0.440880        1.000000        0.34731063
     186         -0.440703        1.000000        0.33731031
     187         -0.440337        1.000000        0.34569376
     188         -0.440109        1.000000        0.33640083
     189         -0.439991        1.000000        0.34646476
     190         -0.439525        1.000000        0.33609496
     191         -0.438657        1.000000        0.34264672
     192         -0.438392        1.000000        0.35277098
     193         -0.438370        1.000000        0.34373758
     194         -0.438254        1.000000        0.34715674
     195         -0.437955        1.000000        0.34005475
     196         -0.436964        1.000000        0.33306545
     197         -0.435867        1.000000        0.34884348
     198         -0.435543        1.000000        0.34277426
     199         -0.433610        1.000000        0.34062410
     200         -0.433001        1.000000        0.34179920
     201         -0.432488        1.000000        0.34199463
     202         -0.432207        1.000000        0.35445518
     203         -0.432038        1.000000        0.34324702
     204         -0.431892        1.000000        0.33905082
     205         -0.430295        1.000000        0.34613179
     206         -0.429598        1.000000        0.33473111
     207         -0.429354        1.000000        0.34286710
     208         -0.429179        1.000000        0.34957235
     209         -0.428137        1.000000        0.33719138
     210         -0.426914        1.000000        0.34893964
     211         -0.426449        1.000000        0.33404266
     212         -0.426424        1.000000        0.33954402
     213         -0.426226        1.000000        0.35959159
     214         -0.424704        1.000000        0.33936236
     215         -0.424668        1.000000        0.33952556
     216         -0.424597        1.000000        0.34130001
     217         -0.424102        1.000000        0.34099842
     218         -0.422672        1.000000        0.33707138
     219         -0.422009        1.000000        0.33883232
     220         -0.419804        1.000000        0.34875113
     221         -0.419592        1.000000        0.34129138
     222         -0.418611        1.000000        0.34557736
     223         -0.418375        1.000000        0.34836911
     224         -0.418096        1.000000        0.35483496
     225         -0.417024        1.000000        0.34918544
     226         -0.416724        1.000000        0.33926541
     227         -0.416494        1.000000        0.34915898
     228         -0.416242        1.000000        0.33084356
     229         -0.415986        1.000000        0.33498816
     230         -0.415600        1.000000        0.34720802
     231         -0.414999        1.000000        0.33060454
     232         -0.414501        1.000000        0.33670205
     233         -0.413934        1.000000        0.34147773
     234         -0.413718        1.000000        0.34486603
     235         -0.413679        1.000000        0.34621084
     236         -0.412955        1.000000        0.33009829
     237         -0.412571        1.000000        0.33442461
     238         -0.412400        1.000000        0.35004593
     239         -0.412272        1.000000        0.34333416
     240         -0.411530        1.000000        0.33846910
     241         -0.410312        1.000000        0.18326985
     242         -0.409676        1.000000        0.35394405
     243         -0.409579        1.000000        0.35823732
     244         -0.408492        1.000000        0.34719406
     245         -0.408193        1.000000        0.34527310
     246         -0.407442        1.000000        0.33455307
     247         -0.404126        1.000000        0.35158245
     248         -0.403927        1.000000        0.31297678
     249         -0.403650        1.000000        0.15690328
     250         -0.403272        1.000000        0.09889419
     251         -0.403068        1.000000        0.32715861
     252         -0.401724        1.000000        0.33959334
     253         -0.401110        1.000000        0.35591157
     254         -0.400991        1.000000        0.33742475
     255         -0.399087        1.000000        0.28029370
     256         -0.398472        1.000000        0.36745134
     257         -0.397630        1.000000        0.18121959
     258         -0.397100        1.000000        0.18540363
     259         -0.396170        1.000000        0.33890226
     260         -0.395293        1.000000        0.14900244
     261         -0.394071        1.000000        0.18031238
     262         -0.393679        1.000000        0.09887725
     263         -0.393459        1.000000        0.34014575
     264         -0.392870        1.000000        0.34560463
     265         -0.390720        1.000000        0.24832297
     266         -0.390118        1.000000        0.36255236
     267         -0.389874        1.000000        0.17440787
     268         -0.388913        1.000000        0.16788935
     269         -0.388694        1.000000        0.09343207
     270         -0.387088        1.000000        0.36755995
     271         -0.386887        1.000000        0.10254608
     272         -0.386368        1.000000        0.06918173
     273         -0.385724        1.000000        0.18714925
     274         -0.384956        1.000000        0.32202728
     275         -0.382610        1.000000        0.32826561
     276         -0.381307        1.000000        0.33395080
     277         -0.379270        1.000000        0.34992139
     278         -0.379227        1.000000        0.34594265
     279         -0.379119        1.000000        0.36088701
     280         -0.378112        1.000000        0.23603331
     281         -0.377912        1.000000        0.30199606
     282         -0.377160        1.000000        0.09307886
     283         -0.376177        1.000000        0.32030135
     284         -0.374686        1.000000        0.34869881
     285         -0.372515        1.000000        0.19780927
     286         -0.369512        1.000000        0.29900360
     287         -0.359525        1.000000        0.34721376
     288         -0.349601        1.000000        0.17891852
     289         -0.346737        1.000000        0.42396182
     290         -0.346428        1.000000        0.17559475
     291         -0.345565        1.000000        0.35164795
     292         -0.342376        1.000000        0.41698595
     293         -0.340604        1.000000        0.20106129
     294         -0.340404        1.000000        0.39839086
     295         -0.338409        1.000000        0.40696718
     296         -0.337351        1.000000        0.28898448
     297         -0.336794        1.000000        0.32116830
     298         -0.334173        1.000000        0.42467685
     299         -0.330784        1.000000        0.41996570
     300         -0.326287        1.000000        0.15884174
     301         -0.322477        1.000000        0.14611843
     302         -0.322004        1.000000        0.17820450
     303         -0.320566        1.000000        0.21287569
     304         -0.318542        1.000000        0.17251238
     305         -0.316506        1.000000        0.33200553
     306         -0.313077        1.000000        0.14603756
     307         -0.312556        1.000000        0.21233638
     308         -0.311208        1.000000        0.14969979
     309         -0.311078        1.000000        0.13584065
     310         -0.309634        1.000000        0.13871330
     311         -0.309264        1.000000        0.37300866
     312         -0.309050        1.000000        0.12363708
     313         -0.307257        1.000000        0.31082694
     314         -0.303625        1.000000        0.33398794
     315         -0.301288        1.000000        0.14425503
     316         -0.300568        1.000000        0.14695004
     317         -0.299220        1.000000        0.11978330
     318         -0.298290        1.000000        0.40272428
     319         -0.297317        1.000000        0.13568034
     320         -0.297100        1.000000        0.13786633
     321         -0.296747        1.000000        0.13620327
     322         -0.294851        1.000000        0.13958959
     323         -0.293824        1.000000        0.38811998
     324         -0.292882        1.000000        0.11313491
     325         -0.290863        1.000000        0.11005468
     326         -0.285808        1.000000        0.20055827
     327         -0.285200        1.000000        0.10163329
     328         -0.285024        1.000000        0.11071354
     329         -0.284920        1.000000        0.10711402
     330         -0.284705        1.000000        0.04230996
     331         -0.282868        1.000000        0.10827435
     332         -0.282678        1.000000        0.09809755
     333         -0.282244        1.000000        0.11268779
     334         -0.281589        1.000000        0.14776639
     335         -0.280024        1.000000        0.12494447
     336         -0.279297        1.000000        0.04646496
     337         -0.277685        1.000000        0.11314310
     338         -0.276748        1.000000        0.11416595
     339         -0.276453        1.000000        0.10696710
     340         -0.272688        1.000000        0.10817884
     341         -0.269250        1.000000        0.04322495
     342         -0.268989        1.000000        0.07235092
     343         -0.267680        1.000000        0.05160837
     344         -0.267234        1.000000        0.13706054
     345         -0.265968        1.000000        0.08676985
     346         -0.265385        1.000000        0.10023297
     347         -0.263053        1.000000        0.07060696
     348         -0.260355        1.000000        0.07857258
     349         -0.260099        1.000000        0.08004406
     350         -0.259241        1.000000        0.09651613
     351         -0.258833        1.000000        0.08184163
     352         -0.257249        1.000000        0.09362426
     353         -0.256879        1.000000        0.08942169
     354         -0.255920        1.000000        0.10939611
     355         -0.255481        1.000000        0.04038651
     356         -0.253201        1.000000        0.07394257
     357         -0.251145        1.000000        0.06352473
     358         -0.249083        1.000000        0.08983133
     359         -0.247934        1.000000        0.08409347
     360         -0.246922        1.000000        0.07571738
     361         -0.245521        1.000000        0.07765778
     362         -0.242236        1.000000        0.04704306
     363         -0.242106        1.000000        0.04264923
     364         -0.241125        1.000000        0.07562039
     365         -0.239865        1.000000        0.07922735
     366         -0.239002        1.000000        0.06146591
     367         -0.238466        1.000000        0.08180398
     368         -0.237552        1.000000        0.07957064
     369         -0.236925        1.000000        0.06173134
     370         -0.236120        1.000000        0.05955379
     371         -0.235246        1.000000        0.05583547
     372         -0.233513        1.000000        0.08022366
     373         -0.233111        1.000000        0.06865996
     374         -0.232617        1.000000        0.07850361
     375         -0.230193        1.000000        0.03207646
     376         -0.227700        1.000000        0.05924071
     377         -0.225804        1.000000        0.05591791
     378         -0.225319        1.000000        0.02217629
     379         -0.225248        1.000000        0.08527971
     380         -0.224335        1.000000        0.04386351
     381         -0.223419        1.000000        0.07204809
     382         -0.222463        1.000000        0.02519765
     383         -0.221851        1.000000        0.02162583
     384         -0.221705        1.000000        0.02034202
     385         -0.220706        1.000000        0.01096003
     386         -0.220103        1.000000        0.02040647
     387         -0.219969        1.000000        0.03452008
     388         -0.219207        1.000000        0.02371858
     389         -0.218532        1.000000        0.02021530
     390         -0.218098        1.000000        0.01699963
     391         -0.215688        1.000000        0.00670218
     392         -0.215499        1.000000        0.00301482
     393         -0.214305        1.000000        0.06769716
     394         -0.213509        1.000000        0.03488682
     395         -0.213251        1.000000        0.00816642
     396         -0.212713        1.000000        0.04155339
     397         -0.212545        1.000000        0.02621793
     398         -0.211964        1.000000        0.01576236
     399         -0.211247        1.000000        0.01367208
     400         -0.210771        1.000000        0.01793652
     401         -0.210157        1.000000        0.02996378
     402         -0.209765        1.000000        0.02348375
     403         -0.209426        1.000000        0.07489135
     404         -0.208830        1.000000        0.01768357
     405         -0.208672        1.000000        0.01108877
     406         -0.207461        1.000000        0.00657804
     407         -0.206623        1.000000        0.03046703
     408         -0.206310        1.000000        0.02373457
     409         -0.205622        1.000000        0.03050249
     410         -0.205490        1.000000        0.01818700
     411         -0.205348        1.000000        0.02373925
     412         -0.205041        1.000000        0.02473353
     413         -0.204377        1.000000        0.01862086
     414         -0.203781        1.000000        0.01508667
     415         -0.202987        1.000000        0.05375043
     416         -0.202840        1.000000        0.01396948
     417         -0.202161        1.000000        0.02682770
     418         -0.201587        1.000000        0.00623942
     419         -0.201382        1.000000        0.00821711
     420         -0.201222        1.000000        0.00610311
     421         -0.200983        1.000000        0.01241909
     422         -0.200660        1.000000        0.00780449
     423         -0.200215        1.000000        0.00583452
     424         -0.199265        1.000000        0.01361351
     425         -0.199170        1.000000        0.01734962
     426         -0.198659        1.000000        0.00894401
     427         -0.198458        1.000000        0.00615803
     428         -0.197958        1.000000        0.00786794
     429         -0.197446        1.000000        0.01075167
     430         -0.197279        1.000000        0.00857791
     431         -0.196935        1.000000        0.01926995
     432         -0.196577        1.000000        0.01154064
     433         -0.196249        1.000000        0.01112025
     434         -0.196135        1.000000        0.01657337
     435         -0.194916        1.000000        0.00545731
     436         -0.194708        1.000000        0.00868787
     437         -0.194367        1.000000        0.00858564
     438         -0.193661        1.000000        0.00764221
     439         -0.193416        1.000000        0.00819306
     440         -0.193103        1.000000        0.00549482
     441         -0.192698        1.000000        0.00839940
     442         -0.192366        1.000000        0.00775013
     443         -0.191482        1.000000        0.04644374
     444         -0.190686        1.000000        0.00932620
     445         -0.190529        1.000000        0.00924499
     446         -0.190204        1.000000        0.03228085
     447         -0.190115        1.000000        0.01065508
     448         -0.189792        1.000000        0.01130812
     449         -0.189427        1.000000        0.00547473
     450         -0.188727        1.000000        0.00946871
     451         -0.188431        1.000000        0.00432519
     452         -0.187887        1.000000        0.00339631
     453         -0.187568        1.000000        0.00381106
     454         -0.187194        1.000000        0.00386692
     455         -0.186812        1.000000        0.00544393
     456         -0.186720        1.000000        0.00623772
     457         -0.186080        1.000000        0.01137238
     458         -0.185917        1.000000        0.01178548
     459         -0.185510        1.000000        0.00703407
     460         -0.185292        1.000000        0.02027423
     461         -0.184927        1.000000        0.00686873
     462         -0.184664        1.000000        0.00400898
     463         -0.183987        1.000000        0.00484828
     464         -0.183079        1.000000        0.00398875
     465         -0.182614        1.000000        0.00506306
     466         -0.182266        1.000000        0.00397041
     467         -0.181483        1.000000        0.00384088
     468         -0.180958        1.000000        0.01721403
     469         -0.180466        1.000000        0.03583758
     470         -0.180071        1.000000        0.00367542
     471         -0.179970        1.000000        0.00660633
     472         -0.179430        1.000000        0.01071666
     473         -0.178704        1.000000        0.00476391
     474         -0.178507        1.000000        0.00338536
     475         -0.178401        1.000000        0.00545394
     476         -0.177666        1.000000        0.00716926
     477         -0.177424        1.000000        0.00386415
     478         -0.177108        1.000000        0.00394213
     479         -0.176652        1.000000        0.00369874
     480         -0.176352        1.000000        0.00969351
     481         -0.176051        1.000000        0.01446834
     482         -0.175472        1.000000        0.00881367
     483         -0.175242        1.000000        0.00740861
     484         -0.174762        1.000000        0.00387337
     485         -0.174457        1.000000        0.00283908
     486         -0.174017        1.000000        0.02638369
     487         -0.173960        1.000000        0.01400511
     488         -0.173310        1.000000        0.00414194
     489         -0.172844        1.000000        0.00303929