# Projected DOS for atomic kind C at iteration step i = 0, E(Fermi) =    -0.112050 a.u.
#     MO Eigenvalue [a.u.]      Occupation                 s                py                pz                px
       1         -0.905634        1.000000        0.00000009        0.00000027        0.00000008        0.00000000
       2         -0.901779        1.000000        0.00000063        0.00000072        0.00000089        0.00000219
       3         -0.900648        1.000000        0.00000000        0.00000000        0.00000000        0.00000001
       4         -0.897188        1.000000        0.00000059        0.00000007        0.00000021        0.00000030
       5         -0.895660        1.000000        0.00000001        0.00000000        0.00000001        0.00000001
       6         -0.894405        1.000000        0.00000003        0.00000001        0.00000008        0.00000002
       7         -0.892851        1.000000        0.00000016        0.00000000        0.00000006        0.00000023
       8         -0.891926        1.000000        0.00000002        0.00000000        0.00000001        0.00000003
       9         -0.891861        1.000000        0.00000000        0.00000000        0.00000000        0.00000000
      10         -0.889827        1.000000        0.00000005        0.00000002        0.00000000        0.00000010
      11         -0.886852        1.000000        0.00000004        0.00000005        0.00000000        0.00000000
      12         -0.886136        1.000000        0.00000001        0.00000001        0.00000000        0.00000000
      13         -0.884241        1.000000        0.06052095        0.00015659        0.00558248        0.03816240
      14         -0.884121        1.000000        0.00102849        0.00007922        0.00032364        0.00045905
      15         -0.883913        1.000000        0.00000000        0.00000000        0.00000001        0.00000000
      16         -0.879998        1.000000        0.00000082        0.00000007        0.00000021        0.00000048
      17         -0.878692        1.000000        0.00766799        0.00000023        0.00147452        0.00405540
      18         -0.878425        1.000000        0.05224116        0.00000007        0.01073463        0.02730867
      19         -0.878377        1.000000        0.00006405        0.00001754        0.00001471        0.00002510
      20         -0.877788        1.000000        0.00000000        0.00000034        0.00000047        0.00000108
      21         -0.876965        1.000000        0.00000104        0.00000027        0.00000096        0.00000757
      22         -0.876504        1.000000        0.00000616        0.00000886        0.00000580        0.00000034
      23         -0.873766        1.000000        0.00000014        0.00000003        0.00000039        0.00000003
      24         -0.872612        1.000000        0.00000162        0.00000034        0.00000108        0.00000044
      25         -0.870259        1.000000        0.00000064        0.00000004        0.00000065        0.00000020
      26         -0.868998        1.000000        0.00040062        0.00012332        0.00009307        0.00012275
      27         -0.868330        1.000000        0.00000006        0.00000045        0.00000054        0.00000093
      28         -0.867263        1.000000        0.00003055        0.00000626        0.00000655        0.00001635
      29         -0.867194        1.000000        0.00000189        0.00000018        0.00000352        0.00000010
      30         -0.866877        1.000000        0.06367182        0.00606929        0.00013294        0.03858214
      31         -0.865902        1.000000        0.00000001        0.00000000        0.00000001        0.00000000
      32         -0.865820        1.000000        0.00002900        0.00000066        0.00000034        0.00003055
      33         -0.862701        1.000000        0.00005349        0.00000080        0.00000209        0.00005319
      34         -0.861665        1.000000        0.00000999        0.00000031        0.00000208        0.00000526
      35         -0.861419        1.000000        0.00091093        0.00003321        0.00015301        0.00032216
      36         -0.860874        1.000000        0.00567442        0.00015165        0.00163925        0.00217600
      37         -0.860104        1.000000        0.00000012        0.00000018        0.00000124        0.00000198
      38         -0.859939        1.000000        0.00000000        0.00000002        0.00000009        0.00000007
      39         -0.859143        1.000000        0.00024511        0.00007329        0.00005547        0.00006252
      40         -0.858352        1.000000        0.00661826        0.00017717        0.00185670        0.00241904
      41         -0.857062        1.000000        0.00000248        0.00000001        0.00000215        0.00000059
      42         -0.856680        1.000000        0.00000022        0.00000003        0.00000257        0.00000310
      43         -0.855274        1.000000        0.00003016        0.00000062        0.00012799        0.00001065
      44         -0.854412        1.000000        0.00000034        0.00000010        0.00000309        0.00000420
      45         -0.852889        1.000000        0.00000913        0.00000111        0.00000044        0.00000826
      46         -0.852037        1.000000        0.00005109        0.00000231        0.00005330        0.00001882
      47         -0.851359        1.000000        0.03878700        0.01133660        0.00862095        0.00851365
      48         -0.850083        1.000000        0.00015669        0.00004520        0.00003439        0.00003465
      49         -0.850056        1.000000        0.00001732        0.00000503        0.00000384        0.00000372
      50         -0.849096        1.000000        0.00000633        0.00000039        0.00000212        0.00000224
      51         -0.848510        1.000000        0.00000037        0.00000069        0.00000154        0.00000243
      52         -0.848294        1.000000        0.00001466        0.00000149        0.00000816        0.00000283
      53         -0.847473        1.000000        0.00633844        0.00181493        0.00140141        0.00129168
      54         -0.847388        1.000000        0.00040481        0.00010713        0.00011206        0.00009747
      55         -0.846091        1.000000        0.00000079        0.00000030        0.00000365        0.00000629
      56         -0.845040        1.000000        0.00000456        0.00000026        0.00003390        0.00006667
      57         -0.844792        1.000000        0.00003474        0.00000216        0.00001317        0.00000979
      58         -0.843605        1.000000        0.00000003        0.00000004        0.00000013        0.00000031
      59         -0.842133        1.000000        0.00215754        0.00001945        0.00051544        0.00067116
      60         -0.841839        1.000000        0.04813487        0.00046417        0.01215556        0.01546316
      61         -0.841384        1.000000        0.00000006        0.00000017        0.00000048        0.00000112
      62         -0.841273        1.000000        0.00000011        0.00000000        0.00000002        0.00000005
      63         -0.840423        1.000000        0.00000183        0.00000147        0.00000775        0.00000988
      64         -0.838267        1.000000        0.00124197        0.00000499        0.00001395        0.00102434
      65         -0.837943        1.000000        0.00142259        0.00011838        0.00065542        0.00033924
      66         -0.837412        1.000000        0.00000153        0.00000015        0.00000071        0.00000044
      67         -0.837214        1.000000        0.00009045        0.00000785        0.00004047        0.00002219
      68         -0.836317        1.000000        0.00000000        0.00000002        0.00000000        0.00000001
      69         -0.835855        1.000000        0.00008667        0.00000730        0.00000736        0.00006449
      70         -0.834683        1.000000        0.00004467        0.00001034        0.00001108        0.00000802
      71         -0.834588        1.000000        0.00031937        0.00008604        0.00006617        0.00005495
      72         -0.834574        1.000000        0.00111072        0.00029972        0.00023139        0.00018946
      73         -0.833892        1.000000        0.00132130        0.00013760        0.00050544        0.00034638
      74         -0.833677        1.000000        0.00003861        0.00000314        0.00001343        0.00000695
      75         -0.833268        1.000000        0.00000199        0.00000274        0.00000547        0.00000775
      76         -0.831755        1.000000        0.00010802        0.00000997        0.00004259        0.00002558
      77         -0.829591        1.000000        0.01495613        0.00004880        0.00358934        0.00428322
      78         -0.828434        1.000000        0.01517224        0.00400969        0.00310962        0.00221455
      79         -0.828290        1.000000        0.00001352        0.00000238        0.00000290        0.00000465
      80         -0.827001        1.000000        0.00000000        0.00000000        0.00000000        0.00000000
      81         -0.826593        1.000000        0.00028804        0.00002588        0.00012292        0.00006819
      82         -0.826220        1.000000        0.00000009        0.00000016        0.00000014        0.00000025
      83         -0.825129        1.000000        0.00002553        0.00000015        0.00004126        0.00001154
      84         -0.824205        1.000000        0.00000000        0.00000001        0.00000001        0.00000002
      85         -0.823379        1.000000        0.00000051        0.00000031        0.00000136        0.00000160
      86         -0.823290        1.000000        0.00000083        0.00006408        0.00004228        0.00000300
      87         -0.822550        1.000000        0.00770142        0.00004236        0.00019747        0.00539653
      88         -0.822163        1.000000        0.00122727        0.00024369        0.00019665        0.00033729
      89         -0.820444        1.000000        0.00000906        0.00000233        0.00000180        0.00000119
      90         -0.817929        1.000000        0.00811288        0.00062072        0.00260961        0.00206366
      91         -0.815954        1.000000        0.00039584        0.00004496        0.00000099        0.00026144
      92         -0.814961        1.000000        0.02041391        0.00157343        0.00614423        0.00529019
      93         -0.814679        1.000000        0.00000107        0.00000022        0.00000023        0.00000016
      94         -0.814636        1.000000        0.00000241        0.00000117        0.00000985        0.00000086
      95         -0.814396        1.000000        0.00012918        0.00000977        0.00003865        0.00003353
      96         -0.813981        1.000000        0.00000001        0.00000002        0.00000001        0.00000005
      97         -0.813787        1.000000        0.00000004        0.00000009        0.00000008        0.00000007
      98         -0.813773        1.000000        0.00023520        0.00001766        0.00006892        0.00006498
      99         -0.812599        1.000000        0.00000003        0.00000002        0.00000009        0.00000015
     100         -0.808131        1.000000        0.02825059        0.00191416        0.00775073        0.00742557
     101         -0.807741        1.000000        0.00005870        0.00003248        0.00000520        0.00020213
     102         -0.804779        1.000000        0.00000383        0.00004228        0.00002818        0.00007205
     103         -0.803136        1.000000        0.00002214        0.00018331        0.00006647        0.00002128
     104         -0.801399        1.000000        0.00000103        0.00000050        0.00000111        0.00000014
     105         -0.799731        1.000000        0.00000002        0.00000000        0.00000009        0.00000034
     106         -0.798759        1.000000        0.00000000        0.00000000        0.00000001        0.00000003
     107         -0.796935        1.000000        0.00000071        0.00000005        0.00000008        0.00000070
     108         -0.791002        1.000000        0.00000000        0.00000000        0.00000000        0.00000001
     109         -0.788452        1.000000        0.07257552        0.00111882        0.00170295        0.03728378
     110         -0.786993        1.000000        0.01821910        0.00095983        0.00367224        0.00468110
     111         -0.773270        1.000000        0.00000081        0.00000001        0.00000024        0.00000012
     112         -0.629236        1.000000        0.43807288        0.00018864        0.00040888        0.00078517
     113         -0.623175        1.000000        0.43903410        0.00000032        0.00027502        0.00090491
     114         -0.614666        1.000000        0.43742927        0.00019919        0.00000833        0.00204853
     115         -0.613695        1.000000        0.43023631        0.00000483        0.00384540        0.00401414
     116         -0.593180        1.000000        0.43645150        0.00036358        0.00106443        0.00106280
     117         -0.578894        1.000000        0.00048079        0.00016464        0.00007007        0.00000768
     118         -0.575972        1.000000        0.00018918        0.00010228        0.00000489        0.00002877
     119         -0.575409        1.000000        0.42733746        0.00090094        0.00220177        0.00403106
     120         -0.572508        1.000000        0.00076467        0.00056723        0.00004528        0.00012966
     121         -0.567990        1.000000        0.42192102        0.00031755        0.00042206        0.00770952
     122         -0.566872        1.000000        0.00016625        0.00016274        0.00004492        0.00003671
     123         -0.552366        1.000000        0.00063085        0.00001847        0.00006609        0.00014032
     124         -0.537892        1.000000        0.00275177        0.00052719        0.00052678        0.00029045
     125         -0.535692        1.000000        0.00124473        0.00040869        0.00039997        0.00006238
     126         -0.530706        1.000000        0.00015341        0.00870101        0.00141487        0.00047418
     127         -0.530118        1.000000        0.00057234        0.00014856        0.00006133        0.00007862
     128         -0.528386        1.000000        0.00016921        0.00236271        0.00030577        0.00014676
     129         -0.525798        1.000000        0.00012476        0.00185972        0.00063176        0.00024770
     130         -0.524552        1.000000        0.00109256        0.00097059        0.00317185        0.00120307
     131         -0.523217        1.000000        0.00031048        0.00097298        0.00293792        0.00070831
     132         -0.522429        1.000000        0.00031026        0.00085570        0.00115842        0.00017464
     133         -0.520747        1.000000        0.00019599        0.00007744        0.00020495        0.00024753
     134         -0.520522        1.000000        0.00002342        0.00016933        0.00029310        0.00013389
     135         -0.519548        1.000000        0.00062311        0.00019025        0.00151515        0.00040699
     136         -0.518719        1.000000        0.00029385        0.00294337        0.00115234        0.00053333
     137         -0.516356        1.000000        0.00058998        0.00087443        0.00272344        0.00140085
     138         -0.516024        1.000000        0.00011090        0.00237966        0.00150231        0.00087472
     139         -0.513761        1.000000        0.00017688        0.01232913        0.00110370        0.00006699
     140         -0.512593        1.000000        0.00030553        0.00216289        0.00615243        0.00187577
     141         -0.511603        1.000000        0.00003139        0.00311739        0.00003670        0.00014831
     142         -0.511223        1.000000        0.00026236        0.00115297        0.00152721        0.00049151
     143         -0.510081        1.000000        0.00005930        0.00049786        0.00060456        0.00017892
     144         -0.508738        1.000000        0.00037161        0.00157327        0.00096935        0.00002614
     145         -0.507241        1.000000        0.00041172        0.00125214        0.00207777        0.00036393
     146         -0.507011        1.000000        0.00013130        0.00059630        0.00031718        0.00004955
     147         -0.505588        1.000000        0.00001337        0.00008147        0.00019645        0.00004670
     148         -0.504209        1.000000        0.00010077        0.00092354        0.00273684        0.00098053
     149         -0.503270        1.000000        0.00003121        0.00546929        0.00111580        0.00038823
     150         -0.502548        1.000000        0.00014143        0.01661436        0.02158618        0.00149551
     151         -0.502210        1.000000        0.00006643        0.00209971        0.00234884        0.00021268
     152         -0.501466        1.000000        0.00005263        0.01103544        0.02137426        0.00636495
     153         -0.500989        1.000000        0.00018402        0.00279502        0.00258348        0.00098890
     154         -0.499576        1.000000        0.00020045        0.00189619        0.00436074        0.00314154
     155         -0.498498        1.000000        0.00005060        0.00071921        0.00104683        0.00073798
     156         -0.493515        1.000000        0.00021897        0.00602975        0.00295144        0.00163385
     157         -0.492982        1.000000        0.00084660        0.02078499        0.01339229        0.00770607
     158         -0.486626        1.000000        0.00035398        0.03645422        0.01140930        0.00893627
     159         -0.485456        1.000000        0.00005676        0.04128821        0.00994786        0.00713245
     160         -0.481261        1.000000        0.00007355        0.00457046        0.05178077        0.00321202
     161         -0.473309        1.000000        0.00039334        0.02269843        0.03356499        0.00271725
     162         -0.471358        1.000000        0.00049421        0.03419462        0.02159677        0.01607015
     163         -0.466666        1.000000        0.00003366        0.01454502        0.00396822        0.04206949
     164         -0.466140        1.000000        0.00007685        0.04088898        0.02210611        0.02383950
     165         -0.465793        1.000000        0.00000062        0.00001108        0.00000199        0.00000531
     166         -0.465782        1.000000        0.00000308        0.00041429        0.00019570        0.00103209
     167         -0.463911        1.000000        0.00000221        0.00003830        0.00002379        0.00003396
     168         -0.459478        1.000000        0.00004216        0.00002488        0.00103110        0.00030846
     169         -0.457994        1.000000        0.00000174        0.00001533        0.00001961        0.00001355
     170         -0.457565        1.000000        0.00000092        0.00001203        0.00001298        0.00000668
     171         -0.456704        1.000000        0.00000007        0.00003586        0.00004886        0.00002493
     172         -0.454586        1.000000        0.00000070        0.00000808        0.00002064        0.00000294
     173         -0.454035        1.000000        0.00000243        0.00000152        0.00000611        0.00000560
     174         -0.452856        1.000000        0.00000023        0.00000430        0.00000435        0.00000653
     175         -0.451611        1.000000        0.00000273        0.00002328        0.00002517        0.00019556
     176         -0.451340        1.000000        0.00000119        0.00000049        0.00001058        0.00000237
     177         -0.448169        1.000000        0.00000018        0.00001691        0.00000213        0.00000057
     178         -0.447180        1.000000        0.00000004        0.00000120        0.00000006        0.00000296
     179         -0.446386        1.000000        0.00000118        0.00030765        0.00041142        0.00007788
     180         -0.446202        1.000000        0.00000027        0.00000223        0.00000253        0.00000067
     181         -0.445508        1.000000        0.00000059        0.00000372        0.00001307        0.00000143
     182         -0.445293        1.000000        0.00000003        0.00000111        0.00000007        0.00000014
     183         -0.441188        1.000000        0.00000300        0.06671995        0.00845434        0.00163639
     184         -0.440990        1.000000        0.00000101        0.00088361        0.00004575        0.00005333
     185         -0.440881        1.000000        0.00001850        0.00013454        0.00008244        0.00001781
     186         -0.440718        1.000000        0.00002356        0.00709560        0.00786720        0.00109928
     187         -0.440338        1.000000        0.00000059        0.00016984        0.00002738        0.00000250
     188         -0.440109        1.000000        0.00000056        0.00000303        0.00000884        0.00000541
     189         -0.439992        1.000000        0.00000791        0.00038407        0.00053781        0.00022823
     190         -0.439528        1.000000        0.00010122        0.01401187        0.02422005        0.00362747
     191         -0.438659        1.000000        0.00000791        0.00020140        0.00002981        0.00008971
     192         -0.438393        1.000000        0.00008556        0.00028558        0.00030435        0.00003875
     193         -0.438372        1.000000        0.00002693        0.00005407        0.00023594        0.00009040
     194         -0.438254        1.000000        0.00000158        0.00000087        0.00000060        0.00000262
     195         -0.437957        1.000000        0.00001194        0.00017032        0.00025726        0.00008878
     196         -0.436964        1.000000        0.00000007        0.00000273        0.00000633        0.00000625
     197         -0.435929        1.000000        0.00000596        0.00055108        0.00025625        0.00010807
     198         -0.435551        1.000000        0.00000991        0.00237777        0.00128713        0.00033672
     199         -0.433610        1.000000        0.00000011        0.00000040        0.00000471        0.00000162
     200         -0.433002        1.000000        0.00000422        0.00004435        0.00010704        0.00000137
     201         -0.432516        1.000000        0.00049012        0.00136411        0.02030875        0.01397870
     202         -0.432207        1.000000        0.00000062        0.00002478        0.00002517        0.00000454
     203         -0.432053        1.000000        0.00012537        0.00084018        0.00739276        0.00417930
     204         -0.431951        1.000000        0.00036679        0.00095812        0.01891406        0.01248125
     205         -0.430296        1.000000        0.00000142        0.00164076        0.00000195        0.00000255
     206         -0.429598        1.000000        0.00000977        0.00001133        0.00054864        0.00034575
     207         -0.429355        1.000000        0.00000103        0.00044868        0.00000563        0.00000234
     208         -0.429179        1.000000        0.00000089        0.00001101        0.00003108        0.00001279
     209         -0.428137        1.000000        0.00000006        0.00001773        0.00000096        0.00000049
     210         -0.426915        1.000000        0.00000254        0.00196633        0.01919382        0.00067269
     211         -0.426449        1.000000        0.00000097        0.00000386        0.00003613        0.00001872
     212         -0.426422        1.000000        0.00004348        0.00009045        0.00105525        0.00033038
     213         -0.426225        1.000000        0.00000757        0.00002684        0.00000659        0.00007412
     214         -0.424779        1.000000        0.00000012        0.00003562        0.00005030        0.00000386
     215         -0.424699        1.000000        0.00000433        0.00000881        0.00028898        0.00015126
     216         -0.424651        1.000000        0.00000173        0.00001791        0.00014875        0.00006968
     217         -0.424102        1.000000        0.00000141        0.00000333        0.00001724        0.00003825
     218         -0.422671        1.000000        0.00000303        0.00009707        0.00081324        0.00013656
     219         -0.422009        1.000000        0.00000117        0.00000047        0.00000538        0.00000882
     220         -0.419805        1.000000        0.00000108        0.00037316        0.00032816        0.00002018
     221         -0.419591        1.000000        0.00001458        0.00000579        0.00242855        0.00063871
     222         -0.418607        1.000000        0.00000266        0.00000786        0.00060209        0.00012008
     223         -0.418375        1.000000        0.00000162        0.00000057        0.00000337        0.00004513
     224         -0.418095        1.000000        0.00000120        0.00000024        0.00001490        0.00001929
     225         -0.417025        1.000000        0.00000586        0.00000296        0.00221431        0.00028549
     226         -0.416724        1.000000        0.00000472        0.00000511        0.00003671        0.00009778
     227         -0.416494        1.000000        0.00000457        0.00169052        0.00035328        0.00007940
     228         -0.416243        1.000000        0.00006795        0.01095784        0.00529040        0.00028682
     229         -0.415992        1.000000        0.00000239        0.00017866        0.00001807        0.00001703
     230         -0.415601        1.000000        0.00000406        0.00056211        0.00013725        0.00002688
     231         -0.415000        1.000000        0.00015698        0.02923067        0.01240255        0.00071682
     232         -0.414520        1.000000        0.00001136        0.00132352        0.00046335        0.00004911
     233         -0.413969        1.000000        0.00000722        0.00006898        0.00006197        0.00002987
     234         -0.413727        1.000000        0.00001730        0.00039642        0.00137453        0.00069388
     235         -0.413680        1.000000        0.00001284        0.01057705        0.00156495        0.00019351
     236         -0.412955        1.000000        0.00005694        0.00000665        0.00013270        0.00061797
     237         -0.412571        1.000000        0.00000600        0.00001045        0.00097024        0.00019318
     238         -0.412400        1.000000        0.00014174        0.00000159        0.00014218        0.00315146
     239         -0.412272        1.000000        0.00000099        0.00000059        0.00001066        0.00000583
     240         -0.411530        1.000000        0.00003109        0.00000296        0.00009479        0.00037859
     241         -0.410312        1.000000        0.02253770        0.00367254        0.05583590        0.26511736
     242         -0.409676        1.000000        0.00002548        0.00000514        0.00007615        0.00025560
     243         -0.409579        1.000000        0.00000626        0.00026848        0.00075949        0.00005506
     244         -0.408492        1.000000        0.00006099        0.00075338        0.00193100        0.00047920
     245         -0.408193        1.000000        0.00031088        0.00005934        0.00423482        0.00383091
     246         -0.407442        1.000000        0.00047880        0.00020996        0.00071178        0.00582678
     247         -0.404510        1.000000        0.00009749        0.00021994        0.00083374        0.00002839
     248         -0.403931        1.000000        0.00352634        0.00002903        0.01173838        0.03512210
     249         -0.403651        1.000000        0.01654558        0.00002605        0.06140734        0.16178652
     250         -0.403278        1.000000        0.00420089        0.00019078        0.01297142        0.04358331
     251         -0.403098        1.000000        0.00016429        0.00002010        0.00093881        0.00190582
     252         -0.401724        1.000000        0.00000599        0.00000664        0.00002065        0.00007070
     253         -0.401180        1.000000        0.00002612        0.00004138        0.00025830        0.00000700
     254         -0.400991        1.000000        0.00005678        0.00004356        0.00006699        0.00056865
     255         -0.399087        1.000000        0.00005521        0.00003129        0.00012577        0.00099425
     256         -0.398472        1.000000        0.00000270        0.00000157        0.00000941        0.00003111
     257         -0.397634        1.000000        0.00004435        0.00023545        0.00048064        0.00033102
     258         -0.397104        1.000000        0.00004708        0.00027568        0.00050164        0.00019917
     259         -0.396182        1.000000        0.00005714        0.00019565        0.00002745        0.00036249