# Projected DOS for atomic kind O at iteration step i = 0, E(Fermi) =    -0.112045 a.u.
#     MO Eigenvalue [a.u.]      Occupation                 s                py                pz                px
       1         -0.905634        1.000000        0.71180393        0.01252286        0.01590156        0.00308395
       2         -0.901779        1.000000        0.71824625        0.00008331        0.00850927        0.02272771
       3         -0.900648        1.000000        0.71114906        0.01723943        0.00235915        0.01396597
       4         -0.897187        1.000000        0.70671551        0.00765951        0.00982526        0.02114886
       5         -0.895660        1.000000        0.71408059        0.01988634        0.00421500        0.00325955
       6         -0.894405        1.000000        0.70861033        0.01065469        0.01344684        0.01153234
       7         -0.892843        1.000000        0.70651151        0.01171807        0.01557182        0.00870016
       8         -0.891926        1.000000        0.71220069        0.03169254        0.00111855        0.00080361
       9         -0.891860        1.000000        0.70924860        0.02085891        0.01245779        0.00349049
      10         -0.889828        1.000000        0.71233138        0.00453401        0.02654953        0.00379607
      11         -0.886852        1.000000        0.70790834        0.03204554        0.00237345        0.00211077
      12         -0.886136        1.000000        0.70484691        0.01318392        0.02020840        0.00479264
      13         -0.884241        1.000000        0.00009101        0.00000520        0.00000225        0.00000976
      14         -0.884115        1.000000        0.68262354        0.01002889        0.00609100        0.00322024
      15         -0.883913        1.000000        0.70552666        0.02722611        0.00540157        0.00382707
      16         -0.879997        1.000000        0.70639861        0.00645612        0.01055152        0.01951560
      17         -0.878691        1.000000        0.61320764        0.02399526        0.00844044        0.00183812
      18         -0.878425        1.000000        0.09075061        0.00363124        0.00127459        0.00029850
      19         -0.878378        1.000000        0.70344322        0.00964506        0.00315257        0.00459550
      20         -0.877788        1.000000        0.70337844        0.00749638        0.00346488        0.00337276
      21         -0.876964        1.000000        0.70587795        0.02398822        0.01094582        0.00195019
      22         -0.876504        1.000000        0.71240597        0.00995915        0.00656715        0.00683388
      23         -0.873767        1.000000        0.70619741        0.03434898        0.00271325        0.00065901
      24         -0.872581        1.000000        0.70676637        0.00230898        0.02402129        0.01241554
      25         -0.870259        1.000000        0.72447136        0.00894580        0.00702853        0.00425545
      26         -0.868999        1.000000        0.70962172        0.01303003        0.00720938        0.00962821
      27         -0.868330        1.000000        0.71390199        0.00641692        0.00424380        0.00767301
      28         -0.867262        1.000000        0.71225673        0.01196662        0.00168167        0.01034615
      29         -0.867194        1.000000        0.72010756        0.00178093        0.00758917        0.00670080
      30         -0.866877        1.000000        0.00000119        0.00000001        0.00000001        0.00000001
      31         -0.865903        1.000000        0.70223825        0.02735685        0.01403179        0.00012723
      32         -0.865819        1.000000        0.70049430        0.01280536        0.01034722        0.00928442
      33         -0.862690        1.000000        0.70208462        0.01744325        0.00738948        0.01280922
      34         -0.861419        1.000000        0.70557194        0.00551373        0.00772465        0.00916679
      35         -0.861106        1.000000        0.70014665        0.01009681        0.00375581        0.00425071
      36         -0.860871        1.000000        0.66922459        0.00975454        0.00429909        0.00845717
      37         -0.860104        1.000000        0.72209742        0.00823227        0.00468922        0.01362372
      38         -0.859939        1.000000        0.71441955        0.01150649        0.00016375        0.00588341
      39         -0.859143        1.000000        0.71962620        0.01240098        0.00395598        0.01078684
      40         -0.858344        1.000000        0.66231131        0.01153289        0.01246642        0.00362555
      41         -0.857062        1.000000        0.72181335        0.00393590        0.00459826        0.00837508
      42         -0.856680        1.000000        0.70284719        0.00477998        0.00698574        0.00946184
      43         -0.855274        1.000000        0.71184137        0.00695441        0.00606204        0.00281626
      44         -0.854411        1.000000        0.70584725        0.00668221        0.00818620        0.00956913
      45         -0.852889        1.000000        0.71934957        0.01164821        0.01159565        0.01181711
      46         -0.852037        1.000000        0.71975688        0.01176833        0.00834434        0.00634807
      47         -0.851361        1.000000        0.26659848        0.00667298        0.00056538        0.00235041
      48         -0.850083        1.000000        0.69384271        0.04083842        0.00515971        0.00211667
      49         -0.850055        1.000000        0.70865330        0.02299861        0.01580840        0.00271190
      50         -0.848510        1.000000        0.73465114        0.01086221        0.00848296        0.00799379
      51         -0.848294        1.000000        0.70780733        0.00864290        0.01978056        0.00184551
      52         -0.847951        1.000000        0.71828183        0.00789207        0.01141440        0.00641978
      53         -0.847473        1.000000        0.66132816        0.00888177        0.00496625        0.01385569
      54         -0.847388        1.000000        0.71754968        0.00758313        0.00653587        0.00875879
      55         -0.846091        1.000000        0.71761321        0.01268370        0.00989407        0.00733842
      56         -0.845040        1.000000        0.71246258        0.01784769        0.01396443        0.00803781
      57         -0.844793        1.000000        0.73796493        0.00998784        0.01287151        0.00250416
      58         -0.843605        1.000000        0.71601546        0.01055247        0.00741509        0.01337312
      59         -0.842133        1.000000        0.72022378        0.01025298        0.01055080        0.00472316
      60         -0.841837        1.000000        0.30074972        0.01064254        0.00177996        0.00438783
      61         -0.841386        1.000000        0.71509626        0.02481030        0.00484058        0.00495826
      62         -0.841273        1.000000        0.69306711        0.00318620        0.04041483        0.00658982
      63         -0.840423        1.000000        0.72205426        0.01331387        0.00765975        0.01317696
      64         -0.838266        1.000000        0.69632379        0.01271266        0.00481169        0.01495328
      65         -0.837935        1.000000        0.70555107        0.01071080        0.00700903        0.00821150
      66         -0.837411        1.000000        0.71497927        0.01179377        0.01426604        0.01137438
      67         -0.837213        1.000000        0.69259228        0.03978512        0.00054404        0.00851320
      68         -0.836317        1.000000        0.75393457        0.01098581        0.00696323        0.01449885
      69         -0.835854        1.000000        0.72194721        0.01070105        0.00949715        0.01696008
      70         -0.834589        1.000000        0.71114648        0.02928558        0.00397882        0.01007228
      71         -0.834577        1.000000        0.72051231        0.02434718        0.00355666        0.01276246
      72         -0.834459        1.000000        0.72096496        0.01992742        0.01605294        0.00106077
      73         -0.833825        1.000000        0.70859006        0.00792403        0.01247007        0.00802352
      74         -0.833677        1.000000        0.74054025        0.01588815        0.00805755        0.00431790
      75         -0.833268        1.000000        0.73398732        0.01804772        0.00776960        0.01210626
      76         -0.830119        1.000000        0.74387345        0.01289072        0.00920489        0.00815083
      77         -0.829586        1.000000        0.64543892        0.01274214        0.01196507        0.00986967
      78         -0.828439        1.000000        0.62700281        0.01903905        0.00213165        0.00702391
      79         -0.828282        1.000000        0.72278515        0.00805665        0.01533509        0.00952339
      80         -0.827001        1.000000        0.69507685        0.02907859        0.01403804        0.00631717
      81         -0.826592        1.000000        0.74005579        0.01035581        0.00806964        0.01575313
      82         -0.826215        1.000000        0.74319528        0.00844760        0.01348425        0.01282914
      83         -0.825129        1.000000        0.74796595        0.01620668        0.01167492        0.00575358
      84         -0.824204        1.000000        0.72892178        0.01862361        0.01892265        0.00688654
      85         -0.823379        1.000000        0.77276949        0.01270437        0.00737600        0.01749707
      86         -0.823283        1.000000        0.70381958        0.00899854        0.02264938        0.00682144
      87         -0.822549        1.000000        0.64772549        0.01363800        0.00649669        0.00928981
      88         -0.822163        1.000000        0.76037138        0.01253865        0.01109403        0.01089844
      89         -0.820437        1.000000        0.70768093        0.00535068        0.03937331        0.00353255
      90         -0.817923        1.000000        0.67272785        0.01152689        0.00950527        0.01034611
      91         -0.815954        1.000000        0.72544114        0.01608197        0.00358192        0.02300650
      92         -0.814951        1.000000        0.54023976        0.00987489        0.00684176        0.00961948
      93         -0.814679        1.000000        0.71123398        0.00529429        0.02850916        0.01312924
      94         -0.814635        1.000000        0.76309665        0.01261958        0.01057769        0.01195859
      95         -0.814396        1.000000        0.69319212        0.00205246        0.02506028        0.02126482
      96         -0.813980        1.000000        0.75503694        0.01715883        0.01008163        0.01667834
      97         -0.813787        1.000000        0.77302468        0.02771337        0.00506277        0.00563025
      98         -0.812586        1.000000        0.76069249        0.01190794        0.00925072        0.01599790
      99         -0.810886        1.000000        0.77037888        0.00484981        0.01007698        0.02110129
     100         -0.808123        1.000000        0.46915351        0.00886293        0.00879086        0.00871050
     101         -0.807741        1.000000        0.70179214        0.04391308        0.00275157        0.00204520
     102         -0.804778        1.000000        0.78504734        0.00111190        0.00639202        0.02633153
     103         -0.803119        1.000000        0.71773256        0.00766653        0.03153563        0.00824203
     104         -0.801398        1.000000        0.77847693        0.00495929        0.01386440        0.01683216
     105         -0.799710        1.000000        0.78634924        0.00555331        0.01235842        0.01959925
     106         -0.798795        1.000000        0.71449080        0.01464288        0.00148759        0.03338139
     107         -0.790998        1.000000        0.70732491        0.03019354        0.01005209        0.00707805
     108         -0.788452        1.000000        0.11730553        0.00953978        0.00135467        0.00404614
     109         -0.787040        1.000000        0.62276828        0.01598212        0.00336414        0.01050868
     110         -0.778984        1.000000        0.77597265        0.01532998        0.00498523        0.02305743
     111         -0.773284        1.000000        0.81949465        0.01524608        0.00534771        0.00914261
     112         -0.629236        1.000000        0.00036801        0.00002980        0.00010702        0.00037781
     113         -0.623175        1.000000        0.00012156        0.00003127        0.00045481        0.00004926
     114         -0.614666        1.000000        0.00000067        0.00000075        0.00000035        0.00000041
     115         -0.613694        1.000000        0.00024937        0.00097357        0.00040603        0.00000855
     116         -0.593178        1.000000        0.00069412        0.00074212        0.00056712        0.00149384
     117         -0.578896        1.000000        0.02996929        0.00199670        0.02882962        0.00541009
     118         -0.575972        1.000000        0.00637976        0.00341880        0.01352674        0.00866544
     119         -0.575386        1.000000        0.00047109        0.00016945        0.00030800        0.00084774
     120         -0.572507        1.000000        0.00447704        0.00630628        0.00225950        0.00098342
     121         -0.567990        1.000000        0.00035919        0.00199225        0.00078155        0.00072609
     122         -0.566871        1.000000        0.01944768        0.02956023        0.00929328        0.00161398
     123         -0.552351        1.000000        0.00457113        0.01406809        0.00675067        0.00129427
     124         -0.537891        1.000000        0.00140820        0.00085082        0.00208856        0.00103025
     125         -0.535691        1.000000        0.00099471        0.00047818        0.00161111        0.00244742
     126         -0.530706        1.000000        0.00033954        0.00050888        0.00084569        0.00052607
     127         -0.530124        1.000000        0.00217449        0.00167230        0.02744534        0.00052586
     128         -0.528379        1.000000        0.00172702        0.00393680        0.00565295        0.00436364
     129         -0.525797        1.000000        0.00119179        0.00264538        0.00352222        0.00237940
     130         -0.524491        1.000000        0.00024241        0.00037806        0.00057969        0.00054435
     131         -0.523123        1.000000        0.00044396        0.00093361        0.00062056        0.00151703
     132         -0.522180        1.000000        0.00040028        0.00087793        0.00072384        0.00136099
     133         -0.520735        1.000000        0.00257382        0.00191091        0.00168175        0.00078515
     134         -0.520496        1.000000        0.00170479        0.00599154        0.00792621        0.00790482
     135         -0.518857        1.000000        0.00097052        0.00091108        0.00325837        0.00123490
     136         -0.516561        1.000000        0.00027671        0.00053910        0.00072457        0.00095260
     137         -0.516028        1.000000        0.00093188        0.00101822        0.00409345        0.00136272
     138         -0.513751        1.000000        0.00085437        0.00326865        0.00562486        0.00169343
     139         -0.512732        1.000000        0.00049044        0.00230679        0.00138244        0.00156688
     140         -0.511603        1.000000        0.00149861        0.00542269        0.00430275        0.00322466
     141         -0.511523        1.000000        0.00087603        0.00454505        0.00235658        0.00323137
     142         -0.510272        1.000000        0.00118501        0.00490954        0.00367637        0.00514757
     143         -0.510080        1.000000        0.00100070        0.00365396        0.00344307        0.00283642
     144         -0.507287        1.000000        0.00076729        0.00215891        0.00305993        0.00507281
     145         -0.507032        1.000000        0.00029390        0.00100352        0.00084967        0.00085033
     146         -0.505872        1.000000        0.00107923        0.00439610        0.00269200        0.00612522
     147         -0.505587        1.000000        0.00225015        0.00686409        0.00621771        0.00471495
     148         -0.504209        1.000000        0.00040155        0.00123245        0.00045836        0.00154487
     149         -0.503060        1.000000        0.00089042        0.01737228        0.00336189        0.02299757
     150         -0.502546        1.000000        0.00013281        0.00062809        0.00073607        0.00099575
     151         -0.502196        1.000000        0.00058062        0.00215582        0.00369465        0.00736694
     152         -0.501387        1.000000        0.00034545        0.00316165        0.00260497        0.00468343
     153         -0.500827        1.000000        0.00142896        0.01416776        0.01621386        0.02315249
     154         -0.499347        1.000000        0.00083769        0.00469564        0.00269142        0.00815200
     155         -0.498440        1.000000        0.00166181        0.00679487        0.00358908        0.01311955
     156         -0.493099        1.000000        0.00009658        0.00077168        0.00057052        0.00070440
     157         -0.492124        1.000000        0.00034291        0.00936377        0.00367082        0.00675492
     158         -0.486621        1.000000        0.00018955        0.00260871        0.00371622        0.00202825
     159         -0.485447        1.000000        0.00004560        0.00089250        0.00074428        0.00066508
     160         -0.481257        1.000000        0.00003464        0.00052969        0.00088959        0.00041650
     161         -0.473310        1.000000        0.00013065        0.00046625        0.00053276        0.00298124
     162         -0.471351        1.000000        0.00010732        0.04772570        0.00247678        0.02020327
     163         -0.466668        1.000000        0.00011996        0.00870845        0.01558299        0.05771669
     164         -0.466090        1.000000        0.00036607        0.02185269        0.00958206        0.01066691
     165         -0.465793        1.000000        0.00116600        0.22104541        0.38520991        0.02360184
     166         -0.465783        1.000000        0.00016313        0.04385509        0.42561651        0.15696251
     167         -0.463910        1.000000        0.00290634        0.32872177        0.01567719        0.23694265
     168         -0.459476        1.000000        0.00030137        0.09221006        0.24893610        0.29120254
     169         -0.457994        1.000000        0.00178136        0.05056074        0.29728324        0.27517959
     170         -0.457541        1.000000        0.00098249        0.22619835        0.14718042        0.24429703
     171         -0.456682        1.000000        0.00159651        0.11507065        0.19810410        0.28482561
     172         -0.454585        1.000000        0.00138721        0.30045457        0.26677664        0.05735320
     173         -0.454036        1.000000        0.00261665        0.14729451        0.35585609        0.14064507
     174         -0.452856        1.000000        0.00054130        0.20356167        0.40274357        0.03299609
     175         -0.451611        1.000000        0.00113848        0.25385953        0.25759123        0.14049502
     176         -0.451339        1.000000        0.00045092        0.03707074        0.32233899        0.28334166
     177         -0.448169        1.000000        0.00130789        0.30639362        0.05009249        0.26280603
     178         -0.447180        1.000000        0.00054014        0.00730750        0.12624479        0.50505300
     179         -0.446386        1.000000        0.00180307        0.00438669        0.20521566        0.40439212
     180         -0.446202        1.000000        0.00048145        0.32450027        0.04552184        0.26698525
     181         -0.445509        1.000000        0.00298763        0.27653211        0.30509159        0.07266449
     182         -0.445293        1.000000        0.00073966        0.05887822        0.39935775        0.19189860
     183         -0.441084        1.000000        0.00035244        0.04193870        0.02949330        0.01846976
     184         -0.440987        1.000000        0.00165604        0.27368396        0.20210272        0.15886561
     185         -0.440880        1.000000        0.00293604        0.11495746        0.15429777        0.37611940
     186         -0.440703        1.000000        0.00135323        0.21625693        0.19033960        0.06624724
     187         -0.440337        1.000000        0.00171740        0.04803008        0.05660594        0.50650203
     188         -0.440109        1.000000        0.00128568        0.08908911        0.34349892        0.22403551
     189         -0.439991        1.000000        0.00109080        0.24901800        0.29153588        0.07358211
     190         -0.439525        1.000000        0.00130775        0.13478068        0.10692947        0.05518896
     191         -0.438657        1.000000        0.00153959        0.29349109        0.25096307        0.09422051
     192         -0.438392        1.000000        0.00251584        0.17573927        0.41344402        0.05029169
     193         -0.438370        1.000000        0.00227886        0.25660906        0.27532533        0.10148934
     194         -0.438254        1.000000        0.00287392        0.04695225        0.41498349        0.18721153
     195         -0.437955        1.000000        0.00210432        0.31643068        0.17344080        0.13863388
     196         -0.436964        1.000000        0.00114480        0.20635017        0.22036831        0.23051567
     197         -0.435867        1.000000        0.00230041        0.15210026        0.18242835        0.30206803
     198         -0.435543        1.000000        0.00162349        0.18778444        0.24190149        0.17969876
     199         -0.433610        1.000000        0.00407619        0.32167991        0.10393137        0.22810392
     200         -0.433001        1.000000        0.00112606        0.46052963        0.10617925        0.08874898
     201         -0.432488        1.000000        0.00060476        0.07180008        0.13259108        0.19487858
     202         -0.432207        1.000000        0.00047663        0.02976904        0.01742311        0.58796877
     203         -0.432038        1.000000        0.00163480        0.20491087        0.24686449        0.15549618
     204         -0.431892        1.000000        0.00075362        0.08593430        0.13273958        0.18555255
     205         -0.430295        1.000000        0.00226371        0.12026525        0.14273203        0.36812401
     206         -0.429598        1.000000        0.00643924        0.10009820        0.14166048        0.40491417
     207         -0.429354        1.000000        0.00238380        0.24487835        0.16767256        0.23267350
     208         -0.429179        1.000000        0.00114597        0.39531740        0.11034995        0.13153645
     209         -0.428137        1.000000        0.00156066        0.36340532        0.10271933        0.17185616
     210         -0.426914        1.000000        0.00389144        0.02833603        0.32750817        0.13465489
     211         -0.426449        1.000000        0.00357919        0.16090403        0.34305930        0.15630939
     212         -0.426424        1.000000        0.00152661        0.18988985        0.26731926        0.18749076
     213         -0.426226        1.000000        0.00010224        0.18325147        0.38486368        0.06218086
     214         -0.424704        1.000000        0.00428284        0.22245082        0.25191147        0.17017771
     215         -0.424668        1.000000        0.00421001        0.22560220        0.25729828        0.16161000
     216         -0.424597        1.000000        0.00350736        0.27206229        0.26613185        0.10852999
     217         -0.424102        1.000000        0.00417309        0.27266222        0.17221000        0.20276086
     218         -0.422672        1.000000        0.00181995        0.32306231        0.17263609        0.16031106
     219         -0.422009        1.000000        0.00294810        0.31187831        0.15928857        0.18079018
     220         -0.419804        1.000000        0.00418097        0.06028010        0.16081807        0.41614657
     221         -0.419592        1.000000        0.00327274        0.19048349        0.16726749        0.28596890
     222         -0.418611        1.000000        0.00422848        0.12862945        0.07881475        0.43474148
     223         -0.418375        1.000000        0.00579832        0.31905263        0.09729208        0.22429811
     224         -0.418096        1.000000        0.00265149        0.15438689        0.37010235        0.11622055
     225         -0.417024        1.000000        0.00277881        0.08520071        0.09503077        0.45986831
     226         -0.416724        1.000000        0.00383427        0.05129464        0.37601632        0.21204754
     227         -0.416494        1.000000        0.00137589        0.18897957        0.07123981        0.37190614
     228         -0.416242        1.000000        0.00460056        0.22640538        0.23073983        0.10757879
     229         -0.415986        1.000000        0.00333663        0.32461464        0.17910976        0.15121705
     230         -0.415600        1.000000        0.00321188        0.04322187        0.09472607        0.49871066
     231         -0.414999        1.000000        0.00183678        0.13716149        0.15252730        0.12631308
     232         -0.414501        1.000000        0.00181190        0.15166620        0.23083474        0.26530258
     233         -0.413934        1.000000        0.00362053        0.18820061        0.07655528        0.38445227
     234         -0.413718        1.000000        0.00267882        0.30913125        0.04903283        0.27609837
     235         -0.413679        1.000000        0.00407507        0.19494205        0.19989959        0.18210955
     236         -0.412955        1.000000        0.00417423        0.36218525        0.20046360        0.06019581
     237         -0.412571        1.000000        0.00347152        0.25770448        0.26281619        0.13420608
     238         -0.412400        1.000000        0.00238796        0.27947518        0.05459501        0.29764429
     239         -0.412272        1.000000        0.00390485        0.16951357        0.09579942        0.38602130
     240         -0.411530        1.000000        0.00394363        0.28323234        0.01993731        0.35185298
     241         -0.410312        1.000000        0.00042300        0.00897543        0.00533958        0.01202072
     242         -0.409676        1.000000        0.00177380        0.24011714        0.15056652        0.25049939
     243         -0.409579        1.000000        0.00057764        0.12615075        0.33845060        0.15198215
     244         -0.408492        1.000000        0.00226099        0.25607832        0.13948366        0.22296997
     245         -0.408193        1.000000        0.00520517        0.03582053        0.14155110        0.44631566
     246         -0.407442        1.000000        0.00115826        0.24036959        0.19133899        0.17820807
     247         -0.404126        1.000000        0.00211230        0.29779431        0.09944074        0.24371668
     248         -0.403927        1.000000        0.00163980        0.09266523        0.25223718        0.18575313
     249         -0.403650        1.000000        0.00057581        0.01501866        0.03061486        0.03126279
     250         -0.403272        1.000000        0.00092199        0.02192787        0.05935658        0.05126998
     251         -0.403068        1.000000        0.00553071        0.09933985        0.24765425        0.25995827
     252         -0.401724        1.000000        0.00515154        0.15777875        0.10929450        0.38360930
     253         -0.401110        1.000000        0.00224380        0.24519788        0.31350527        0.08124386
     254         -0.400991        1.000000        0.00487820        0.04876596        0.12023799        0.47202658
     255         -0.399087        1.000000        0.00090584        0.04400262        0.31648978        0.11655334
     256         -0.398472        1.000000        0.00005190        0.09713058        0.04010832        0.49146381
     257         -0.397630        1.000000        0.00143268        0.10526792        0.15293830        0.07654120
     258         -0.397100        1.000000        0.00127367        0.12031446        0.14624496        0.07844757
     259         -0.396170        1.000000        0.00463463        0.16437719        0.15739297        0.29819056