# Projected DOS for atomic kind C at iteration step i = 0, E(Fermi) =    -0.112045 a.u.
#     MO Eigenvalue [a.u.]      Occupation                 s                py                pz                px
       1         -0.905634        1.000000        0.00000009        0.00000027        0.00000008        0.00000000
       2         -0.901779        1.000000        0.00000063        0.00000072        0.00000089        0.00000219
       3         -0.900648        1.000000        0.00000000        0.00000000        0.00000000        0.00000001
       4         -0.897187        1.000000        0.00000059        0.00000007        0.00000021        0.00000030
       5         -0.895660        1.000000        0.00000001        0.00000000        0.00000001        0.00000001
       6         -0.894405        1.000000        0.00000003        0.00000001        0.00000008        0.00000002
       7         -0.892843        1.000000        0.00000016        0.00000000        0.00000006        0.00000023
       8         -0.891926        1.000000        0.00000002        0.00000000        0.00000001        0.00000003
       9         -0.891860        1.000000        0.00000000        0.00000000        0.00000000        0.00000000
      10         -0.889828        1.000000        0.00000005        0.00000002        0.00000000        0.00000010
      11         -0.886852        1.000000        0.00000004        0.00000005        0.00000000        0.00000000
      12         -0.886136        1.000000        0.00000001        0.00000001        0.00000000        0.00000000
      13         -0.884241        1.000000        0.06052098        0.00015659        0.00558247        0.03816242
      14         -0.884115        1.000000        0.00102910        0.00007926        0.00032382        0.00045930
      15         -0.883913        1.000000        0.00000000        0.00000000        0.00000001        0.00000000
      16         -0.879997        1.000000        0.00000082        0.00000007        0.00000021        0.00000048
      17         -0.878691        1.000000        0.00772540        0.00000023        0.00148593        0.00408558
      18         -0.878425        1.000000        0.05218349        0.00000007        0.01072319        0.02727834
      19         -0.878378        1.000000        0.00006431        0.00001756        0.00001477        0.00002523
      20         -0.877788        1.000000        0.00000000        0.00000034        0.00000047        0.00000108
      21         -0.876964        1.000000        0.00000104        0.00000027        0.00000096        0.00000757
      22         -0.876504        1.000000        0.00000615        0.00000886        0.00000580        0.00000034
      23         -0.873767        1.000000        0.00000014        0.00000003        0.00000039        0.00000003
      24         -0.872581        1.000000        0.00000162        0.00000034        0.00000108        0.00000043
      25         -0.870259        1.000000        0.00000064        0.00000004        0.00000065        0.00000020
      26         -0.868999        1.000000        0.00040082        0.00012339        0.00009312        0.00012281
      27         -0.868330        1.000000        0.00000006        0.00000045        0.00000054        0.00000093
      28         -0.867262        1.000000        0.00003054        0.00000625        0.00000655        0.00001634
      29         -0.867194        1.000000        0.00000189        0.00000018        0.00000351        0.00000010
      30         -0.866877        1.000000        0.06367191        0.00606929        0.00013294        0.03858216
      31         -0.865903        1.000000        0.00000001        0.00000000        0.00000001        0.00000000
      32         -0.865819        1.000000        0.00002899        0.00000066        0.00000034        0.00003054
      33         -0.862690        1.000000        0.00005459        0.00000082        0.00000211        0.00005431
      34         -0.861419        1.000000        0.00091469        0.00003334        0.00015382        0.00032353
      35         -0.861106        1.000000        0.00002199        0.00000060        0.00000645        0.00000927
      36         -0.860871        1.000000        0.00567774        0.00015176        0.00163967        0.00217708
      37         -0.860104        1.000000        0.00000012        0.00000018        0.00000124        0.00000198
      38         -0.859939        1.000000        0.00000000        0.00000002        0.00000009        0.00000007
      39         -0.859143        1.000000        0.00024534        0.00007336        0.00005553        0.00006258
      40         -0.858344        1.000000        0.00659597        0.00017655        0.00185042        0.00241068
      41         -0.857062        1.000000        0.00000247        0.00000001        0.00000215        0.00000059
      42         -0.856680        1.000000        0.00000022        0.00000003        0.00000257        0.00000310
      43         -0.855274        1.000000        0.00003017        0.00000062        0.00012800        0.00001065
      44         -0.854411        1.000000        0.00000034        0.00000010        0.00000309        0.00000420
      45         -0.852889        1.000000        0.00000914        0.00000111        0.00000044        0.00000826
      46         -0.852037        1.000000        0.00005111        0.00000231        0.00005330        0.00001882
      47         -0.851361        1.000000        0.03878423        0.01133623        0.00862060        0.00851329
      48         -0.850083        1.000000        0.00015613        0.00004504        0.00003426        0.00003453
      49         -0.850055        1.000000        0.00001736        0.00000505        0.00000385        0.00000373
      50         -0.848510        1.000000        0.00000037        0.00000069        0.00000154        0.00000243
      51         -0.848294        1.000000        0.00001488        0.00000151        0.00000827        0.00000289
      52         -0.847951        1.000000        0.00000664        0.00000046        0.00000205        0.00000223
      53         -0.847473        1.000000        0.00633233        0.00181321        0.00140013        0.00129038
      54         -0.847388        1.000000        0.00040511        0.00010735        0.00011195        0.00009751
      55         -0.846091        1.000000        0.00000079        0.00000030        0.00000365        0.00000629
      56         -0.845040        1.000000        0.00000456        0.00000026        0.00003390        0.00006667
      57         -0.844793        1.000000        0.00003471        0.00000216        0.00001318        0.00000978
      58         -0.843605        1.000000        0.00000003        0.00000004        0.00000013        0.00000031
      59         -0.842133        1.000000        0.00213409        0.00001925        0.00050969        0.00066374
      60         -0.841837        1.000000        0.04816981        0.00046444        0.01216413        0.01547412
      61         -0.841386        1.000000        0.00000006        0.00000017        0.00000048        0.00000112
      62         -0.841273        1.000000        0.00000012        0.00000000        0.00000002        0.00000005
      63         -0.840423        1.000000        0.00000183        0.00000147        0.00000775        0.00000988
      64         -0.838266        1.000000        0.00124194        0.00000499        0.00001394        0.00102431
      65         -0.837935        1.000000        0.00141208        0.00011737        0.00065108        0.00033636
      66         -0.837411        1.000000        0.00000156        0.00000015        0.00000072        0.00000044
      67         -0.837213        1.000000        0.00009197        0.00000797        0.00004120        0.00002253
      68         -0.836317        1.000000        0.00000000        0.00000002        0.00000000        0.00000001
      69         -0.835854        1.000000        0.00008697        0.00000730        0.00000737        0.00006472
      70         -0.834589        1.000000        0.00055099        0.00014846        0.00011451        0.00009429
      71         -0.834577        1.000000        0.00089446        0.00024139        0.00018669        0.00015201
      72         -0.834459        1.000000        0.00002623        0.00000620        0.00000620        0.00000453
      73         -0.833825        1.000000        0.00141323        0.00014654        0.00054159        0.00036925
      74         -0.833677        1.000000        0.00003844        0.00000314        0.00001342        0.00000691
      75         -0.833268        1.000000        0.00000199        0.00000274        0.00000548        0.00000775
      76         -0.830119        1.000000        0.00003100        0.00000249        0.00001195        0.00000728
      77         -0.829586        1.000000        0.01494415        0.00004873        0.00358635        0.00427961
      78         -0.828439        1.000000        0.01517964        0.00401201        0.00311125        0.00221589
      79         -0.828282        1.000000        0.00001273        0.00000193        0.00000289        0.00000471
      80         -0.827001        1.000000        0.00000000        0.00000000        0.00000000        0.00000000
      81         -0.826592        1.000000        0.00028560        0.00002567        0.00012200        0.00006759
      82         -0.826215        1.000000        0.00000009        0.00000016        0.00000014        0.00000025
      83         -0.825129        1.000000        0.00002558        0.00000015        0.00004128        0.00001156
      84         -0.824204        1.000000        0.00000000        0.00000001        0.00000001        0.00000002
      85         -0.823379        1.000000        0.00000051        0.00000031        0.00000136        0.00000160
      86         -0.823283        1.000000        0.00000085        0.00006392        0.00004218        0.00000301
      87         -0.822549        1.000000        0.00769956        0.00004243        0.00019747        0.00539506
      88         -0.822163        1.000000        0.00122760        0.00024327        0.00019637        0.00033854
      89         -0.820437        1.000000        0.00000897        0.00000231        0.00000178        0.00000118
      90         -0.817923        1.000000        0.00806175        0.00061677        0.00259358        0.00205065
      91         -0.815954        1.000000        0.00039558        0.00004495        0.00000099        0.00026127
      92         -0.814951        1.000000        0.02055935        0.00158453        0.00618819        0.00532869
      93         -0.814679        1.000000        0.00000108        0.00000022        0.00000023        0.00000016
      94         -0.814635        1.000000        0.00000241        0.00000117        0.00000985        0.00000086
      95         -0.814396        1.000000        0.00013462        0.00001019        0.00004028        0.00003495
      96         -0.813980        1.000000        0.00000001        0.00000002        0.00000001        0.00000005
      97         -0.813787        1.000000        0.00000004        0.00000009        0.00000008        0.00000007
      98         -0.812586        1.000000        0.00000003        0.00000002        0.00000009        0.00000015
      99         -0.810886        1.000000        0.00006805        0.00000492        0.00001915        0.00001902
     100         -0.808123        1.000000        0.02831628        0.00191874        0.00776938        0.00744180
     101         -0.807741        1.000000        0.00005870        0.00003248        0.00000520        0.00020213
     102         -0.804778        1.000000        0.00000385        0.00004227        0.00002819        0.00007206
     103         -0.803119        1.000000        0.00002216        0.00018336        0.00006649        0.00002129
     104         -0.801398        1.000000        0.00000103        0.00000050        0.00000111        0.00000014
     105         -0.799710        1.000000        0.00000002        0.00000000        0.00000009        0.00000034
     106         -0.798795        1.000000        0.00000000        0.00000000        0.00000001        0.00000003
     107         -0.790998        1.000000        0.00000000        0.00000000        0.00000000        0.00000001
     108         -0.788452        1.000000        0.07257534        0.00111882        0.00170295        0.03728367
     109         -0.787040        1.000000        0.01809594        0.00095429        0.00364866        0.00465685
     110         -0.778984        1.000000        0.00014109        0.00000646        0.00002701        0.00002928
     111         -0.773284        1.000000        0.00000081        0.00000001        0.00000024        0.00000012
     112         -0.629236        1.000000        0.43807288        0.00018864        0.00040889        0.00078517
     113         -0.623175        1.000000        0.43903423        0.00000032        0.00027500        0.00090493
     114         -0.614666        1.000000        0.43742950        0.00019920        0.00000832        0.00204855
     115         -0.613694        1.000000        0.43024046        0.00000482        0.00384559        0.00401440
     116         -0.593178        1.000000        0.43645216        0.00036314        0.00106404        0.00106301
     117         -0.578896        1.000000        0.00048082        0.00016463        0.00007007        0.00000768
     118         -0.575972        1.000000        0.00018919        0.00010228        0.00000489        0.00002877
     119         -0.575386        1.000000        0.42753998        0.00089991        0.00221133        0.00403739
     120         -0.572507        1.000000        0.00076855        0.00056724        0.00004529        0.00012968
     121         -0.567990        1.000000        0.42192182        0.00031756        0.00042206        0.00770951
     122         -0.566871        1.000000        0.00016626        0.00016275        0.00004493        0.00003672
     123         -0.552351        1.000000        0.00063051        0.00001848        0.00006613        0.00014036
     124         -0.537891        1.000000        0.00275038        0.00052735        0.00052703        0.00029046
     125         -0.535691        1.000000        0.00124541        0.00040841        0.00039977        0.00006238
     126         -0.530706        1.000000        0.00015347        0.00870262        0.00141534        0.00047430
     127         -0.530124        1.000000        0.00057276        0.00014846        0.00006064        0.00007855
     128         -0.528379        1.000000        0.00016883        0.00236249        0.00030508        0.00014695
     129         -0.525797        1.000000        0.00012476        0.00185389        0.00063306        0.00024795
     130         -0.524491        1.000000        0.00127986        0.00105380        0.00304966        0.00128422
     131         -0.523123        1.000000        0.00018407        0.00076720        0.00259139        0.00064138
     132         -0.522180        1.000000        0.00038654        0.00102810        0.00232814        0.00026448
     133         -0.520735        1.000000        0.00018745        0.00008192        0.00032638        0.00025976
     134         -0.520496        1.000000        0.00001026        0.00019387        0.00012619        0.00009462
     135         -0.518857        1.000000        0.00013975        0.00288242        0.00127073        0.00076389
     136         -0.516561        1.000000        0.00047420        0.00087163        0.00305233        0.00132713
     137         -0.516028        1.000000        0.00013495        0.00242850        0.00166377        0.00095171
     138         -0.513751        1.000000        0.00017936        0.01236437        0.00108781        0.00006558
     139         -0.512732        1.000000        0.00033808        0.00203126        0.00517147        0.00161827
     140         -0.511603        1.000000        0.00002908        0.00323184        0.00003120        0.00012844
     141         -0.511523        1.000000        0.00019430        0.00152696        0.00248515        0.00082424
     142         -0.510272        1.000000        0.00030539        0.00031468        0.00037559        0.00001231
     143         -0.510080        1.000000        0.00006745        0.00048484        0.00059814        0.00017724
     144         -0.507287        1.000000        0.00053940        0.00123627        0.00216516        0.00037881
     145         -0.507032        1.000000        0.00006519        0.00041966        0.00019046        0.00003968
     146         -0.505872        1.000000        0.00050622        0.00155756        0.00124151        0.00012718
     147         -0.505587        1.000000        0.00001398        0.00007643        0.00019220        0.00004451
     148         -0.504209        1.000000        0.00010184        0.00090330        0.00271221        0.00097131
     149         -0.503060        1.000000        0.00007012        0.00607346        0.00158888        0.00048033
     150         -0.502546        1.000000        0.00014424        0.01679310        0.02183438        0.00150789
     151         -0.502196        1.000000        0.00007094        0.00196004        0.00223968        0.00023228
     152         -0.501387        1.000000        0.00004840        0.01075981        0.02269567        0.00684219
     153         -0.500827        1.000000        0.00022000        0.00257082        0.00066931        0.00045401
     154         -0.499347        1.000000        0.00017709        0.00170414        0.00395014        0.00277417
     155         -0.498440        1.000000        0.00006279        0.00102799        0.00145054        0.00103749
     156         -0.493099        1.000000        0.00097796        0.02387329        0.01574859        0.00898401
     157         -0.492124        1.000000        0.00009231        0.00257650        0.00053074        0.00035495
     158         -0.486621        1.000000        0.00035398        0.03643503        0.01140399        0.00893028
     159         -0.485447        1.000000        0.00005768        0.04124666        0.00991245        0.00713624
     160         -0.481257        1.000000        0.00007399        0.00455520        0.05178515        0.00320457
     161         -0.473310        1.000000        0.00039338        0.02269479        0.03356464        0.00271823
     162         -0.471351        1.000000        0.00049506        0.03431242        0.02150768        0.01599546
     163         -0.466668        1.000000        0.00003375        0.01454376        0.00396592        0.04206923
     164         -0.466090        1.000000        0.00007528        0.04068932        0.02209980        0.02386242
     165         -0.465793        1.000000        0.00000062        0.00001205        0.00000243        0.00000556
     166         -0.465783        1.000000        0.00000308        0.00041351        0.00019549        0.00102907
     167         -0.463910        1.000000        0.00000221        0.00003822        0.00002370        0.00003387
     168         -0.459476        1.000000        0.00004230        0.00002369        0.00103868        0.00031234
     169         -0.457994        1.000000        0.00000174        0.00001563        0.00001978        0.00001389
     170         -0.457541        1.000000        0.00000089        0.00001485        0.00001476        0.00000796
     171         -0.456682        1.000000        0.00000008        0.00003474        0.00004801        0.00002419
     172         -0.454585        1.000000        0.00000071        0.00000800        0.00002054        0.00000292
     173         -0.454036        1.000000        0.00000243        0.00000153        0.00000612        0.00000559
     174         -0.452856        1.000000        0.00000023        0.00000430        0.00000435        0.00000652
     175         -0.451611        1.000000        0.00000273        0.00002328        0.00002518        0.00019556
     176         -0.451339        1.000000        0.00000119        0.00000048        0.00001058        0.00000237
     177         -0.448169        1.000000        0.00000018        0.00001678        0.00000211        0.00000057
     178         -0.447180        1.000000        0.00000004        0.00000120        0.00000006        0.00000296
     179         -0.446386        1.000000        0.00000119        0.00030382        0.00041133        0.00007779
     180         -0.446202        1.000000        0.00000027        0.00000223        0.00000253        0.00000067
     181         -0.445509        1.000000        0.00000059        0.00000372        0.00001306        0.00000143
     182         -0.445293        1.000000        0.00000003        0.00000109        0.00000007        0.00000013
     183         -0.441084        1.000000        0.00000382        0.06137379        0.00797206        0.00159615
     184         -0.440987        1.000000        0.00000119        0.00332602        0.00029237        0.00014244
     185         -0.440880        1.000000        0.00001843        0.00024807        0.00007966        0.00001855
     186         -0.440703        1.000000        0.00002239        0.00995377        0.00786896        0.00112387
     187         -0.440337        1.000000        0.00000058        0.00023416        0.00003513        0.00000383
     188         -0.440109        1.000000        0.00000056        0.00000308        0.00000887        0.00000541
     189         -0.439991        1.000000        0.00000790        0.00038114        0.00053167        0.00022758
     190         -0.439525        1.000000        0.00010103        0.01399373        0.02415957        0.00361978
     191         -0.438657        1.000000        0.00000794        0.00019345        0.00002812        0.00008892
     192         -0.438392        1.000000        0.00008397        0.00028325        0.00030040        0.00003734
     193         -0.438370        1.000000        0.00002855        0.00005773        0.00024563        0.00009265
     194         -0.438254        1.000000        0.00000158        0.00000087        0.00000059        0.00000261
     195         -0.437955        1.000000        0.00001193        0.00016988        0.00025577        0.00008881
     196         -0.436964        1.000000        0.00000007        0.00000273        0.00000633        0.00000625
     197         -0.435867        1.000000        0.00000618        0.00067510        0.00031701        0.00012266
     198         -0.435543        1.000000        0.00000999        0.00228064        0.00122311        0.00032875
     199         -0.433610        1.000000        0.00000011        0.00000037        0.00000454        0.00000152
     200         -0.433001        1.000000        0.00000422        0.00004435        0.00010698        0.00000136
     201         -0.432488        1.000000        0.00052159        0.00143100        0.02180230        0.01499151
     202         -0.432207        1.000000        0.00000055        0.00002413        0.00001998        0.00000203
     203         -0.432038        1.000000        0.00003971        0.00089020        0.00307280        0.00117173
     204         -0.431892        1.000000        0.00041250        0.00072267        0.02187565        0.01442026
     205         -0.430295        1.000000        0.00000142        0.00163975        0.00000186        0.00000247
     206         -0.429598        1.000000        0.00000998        0.00001078        0.00056763        0.00035648
     207         -0.429354        1.000000        0.00000104        0.00045012        0.00000562        0.00000233
     208         -0.429179        1.000000        0.00000089        0.00001107        0.00003108        0.00001280
     209         -0.428137        1.000000        0.00000006        0.00001774        0.00000103        0.00000053
     210         -0.426914        1.000000        0.00000256        0.00196729        0.01918909        0.00067268
     211         -0.426449        1.000000        0.00000113        0.00000436        0.00004160        0.00002062
     212         -0.426424        1.000000        0.00004330        0.00009093        0.00106168        0.00032855
     213         -0.426226        1.000000        0.00000757        0.00002683        0.00000651        0.00007405
     214         -0.424704        1.000000        0.00000238        0.00000645        0.00017194        0.00011291
     215         -0.424668        1.000000        0.00000372        0.00000729        0.00028163        0.00010754
     216         -0.424597        1.000000        0.00000010        0.00005204        0.00003493        0.00000559
     217         -0.424102        1.000000        0.00000141        0.00000336        0.00001721        0.00003822
     218         -0.422672        1.000000        0.00000303        0.00009707        0.00081351        0.00013664
     219         -0.422009        1.000000        0.00000117        0.00000047        0.00000538        0.00000882
     220         -0.419804        1.000000        0.00000108        0.00037295        0.00032808        0.00002025
     221         -0.419592        1.000000        0.00001455        0.00000578        0.00242117        0.00063701
     222         -0.418611        1.000000        0.00000270        0.00000783        0.00060889        0.00012168
     223         -0.418375        1.000000        0.00000162        0.00000057        0.00000338        0.00004513
     224         -0.418096        1.000000        0.00000120        0.00000024        0.00001489        0.00001928
     225         -0.417024        1.000000        0.00000586        0.00000296        0.00221447        0.00028550
     226         -0.416724        1.000000        0.00000472        0.00000509        0.00003670        0.00009778
     227         -0.416494        1.000000        0.00000453        0.00167859        0.00034926        0.00007907
     228         -0.416242        1.000000        0.00006826        0.01100127        0.00530425        0.00028881
     229         -0.415986        1.000000        0.00000218        0.00015783        0.00001104        0.00001546
     230         -0.415600        1.000000        0.00000406        0.00056110        0.00013692        0.00002690
     231         -0.414999        1.000000        0.00015732        0.02929152        0.01242741        0.00071845
     232         -0.414501        1.000000        0.00001117        0.00125870        0.00043513        0.00004773
     233         -0.413934        1.000000        0.00000855        0.00005834        0.00010880        0.00004809
     234         -0.413718        1.000000        0.00001582        0.00055459        0.00133950        0.00067304
     235         -0.413679        1.000000        0.00001281        0.01043202        0.00155899        0.00020002
     236         -0.412955        1.000000        0.00005695        0.00000665        0.00013264        0.00061806
     237         -0.412571        1.000000        0.00000600        0.00001046        0.00097009        0.00019312
     238         -0.412400        1.000000        0.00014180        0.00000159        0.00014231        0.00315241
     239         -0.412272        1.000000        0.00000098        0.00000059        0.00001064        0.00000579
     240         -0.411530        1.000000        0.00003110        0.00000296        0.00009481        0.00037868
     241         -0.410312        1.000000        0.02253769        0.00367249        0.05583621        0.26511742
     242         -0.409676        1.000000        0.00002543        0.00000514        0.00007602        0.00025511
     243         -0.409579        1.000000        0.00000625        0.00026846        0.00075941        0.00005494
     244         -0.408492        1.000000        0.00006094        0.00075351        0.00193078        0.00047864
     245         -0.408193        1.000000        0.00031091        0.00005929        0.00423518        0.00383124
     246         -0.407442        1.000000        0.00047876        0.00020995        0.00071173        0.00582633
     247         -0.404126        1.000000        0.00010817        0.00024372        0.00079824        0.00004889
     248         -0.403927        1.000000        0.00358440        0.00002916        0.01193291        0.03570148
     249         -0.403650        1.000000        0.01653047        0.00002568        0.06135362        0.16164138
     250         -0.403272        1.000000        0.00421373        0.00019105        0.01298622        0.04373482
     251         -0.403068        1.000000        0.00011023        0.00001022        0.00094166        0.00130303
     252         -0.401724        1.000000        0.00000599        0.00000664        0.00002067        0.00007075
     253         -0.401110        1.000000        0.00001859        0.00002957        0.00018316        0.00000539
     254         -0.400991        1.000000        0.00005681        0.00004355        0.00006707        0.00056889
     255         -0.399087        1.000000        0.00005511        0.00003102        0.00012525        0.00099294
     256         -0.398472        1.000000        0.00000270        0.00000157        0.00000938        0.00003108
     257         -0.397630        1.000000        0.00004351        0.00023717        0.00048412        0.00033316
     258         -0.397100        1.000000        0.00004540        0.00026860        0.00048863        0.00019384
     259         -0.396170        1.000000        0.00005643        0.00019566        0.00003107        0.00037291