# Projected DOS for atomic kind Pb at iteration step i = 0, E(Fermi) =    -0.112045 a.u.
#     MO Eigenvalue [a.u.]      Occupation                 s                py                pz                px
       1         -0.905634        1.000000        0.00000004        0.00000016        0.00000000        0.00000003
       2         -0.901779        1.000000        0.00000016        0.00000099        0.00000010        0.00000000
       3         -0.900648        1.000000        0.00000023        0.00000118        0.00000003        0.00000092
       4         -0.897187        1.000000        0.00000011        0.00000060        0.00000003        0.00000006
       5         -0.895660        1.000000        0.00000021        0.00000023        0.00000020        0.00000119
       6         -0.894405        1.000000        0.00000001        0.00000004        0.00000001        0.00000000
       7         -0.892843        1.000000        0.00000033        0.00000004        0.00000001        0.00000134
       8         -0.891926        1.000000        0.00000007        0.00000040        0.00000030        0.00000061
       9         -0.891860        1.000000        0.00000013        0.00000118        0.00000061        0.00000001
      10         -0.889828        1.000000        0.00000086        0.00000305        0.00001391        0.00000674
      11         -0.886852        1.000000        0.00000004        0.00000001        0.00000001        0.00000018
      12         -0.886136        1.000000        0.00000013        0.00000141        0.00000014        0.00000069
      13         -0.884241        1.000000        0.00000031        0.00000248        0.00000574        0.00000066
      14         -0.884115        1.000000        0.00000020        0.00000112        0.00000015        0.00000031
      15         -0.883913        1.000000        0.00000022        0.00000005        0.00000024        0.00000201
      16         -0.879997        1.000000        0.00000073        0.00000423        0.00000005        0.00001556
      17         -0.878691        1.000000        0.00000066        0.00000126        0.00000352        0.00000060
      18         -0.878425        1.000000        0.00000022        0.00000457        0.00000467        0.00000260
      19         -0.878378        1.000000        0.00000072        0.00000243        0.00000120        0.00000439
      20         -0.877788        1.000000        0.00000088        0.00000250        0.00000303        0.00001103
      21         -0.876964        1.000000        0.00000018        0.00000000        0.00000004        0.00000076
      22         -0.876504        1.000000        0.00000001        0.00000016        0.00000002        0.00000013
      23         -0.873767        1.000000        0.00000044        0.00000510        0.00000342        0.00000393
      24         -0.872581        1.000000        0.00000005        0.00000001        0.00000027        0.00000000
      25         -0.870259        1.000000        0.00000044        0.00000005        0.00000200        0.00000023
      26         -0.868999        1.000000        0.00000000        0.00000121        0.00000005        0.00000408
      27         -0.868330        1.000000        0.00000018        0.00000016        0.00001099        0.00000169
      28         -0.867262        1.000000        0.00000036        0.00000003        0.00000010        0.00000297
      29         -0.867194        1.000000        0.00000012        0.00000128        0.00000004        0.00000017
      30         -0.866877        1.000000        0.00000053        0.00000574        0.00000550        0.00000414
      31         -0.865903        1.000000        0.00000011        0.00000040        0.00000085        0.00000000
      32         -0.865819        1.000000        0.00000063        0.00000006        0.00000017        0.00000892
      33         -0.862690        1.000000        0.00000010        0.00000012        0.00000007        0.00000116
      34         -0.861419        1.000000        0.00000012        0.00000078        0.00000036        0.00000088
      35         -0.861106        1.000000        0.00000033        0.00000055        0.00000566        0.00000065
      36         -0.860871        1.000000        0.00000003        0.00000066        0.00000221        0.00000114
      37         -0.860104        1.000000        0.00000054        0.00000160        0.00000319        0.00000538
      38         -0.859939        1.000000        0.00000063        0.00000087        0.00000225        0.00001040
      39         -0.859143        1.000000        0.00000029        0.00000086        0.00000049        0.00000110
      40         -0.858344        1.000000        0.00000009        0.00000090        0.00000226        0.00000128
      41         -0.857062        1.000000        0.00000022        0.00000208        0.00000122        0.00000136
      42         -0.856680        1.000000        0.00000061        0.00000164        0.00000051        0.00000249
      43         -0.855274        1.000000        0.00000035        0.00000016        0.00000181        0.00000009
      44         -0.854411        1.000000        0.00000014        0.00000297        0.00000052        0.00000046
      45         -0.852889        1.000000        0.00000005        0.00000045        0.00000024        0.00000330
      46         -0.852037        1.000000        0.00000022        0.00000008        0.00000135        0.00000010
      47         -0.851361        1.000000        0.00000131        0.00000994        0.00000551        0.00000022
      48         -0.850083        1.000000        0.00000005        0.00000009        0.00000008        0.00000019
      49         -0.850055        1.000000        0.00000036        0.00000206        0.00000601        0.00000346
      50         -0.848510        1.000000        0.00000091        0.00000019        0.00000615        0.00000349
      51         -0.848294        1.000000        0.00000047        0.00000002        0.00000552        0.00000009
      52         -0.847951        1.000000        0.00000000        0.00000099        0.00000079        0.00000034
      53         -0.847473        1.000000        0.00000001        0.00000013        0.00000025        0.00000055
      54         -0.847388        1.000000        0.00000004        0.00000072        0.00000081        0.00000014
      55         -0.846091        1.000000        0.00000004        0.00000028        0.00000047        0.00000029
      56         -0.845040        1.000000        0.00000001        0.00000003        0.00000005        0.00000007
      57         -0.844793        1.000000        0.00000079        0.00000031        0.00000479        0.00000061
      58         -0.843605        1.000000        0.00000005        0.00000339        0.00000387        0.00000041
      59         -0.842133        1.000000        0.00000012        0.00000077        0.00000131        0.00000090
      60         -0.841837        1.000000        0.00000143        0.00000978        0.00001322        0.00000970
      61         -0.841386        1.000000        0.00000002        0.00000037        0.00000001        0.00000043
      62         -0.841273        1.000000        0.00000001        0.00000008        0.00000003        0.00000004
      63         -0.840423        1.000000        0.00000003        0.00000125        0.00000068        0.00000018
      64         -0.838266        1.000000        0.00000025        0.00000007        0.00000029        0.00000094
      65         -0.837935        1.000000        0.00000027        0.00000022        0.00000019        0.00000043
      66         -0.837411        1.000000        0.00000025        0.00000003        0.00000154        0.00000227
      67         -0.837213        1.000000        0.00000016        0.00000001        0.00000088        0.00000000
      68         -0.836317        1.000000        0.00000005        0.00000314        0.00000735        0.00000247
      69         -0.835854        1.000000        0.00000015        0.00000002        0.00000076        0.00000092
      70         -0.834589        1.000000        0.00000010        0.00000031        0.00000017        0.00000010
      71         -0.834577        1.000000        0.00000018        0.00000082        0.00000024        0.00000028
      72         -0.834459        1.000000        0.00000001        0.00000020        0.00000027        0.00000014
      73         -0.833825        1.000000        0.00000008        0.00000050        0.00000079        0.00000063
      74         -0.833677        1.000000        0.00000042        0.00000017        0.00000174        0.00000026
      75         -0.833268        1.000000        0.00000029        0.00000084        0.00000029        0.00000042
      76         -0.830119        1.000000        0.00000001        0.00000031        0.00000029        0.00000151
      77         -0.829586        1.000000        0.00000043        0.00000273        0.00000427        0.00000325
      78         -0.828439        1.000000        0.00000329        0.00002020        0.00000839        0.00000077
      79         -0.828282        1.000000        0.00000002        0.00000008        0.00000043        0.00000004
      80         -0.827001        1.000000        0.00000000        0.00000000        0.00000002        0.00000003
      81         -0.826592        1.000000        0.00000017        0.00000103        0.00000060        0.00000004
      82         -0.826215        1.000000        0.00000068        0.00000467        0.00000089        0.00000021
      83         -0.825129        1.000000        0.00000047        0.00000022        0.00000230        0.00000034
      84         -0.824204        1.000000        0.00000020        0.00000006        0.00000011        0.00000230
      85         -0.823379        1.000000        0.00000048        0.00000050        0.00000007        0.00000147
      86         -0.823283        1.000000        0.00000004        0.00000023        0.00000013        0.00000012
      87         -0.822549        1.000000        0.00000007        0.00000027        0.00000030        0.00000037
      88         -0.822163        1.000000        0.00000016        0.00000121        0.00000067        0.00000020
      89         -0.820437        1.000000        0.00000000        0.00000040        0.00000001        0.00000047
      90         -0.817923        1.000000        0.00000077        0.00000080        0.00000065        0.00000132
      91         -0.815954        1.000000        0.00000019        0.00000005        0.00000009        0.00000060
      92         -0.814951        1.000000        0.00000008        0.00000304        0.00000072        0.00000027
      93         -0.814679        1.000000        0.00000000        0.00000004        0.00000017        0.00000006
      94         -0.814635        1.000000        0.00000018        0.00000051        0.00000093        0.00000027
      95         -0.814396        1.000000        0.00000013        0.00000013        0.00000090        0.00000210
      96         -0.813980        1.000000        0.00000007        0.00000050        0.00000002        0.00000032
      97         -0.813787        1.000000        0.00000050        0.00000069        0.00000337        0.00000592
      98         -0.812586        1.000000        0.00000172        0.00000938        0.00000279        0.00000007
      99         -0.810886        1.000000        0.00000082        0.00000100        0.00000781        0.00000162
     100         -0.808123        1.000000        0.00000031        0.00000117        0.00000141        0.00000107
     101         -0.807741        1.000000        0.00000000        0.00000000        0.00000000        0.00000000
     102         -0.804778        1.000000        0.00000939        0.00006129        0.00000741        0.00000017
     103         -0.803119        1.000000        0.00000001        0.00000006        0.00000003        0.00000002
     104         -0.801398        1.000000        0.00000022        0.00000007        0.00000119        0.00000011
     105         -0.799710        1.000000        0.00000414        0.00002066        0.00000080        0.00000000
     106         -0.798795        1.000000        0.00000050        0.00000002        0.00000198        0.00000006
     107         -0.790998        1.000000        0.00000004        0.00000031        0.00000010        0.00000000
     108         -0.788452        1.000000        0.00000015        0.00000053        0.00000081        0.00000076
     109         -0.787040        1.000000        0.00000025        0.00000079        0.00000111        0.00000075
     110         -0.778984        1.000000        0.00000093        0.00000001        0.00000461        0.00000063
     111         -0.773284        1.000000        0.00002829        0.00000471        0.00015270        0.00000424
     112         -0.629236        1.000000        0.00001750        0.00002050        0.00001697        0.00000669
     113         -0.623175        1.000000        0.00003956        0.00003176        0.00003524        0.00001221
     114         -0.614666        1.000000        0.00005334        0.00005354        0.00004423        0.00001464
     115         -0.613694        1.000000        0.00003159        0.00003753        0.00004853        0.00002459
     116         -0.593178        1.000000        0.00000782        0.00001712        0.00000319        0.00000309
     117         -0.578896        1.000000        0.00535414        0.00023207        0.00676561        0.00004677
     118         -0.575972        1.000000        0.00269572        0.00017176        0.00269077        0.00131010
     119         -0.575386        1.000000        0.00023280        0.00010739        0.00003820        0.00009971
     120         -0.572507        1.000000        0.00651162        0.00063662        0.00679976        0.00045321
     121         -0.567990        1.000000        0.00049274        0.00003019        0.00030648        0.00009694
     122         -0.566871        1.000000        0.00105182        0.00229687        0.00083828        0.00015966
     123         -0.552351        1.000000        0.00999852        0.00778900        0.00014205        0.00007737
     124         -0.537891        1.000000        0.06576626        0.00050351        0.01742565        0.00156482
     125         -0.535691        1.000000        0.02802419        0.00047107        0.00686427        0.00233890
     126         -0.530706        1.000000        0.04608220        0.00098934        0.01154175        0.00084801
     127         -0.530124        1.000000        0.00495024        0.00257397        0.00118439        0.00009458
     128         -0.528379        1.000000        0.06076061        0.00237132        0.00646623        0.01085866
     129         -0.525797        1.000000        0.01104354        0.00079137        0.00375158        0.01306819
     130         -0.524491        1.000000        0.09125915        0.01341386        0.00208513        0.00147126
     131         -0.523123        1.000000        0.07404158        0.00908675        0.00954075        0.00064186
     132         -0.522180        1.000000        0.07490811        0.01268020        0.00808539        0.00139337
     133         -0.520735        1.000000        0.00344712        0.01076557        0.00347816        0.00109820
     134         -0.520496        1.000000        0.05005166        0.00839849        0.00403281        0.00036807
     135         -0.518857        1.000000        0.01478364        0.00871890        0.00614080        0.01086152
     136         -0.516561        1.000000        0.02487442        0.00776489        0.00533988        0.00858754
     137         -0.516028        1.000000        0.00262613        0.00112993        0.00324031        0.01166028
     138         -0.513751        1.000000        0.00676952        0.00038668        0.01221330        0.00472006
     139         -0.512732        1.000000        0.03475265        0.00658405        0.01179808        0.00459503
     140         -0.511603        1.000000        0.03130322        0.00575251        0.00371566        0.00708399
     141         -0.511523        1.000000        0.04312461        0.00698505        0.01267691        0.00262922
     142         -0.510272        1.000000        0.05390010        0.00354435        0.01178251        0.00224078
     143         -0.510080        1.000000        0.00859311        0.02532567        0.00482932        0.00357507
     144         -0.507287        1.000000        0.01959157        0.00720037        0.00809614        0.01336866
     145         -0.507032        1.000000        0.00103034        0.00201173        0.01582943        0.02390693
     146         -0.505872        1.000000        0.00743289        0.00413319        0.02131842        0.00113544
     147         -0.505587        1.000000        0.00571935        0.01108426        0.00266870        0.00709901
     148         -0.504209        1.000000        0.00652740        0.00260942        0.00156817        0.02544900
     149         -0.503060        1.000000        0.01470320        0.01210144        0.00239939        0.00191981
     150         -0.502546        1.000000        0.00140293        0.00491910        0.00492653        0.00284914
     151         -0.502196        1.000000        0.00050368        0.00081306        0.01552288        0.01127709
     152         -0.501387        1.000000        0.00089907        0.00556430        0.00119881        0.00229802
     153         -0.500827        1.000000        0.00016278        0.00293979        0.00432870        0.01927790
     154         -0.499347        1.000000        0.00275085        0.00139207        0.00327277        0.02007168
     155         -0.498440        1.000000        0.00676243        0.00074660        0.00361049        0.00643908
     156         -0.493099        1.000000        0.00850685        0.00201987        0.00735144        0.00046577
     157         -0.492124        1.000000        0.01086025        0.01855897        0.00191498        0.00084905
     158         -0.486621        1.000000        0.00643255        0.00109173        0.00429103        0.00061776
     159         -0.485447        1.000000        0.00296180        0.00284798        0.00118134        0.00086108
     160         -0.481257        1.000000        0.00620519        0.00398210        0.00127149        0.00075327
     161         -0.473310        1.000000        0.00078450        0.00007889        0.00021812        0.00047461
     162         -0.471351        1.000000        0.00339042        0.00033369        0.00028004        0.00245013
     163         -0.466668        1.000000        0.00042348        0.00001896        0.00011719        0.00022288
     164         -0.466090        1.000000        0.00119053        0.00003443        0.00143018        0.00026104
     165         -0.465793        1.000000        0.00135023        0.00049230        0.00000693        0.00005542
     166         -0.465783        1.000000        0.00002369        0.00002545        0.00000135        0.00000352
     167         -0.463910        1.000000        0.00467957        0.00263834        0.00003301        0.00000216
     168         -0.459476        1.000000        0.00039077        0.00005978        0.00000945        0.00001104
     169         -0.457994        1.000000        0.00201676        0.00036775        0.00000438        0.00065327
     170         -0.457541        1.000000        0.00468048        0.00039147        0.00007489        0.00030341
     171         -0.456682        1.000000        0.00088563        0.00059487        0.00000978        0.00133858
     172         -0.454585        1.000000        0.00051593        0.00035114        0.00005255        0.00000067
     173         -0.454036        1.000000        0.00036908        0.00006503        0.00000204        0.00000377
     174         -0.452856        1.000000        0.00001999        0.00001337        0.00000175        0.00000018
     175         -0.451611        1.000000        0.00104416        0.00002048        0.00008587        0.00015609
     176         -0.451339        1.000000        0.00022955        0.00004715        0.00001270        0.00000484
     177         -0.448169        1.000000        0.00125257        0.00060354        0.00000484        0.00002109
     178         -0.447180        1.000000        0.00004193        0.00000137        0.00000377        0.00001754
     179         -0.446386        1.000000        0.00349792        0.00001018        0.00004173        0.00097313
     180         -0.446202        1.000000        0.00178346        0.00009818        0.00004106        0.00022926
     181         -0.445509        1.000000        0.00057956        0.00002551        0.00000454        0.00009298
     182         -0.445293        1.000000        0.00015792        0.00013756        0.00000148        0.00001799
     183         -0.441084        1.000000        0.00246091        0.00003868        0.00028067        0.00003624
     184         -0.440987        1.000000        0.00011242        0.00000768        0.00000900        0.00000183
     185         -0.440880        1.000000        0.00008341        0.00001062        0.00000103        0.00001831
     186         -0.440703        1.000000        0.00187863        0.00007731        0.00006086        0.00054159
     187         -0.440337        1.000000        0.00384678        0.00000804        0.00000599        0.00097885
     188         -0.440109        1.000000        0.00001014        0.00010757        0.00000060        0.00001173
     189         -0.439991        1.000000        0.00834613        0.00007502        0.00073306        0.00002107
     190         -0.439525        1.000000        0.00176165        0.00003471        0.00006450        0.00050073
     191         -0.438657        1.000000        0.00116558        0.00002467        0.00001195        0.00030349
     192         -0.438392        1.000000        0.00026094        0.00002048        0.00000538        0.00002799
     193         -0.438370        1.000000        0.00147740        0.00003702        0.00002914        0.00028685
     194         -0.438254        1.000000        0.00000599        0.00000140        0.00000029        0.00000032
     195         -0.437955        1.000000        0.00405083        0.00000853        0.00002127        0.00045470
     196         -0.436964        1.000000        0.00020908        0.00021999        0.00002386        0.00000931
     197         -0.435867        1.000000        0.00038876        0.00000436        0.00000819        0.00004368
     198         -0.435543        1.000000        0.00323739        0.00002419        0.00004379        0.00037056
     199         -0.433610        1.000000        0.00014712        0.00000290        0.00001717        0.00001831
     200         -0.433001        1.000000        0.00005711        0.00000101        0.00000654        0.00000116
     201         -0.432488        1.000000        0.00075257        0.00000179        0.00002187        0.00000443
     202         -0.432207        1.000000        0.00151284        0.00000390        0.00011541        0.00000387
     203         -0.432038        1.000000        0.00405082        0.00001643        0.00004989        0.00017102
     204         -0.431892        1.000000        0.00098392        0.00000788        0.00009477        0.00003887
     205         -0.430295        1.000000        0.00097567        0.00025994        0.00000254        0.00000644
     206         -0.429598        1.000000        0.00015423        0.00001289        0.00000693        0.00000065
     207         -0.429354        1.000000        0.00043818        0.00009595        0.00000141        0.00001293
     208         -0.429179        1.000000        0.00383555        0.00001642        0.00001408        0.00019360
     209         -0.428137        1.000000        0.00386100        0.00011778        0.00001053        0.00018286
     210         -0.426914        1.000000        0.00010552        0.00000453        0.00000596        0.00002913
     211         -0.426449        1.000000        0.00003583        0.00000845        0.00000462        0.00001656
     212         -0.426424        1.000000        0.00013774        0.00001734        0.00005364        0.00001677
     213         -0.426226        1.000000        0.00061169        0.00000105        0.00002880        0.00000598
     214         -0.424704        1.000000        0.00355891        0.00000615        0.00012582        0.00001807
     215         -0.424668        1.000000        0.00330268        0.00000531        0.00011449        0.00002108
     216         -0.424597        1.000000        0.00244624        0.00000269        0.00008595        0.00000685
     217         -0.424102        1.000000        0.00059878        0.00005512        0.00000213        0.00006158
     218         -0.422672        1.000000        0.00061965        0.00000250        0.00002410        0.00000681
     219         -0.422009        1.000000        0.00139235        0.00001106        0.00007418        0.00001538
     220         -0.419804        1.000000        0.00113919        0.00000193        0.00000354        0.00012750
     221         -0.419592        1.000000        0.00061486        0.00000698        0.00003367        0.00001276
     222         -0.418611        1.000000        0.00126486        0.00000367        0.00003725        0.00000893
     223         -0.418375        1.000000        0.00161153        0.00001161        0.00003880        0.00000789
     224         -0.418096        1.000000        0.00032864        0.00000851        0.00005718        0.00001038
     225         -0.417024        1.000000        0.00054618        0.00000707        0.00000979        0.00000208
     226         -0.416724        1.000000        0.00224974        0.00009093        0.00002866        0.00007443
     227         -0.416494        1.000000        0.00086464        0.00000215        0.00000181        0.00000193
     228         -0.416242        1.000000        0.00037736        0.00000267        0.00000603        0.00003021
     229         -0.415986        1.000000        0.00102215        0.00001397        0.00000880        0.00007978
     230         -0.415600        1.000000        0.00313102        0.00004156        0.00001992        0.00001339
     231         -0.414999        1.000000        0.00150973        0.00000407        0.00000644        0.00000793
     232         -0.414501        1.000000        0.00012379        0.00002621        0.00000049        0.00005682
     233         -0.413934        1.000000        0.00031167        0.00001580        0.00000238        0.00001065
     234         -0.413718        1.000000        0.00164104        0.00000468        0.00000961        0.00000454
     235         -0.413679        1.000000        0.00144996        0.00000891        0.00000340        0.00003848
     236         -0.412955        1.000000        0.02502590        0.00000944        0.00001700        0.00008603
     237         -0.412571        1.000000        0.00125405        0.00000174        0.00000467        0.00005400
     238         -0.412400        1.000000        0.00264569        0.00000218        0.00000109        0.00013389
     239         -0.412272        1.000000        0.00036808        0.00000091        0.00000850        0.00000741
     240         -0.411530        1.000000        0.00038706        0.00000086        0.00000424        0.00000524
     241         -0.410312        1.000000        0.01403681        0.00006103        0.00004261        0.00001993
     242         -0.409676        1.000000        0.00004522        0.00000032        0.00000028        0.00000113
     243         -0.409579        1.000000        0.01276333        0.00001150        0.00003291        0.00000397
     244         -0.408492        1.000000        0.01000045        0.00000296        0.00002624        0.00003890
     245         -0.408193        1.000000        0.00328071        0.00000887        0.00004692        0.00001984
     246         -0.407442        1.000000        0.02634040        0.00007362        0.00009843        0.00006083
     247         -0.404126        1.000000        0.00106041        0.00000406        0.00000762        0.00000199
     248         -0.403927        1.000000        0.02645861        0.00002835        0.00013407        0.00002501
     249         -0.403650        1.000000        0.17542295        0.00010282        0.00038315        0.00014194
     250         -0.403272        1.000000        0.46477328        0.00034642        0.00093933        0.00050464
     251         -0.403068        1.000000        0.03697066        0.00003926        0.00009973        0.00006698
     252         -0.401724        1.000000        0.00104937        0.00001300        0.00000515        0.00000099
     253         -0.401110        1.000000        0.00034531        0.00000310        0.00000413        0.00000432
     254         -0.400991        1.000000        0.01069605        0.00001557        0.00002337        0.00002818
     255         -0.399087        1.000000        0.17426636        0.00012993        0.00004496        0.00023125
     256         -0.398472        1.000000        0.00213957        0.00002713        0.00000318        0.00000185
     257         -0.397630        1.000000        0.36748920        0.00017130        0.00015723        0.00024664
     258         -0.397100        1.000000        0.35127284        0.00014348        0.00026370        0.00024099
     259         -0.396170        1.000000        0.02462886        0.00001283        0.00001918        0.00001947