# Projected DOS for atomic kind N at iteration step i = 0, E(Fermi) =    -0.112045 a.u.
#     MO Eigenvalue [a.u.]      Occupation                 s                py                pz                px
       1         -0.905634        1.000000        0.00000018        0.00000001        0.00000000        0.00000000
       2         -0.901779        1.000000        0.00000064        0.00000003        0.00000000        0.00000005
       3         -0.900648        1.000000        0.00000004        0.00000001        0.00000000        0.00000000
       4         -0.897187        1.000000        0.00000617        0.00000032        0.00000000        0.00000002
       5         -0.895660        1.000000        0.00000010        0.00000000        0.00000000        0.00000000
       6         -0.894405        1.000000        0.00000018        0.00000001        0.00000001        0.00000000
       7         -0.892843        1.000000        0.00000224        0.00000000        0.00000046        0.00000029
       8         -0.891926        1.000000        0.00000014        0.00000000        0.00000000        0.00000000
       9         -0.891860        1.000000        0.00000000        0.00000000        0.00000000        0.00000000
      10         -0.889828        1.000000        0.00000024        0.00000000        0.00000000        0.00000000
      11         -0.886852        1.000000        0.00000022        0.00000000        0.00000000        0.00000000
      12         -0.886136        1.000000        0.00000004        0.00000000        0.00000000        0.00000000
      13         -0.884241        1.000000        0.61172585        0.00005509        0.00001082        0.00012382
      14         -0.884115        1.000000        0.00997540        0.00026388        0.00000026        0.00000762
      15         -0.883913        1.000000        0.00000002        0.00000000        0.00000000        0.00000000
      16         -0.879997        1.000000        0.00000800        0.00000036        0.00000000        0.00000005
      17         -0.878691        1.000000        0.07833304        0.00003233        0.00000426        0.00001693
      18         -0.878425        1.000000        0.53419700        0.00024259        0.00004493        0.00011006
      19         -0.878378        1.000000        0.00075133        0.00000121        0.00000011        0.00001315
      20         -0.877788        1.000000        0.00000171        0.00000000        0.00000000        0.00000001
      21         -0.876964        1.000000        0.00003120        0.00000001        0.00000000        0.00000019
      22         -0.876504        1.000000        0.00001052        0.00000001        0.00000049        0.00000013
      23         -0.873767        1.000000        0.00000038        0.00000000        0.00000000        0.00000000
      24         -0.872581        1.000000        0.00001950        0.00000058        0.00000119        0.00000008
      25         -0.870259        1.000000        0.00000915        0.00000001        0.00000003        0.00000000
      26         -0.868999        1.000000        0.00453324        0.00000280        0.00000200        0.00004126
      27         -0.868330        1.000000        0.00000039        0.00000000        0.00000000        0.00000002
      28         -0.867262        1.000000        0.00037294        0.00000475        0.00001799        0.00001670
      29         -0.867194        1.000000        0.00000942        0.00000035        0.00000037        0.00000012
      30         -0.866877        1.000000        0.61014776        0.00017268        0.00002993        0.00000238
      31         -0.865903        1.000000        0.00000014        0.00000001        0.00000000        0.00000000
      32         -0.865819        1.000000        0.00031682        0.00001629        0.00000062        0.00000619
      33         -0.862690        1.000000        0.00059923        0.00004819        0.00000022        0.00000882
      34         -0.861419        1.000000        0.00714351        0.00001153        0.00000232        0.00000001
      35         -0.861106        1.000000        0.00019381        0.00000140        0.00000005        0.00000035
      36         -0.860871        1.000000        0.04866670        0.00008496        0.00000821        0.00000154
      37         -0.860104        1.000000        0.00000080        0.00000000        0.00000001        0.00000005
      38         -0.859939        1.000000        0.00000006        0.00000000        0.00000000        0.00000000
      39         -0.859143        1.000000        0.00259190        0.00000067        0.00000152        0.00000469
      40         -0.858344        1.000000        0.05487118        0.00005435        0.00000136        0.00000219
      41         -0.857062        1.000000        0.00002139        0.00000005        0.00000065        0.00000027
      42         -0.856680        1.000000        0.00000116        0.00000000        0.00000001        0.00000009
      43         -0.855274        1.000000        0.00060765        0.00000021        0.00000984        0.00000048
      44         -0.854411        1.000000        0.00000139        0.00000000        0.00000001        0.00000012
      45         -0.852889        1.000000        0.00010560        0.00000195        0.00000679        0.00000298
      46         -0.852037        1.000000        0.00055586        0.00000012        0.00000180        0.00000014
      47         -0.851361        1.000000        0.38719887        0.00005502        0.00012048        0.00000049
      48         -0.850083        1.000000        0.00154567        0.00000032        0.00000098        0.00000050
      49         -0.850055        1.000000        0.00017169        0.00000003        0.00000006        0.00000001
      50         -0.848510        1.000000        0.00000039        0.00000000        0.00000001        0.00000007
      51         -0.848294        1.000000        0.00014191        0.00000008        0.00000203        0.00000085
      52         -0.847951        1.000000        0.00005910        0.00000015        0.00000023        0.00000021
      53         -0.847473        1.000000        0.06128769        0.00001588        0.00002867        0.00003405
      54         -0.847388        1.000000        0.00401603        0.00000117        0.00001222        0.00000501
      55         -0.846091        1.000000        0.00000142        0.00000000        0.00000002        0.00000020
      56         -0.845040        1.000000        0.00004052        0.00000009        0.00000006        0.00000454
      57         -0.844793        1.000000        0.00026766        0.00000133        0.00000085        0.00000018
      58         -0.843605        1.000000        0.00000025        0.00000002        0.00000000        0.00000001
      59         -0.842133        1.000000        0.01574602        0.00005021        0.00000054        0.00001014
      60         -0.841837        1.000000        0.35834749        0.00115517        0.00001337        0.00022428
      61         -0.841386        1.000000        0.00000018        0.00000000        0.00000000        0.00000001
      62         -0.841273        1.000000        0.00000092        0.00000002        0.00000000        0.00000000
      63         -0.840423        1.000000        0.00000122        0.00000000        0.00000005        0.00000029
      64         -0.838266        1.000000        0.01239915        0.00001419        0.00009125        0.00011042
      65         -0.837935        1.000000        0.01307209        0.00000370        0.00008205        0.00002562
      66         -0.837411        1.000000        0.00001451        0.00000001        0.00000009        0.00000003
      67         -0.837213        1.000000        0.00085270        0.00000031        0.00000491        0.00000146
      68         -0.836317        1.000000        0.00000000        0.00000000        0.00000000        0.00000000
      69         -0.835854        1.000000        0.00072797        0.00017853        0.00004301        0.00000005
      70         -0.834589        1.000000        0.00483840        0.00000313        0.00000805        0.00004450
      71         -0.834577        1.000000        0.00785493        0.00000426        0.00001473        0.00007207
      72         -0.834459        1.000000        0.00022830        0.00000011        0.00000052        0.00000214
      73         -0.833825        1.000000        0.01320352        0.00001960        0.00004688        0.00000843
      74         -0.833677        1.000000        0.00021597        0.00000418        0.00000177        0.00000074
      75         -0.833268        1.000000        0.00000061        0.00000000        0.00000005        0.00000023
      76         -0.830119        1.000000        0.00026285        0.00000031        0.00000049        0.00000185
      77         -0.829586        1.000000        0.10141154        0.00151606        0.00000003        0.00020930
      78         -0.828439        1.000000        0.12576809        0.00004808        0.00015029        0.00201681
      79         -0.828282        1.000000        0.00012508        0.00000153        0.00000059        0.00000113
      80         -0.827001        1.000000        0.00000001        0.00000000        0.00000000        0.00000000
      81         -0.826592        1.000000        0.00240056        0.00000601        0.00000174        0.00000413
      82         -0.826215        1.000000        0.00000058        0.00000000        0.00000000        0.00000000
      83         -0.825129        1.000000        0.00023113        0.00000335        0.00000101        0.00000082
      84         -0.824204        1.000000        0.00000004        0.00000001        0.00000000        0.00000000
      85         -0.823379        1.000000        0.00000015        0.00000000        0.00000001        0.00000006
      86         -0.823283        1.000000        0.00010339        0.00000178        0.00000132        0.00000002
      87         -0.822549        1.000000        0.06876785        0.00035943        0.00000301        0.00012072
      88         -0.822163        1.000000        0.00999936        0.00002347        0.00001223        0.00019162
      89         -0.820437        1.000000        0.00006947        0.00000005        0.00000011        0.00000206
      90         -0.817923        1.000000        0.06604909        0.00000438        0.00001247        0.00000042
      91         -0.815954        1.000000        0.00388156        0.00048784        0.00024610        0.00003605
      92         -0.814951        1.000000        0.16591788        0.00000872        0.00012712        0.00002427
      93         -0.814679        1.000000        0.00000803        0.00000000        0.00000001        0.00000026
      94         -0.814635        1.000000        0.00001297        0.00000039        0.00000005        0.00000057
      95         -0.814396        1.000000        0.00108149        0.00000008        0.00000097        0.00000021
      96         -0.813980        1.000000        0.00000005        0.00000001        0.00000000        0.00000000
      97         -0.813787        1.000000        0.00000006        0.00000000        0.00000000        0.00000001
      98         -0.812586        1.000000        0.00000016        0.00000000        0.00000000        0.00000000
      99         -0.810886        1.000000        0.00054421        0.00000004        0.00000138        0.00000254
     100         -0.808123        1.000000        0.21707128        0.00008261        0.00071632        0.00021800
     101         -0.807741        1.000000        0.00003087        0.00000001        0.00000124        0.00001062
     102         -0.804778        1.000000        0.00017071        0.00000481        0.00000016        0.00000279
     103         -0.803119        1.000000        0.00011181        0.00000705        0.00000437        0.00000003
     104         -0.801398        1.000000        0.00000124        0.00000033        0.00000031        0.00000040
     105         -0.799710        1.000000        0.00000005        0.00000000        0.00000000        0.00000000
     106         -0.798795        1.000000        0.00000000        0.00000000        0.00000000        0.00000000
     107         -0.790998        1.000000        0.00000002        0.00000000        0.00000000        0.00000000
     108         -0.788452        1.000000        0.50561559        0.00106935        0.00025431        0.00120897
     109         -0.787040        1.000000        0.11628406        0.00033303        0.00291956        0.00095091
     110         -0.778984        1.000000        0.00077127        0.00000702        0.00002519        0.00000150
     111         -0.773284        1.000000        0.00000396        0.00000202        0.00000000        0.00000091
     112         -0.629236        1.000000        0.01557804        0.00238150        0.03020256        0.16447434
     113         -0.623175        1.000000        0.01540826        0.00007224        0.05661131        0.13951685
     114         -0.614666        1.000000        0.01889014        0.02571190        0.00082030        0.16048282
     115         -0.613694        1.000000        0.02994017        0.00021186        0.07254825        0.08470989
     116         -0.593178        1.000000        0.01869620        0.07091174        0.06706084        0.04790977
     117         -0.578896        1.000000        0.00030400        0.00227902        0.00058450        0.00003334
     118         -0.575972        1.000000        0.00000144        0.00005221        0.00008619        0.00006068
     119         -0.575386        1.000000        0.02856489        0.01679663        0.05533576        0.08999920
     120         -0.572507        1.000000        0.00039227        0.00579588        0.00039926        0.00007984
     121         -0.567990        1.000000        0.03024362        0.00768625        0.00800051        0.13979210
     122         -0.566871        1.000000        0.00008976        0.00172489        0.00022671        0.00001339
     123         -0.552351        1.000000        0.00001628        0.00039370        0.00010971        0.00006680
     124         -0.537891        1.000000        0.00048310        0.00341328        0.00393098        0.00150779
     125         -0.535691        1.000000        0.00011093        0.00288495        0.00327520        0.00090070
     126         -0.530706        1.000000        0.00033540        0.09200901        0.01328713        0.00443773
     127         -0.530124        1.000000        0.00008416        0.00082929        0.00101913        0.00008336
     128         -0.528379        1.000000        0.00017597        0.02507223        0.00277359        0.00061363
     129         -0.525797        1.000000        0.00002752        0.01770075        0.00614755        0.00147345
     130         -0.524491        1.000000        0.00043028        0.00883811        0.03624447        0.00277644
     131         -0.523123        1.000000        0.00006645        0.00524791        0.02853803        0.00189854
     132         -0.522180        1.000000        0.00014987        0.00747210        0.03176641        0.00108655
     133         -0.520735        1.000000        0.00006155        0.00070684        0.00274973        0.00091302
     134         -0.520496        1.000000        0.00002080        0.00129622        0.00143347        0.00025406
     135         -0.518857        1.000000        0.00021968        0.02579925        0.01332808        0.00685352
     136         -0.516561        1.000000        0.00112370        0.00826002        0.03054282        0.00709969
     137         -0.516028        1.000000        0.00022116        0.02152037        0.02078092        0.00654788
     138         -0.513751        1.000000        0.00012334        0.13926754        0.00674579        0.00291009
     139         -0.512732        1.000000        0.00019678        0.01417588        0.06094741        0.00632777
     140         -0.511603        1.000000        0.00000843        0.03182360        0.00129615        0.00025305
     141         -0.511523        1.000000        0.00025655        0.01224380        0.02953910        0.00279967
     142         -0.510272        1.000000        0.00023418        0.00338077        0.00193629        0.00121352
     143         -0.510080        1.000000        0.00005490        0.00467676        0.00408462        0.00085414
     144         -0.507287        1.000000        0.00048662        0.01006989        0.02308779        0.00450410
     145         -0.507032        1.000000        0.00002823        0.00293647        0.00153194        0.00068296
     146         -0.505872        1.000000        0.00082973        0.01272608        0.00408437        0.00578139
     147         -0.505587        1.000000        0.00000997        0.00080488        0.00090855        0.00036174
     148         -0.504209        1.000000        0.00005851        0.00926072        0.01854256        0.00616241
     149         -0.503060        1.000000        0.00014722        0.05921447        0.01502158        0.00626377
     150         -0.502546        1.000000        0.00037539        0.15823265        0.18528721        0.02050853
     151         -0.502196        1.000000        0.00019445        0.01831535        0.01902476        0.00329332
     152         -0.501387        1.000000        0.00041112        0.10246374        0.21354107        0.08453225
     153         -0.500827        1.000000        0.00058873        0.01260105        0.00694936        0.00292162
     154         -0.499347        1.000000        0.00011683        0.00446317        0.02980617        0.01864981
     155         -0.498440        1.000000        0.00006297        0.00443769        0.01197101        0.00564590
     156         -0.493099        1.000000        0.00040181        0.21178049        0.16426137        0.02803179
     157         -0.492124        1.000000        0.00008733        0.01669541        0.00486684        0.00126591
     158         -0.486621        1.000000        0.00080018        0.30512804        0.11777106        0.04310969
     159         -0.485447        1.000000        0.00055397        0.36734288        0.08902194        0.05263632
     160         -0.481257        1.000000        0.00000750        0.03958999        0.41834573        0.01868407
     161         -0.473310        1.000000        0.00032999        0.18991309        0.35221265        0.01233458
     162         -0.471351        1.000000        0.00030799        0.21070154        0.16296872        0.06977053
     163         -0.466668        1.000000        0.00033999        0.12839115        0.02948615        0.35450987
     164         -0.466090        1.000000        0.00004958        0.22598602        0.11013887        0.15146010
     165         -0.465793        1.000000        0.00000111        0.00007910        0.00001815        0.00001184
     166         -0.465783        1.000000        0.00001229        0.00247793        0.00169485        0.01171099
     167         -0.463910        1.000000        0.00000345        0.00022384        0.00023573        0.00017870
     168         -0.459476        1.000000        0.00000027        0.00121118        0.00402489        0.00387325
     169         -0.457994        1.000000        0.00000018        0.00005285        0.00008572        0.00006740
     170         -0.457541        1.000000        0.00000065        0.00025013        0.00010259        0.00001006
     171         -0.456682        1.000000        0.00000167        0.00019859        0.00038882        0.00006766
     172         -0.454585        1.000000        0.00000018        0.00009389        0.00009340        0.00009378
     173         -0.454036        1.000000        0.00000052        0.00014304        0.00006804        0.00000026
     174         -0.452856        1.000000        0.00000095        0.00009117        0.00001390        0.00002001
     175         -0.451611        1.000000        0.00001098        0.00030773        0.00025868        0.00096074
     176         -0.451339        1.000000        0.00000129        0.00000150        0.00001317        0.00001727
     177         -0.448169        1.000000        0.00000066        0.00011593        0.00001666        0.00000963
     178         -0.447180        1.000000        0.00000002        0.00000094        0.00000236        0.00000183
     179         -0.446386        1.000000        0.00000950        0.00202025        0.00292874        0.00034670
     180         -0.446202        1.000000        0.00000023        0.00000740        0.00000056        0.00000117
     181         -0.445509        1.000000        0.00000011        0.00001951        0.00004950        0.00000965
     182         -0.445293        1.000000        0.00000010        0.00001088        0.00000140        0.00000018
     183         -0.441084        1.000000        0.00002075        0.41746158        0.05729832        0.01267677
     184         -0.440987        1.000000        0.00000261        0.02255986        0.00230019        0.00117246
     185         -0.440880        1.000000        0.00000073        0.00174549        0.00047991        0.00005577
     186         -0.440703        1.000000        0.00002561        0.06909898        0.05895833        0.00572783
     187         -0.440337        1.000000        0.00000006        0.00165898        0.00025773        0.00004269
     188         -0.440109        1.000000        0.00000024        0.00000634        0.00001938        0.00000776
     189         -0.439991        1.000000        0.00004685        0.00287903        0.00424224        0.00035950
     190         -0.439525        1.000000        0.00006643        0.09656835        0.18449524        0.01717497
     191         -0.438657        1.000000        0.00000847        0.00140919        0.00015549        0.00025352
     192         -0.438392        1.000000        0.00002087        0.00016658        0.00006064        0.00104691
     193         -0.438370        1.000000        0.00002125        0.00018413        0.00171600        0.00021997
     194         -0.438254        1.000000        0.00000013        0.00004344        0.00002794        0.00000566
     195         -0.437955        1.000000        0.00001341        0.00083353        0.00133409        0.00021326
     196         -0.436964        1.000000        0.00000012        0.00000809        0.00000318        0.00001148
     197         -0.435867        1.000000        0.00001270        0.00385458        0.00215461        0.00107530
     198         -0.435543        1.000000        0.00002885        0.01393640        0.00819217        0.00181630
     199         -0.433610        1.000000        0.00000012        0.00000028        0.00001700        0.00002527
     200         -0.433001        1.000000        0.00000038        0.00001042        0.00013426        0.00000533
     201         -0.432488        1.000000        0.00081963        0.00366181        0.08264804        0.12775978
     202         -0.432207        1.000000        0.00000125        0.00009147        0.00011423        0.00001933
     203         -0.432038        1.000000        0.00010253        0.00468735        0.01420594        0.01038758
     204         -0.431892        1.000000        0.00068664        0.00175553        0.08632967        0.11995524
     205         -0.430295        1.000000        0.00008711        0.00634918        0.00006891        0.00011287
     206         -0.429598        1.000000        0.00002005        0.00000400        0.00221189        0.00285678
     207         -0.429354        1.000000        0.00003758        0.00278577        0.00016081        0.00000851
     208         -0.429179        1.000000        0.00000164        0.00004608        0.00002482        0.00002004
     209         -0.428137        1.000000        0.00000076        0.00007598        0.00000469        0.00000703
     210         -0.426914        1.000000        0.00016713        0.01044932        0.11921858        0.00330245
     211         -0.426449        1.000000        0.00000169        0.00001598        0.00026026        0.00001585
     212         -0.426424        1.000000        0.00004136        0.00036565        0.00691246        0.00040860
     213         -0.426226        1.000000        0.00001083        0.00010259        0.00009412        0.00002986
     214         -0.424704        1.000000        0.00000501        0.00006802        0.00083438        0.00063881
     215         -0.424668        1.000000        0.00001349        0.00004027        0.00085355        0.00116101
     216         -0.424597        1.000000        0.00000177        0.00031648        0.00020767        0.00007016
     217         -0.424102        1.000000        0.00000144        0.00000403        0.00001405        0.00005807
     218         -0.422672        1.000000        0.00003020        0.00003685        0.00104729        0.00030282
     219         -0.422009        1.000000        0.00000059        0.00000162        0.00000610        0.00001503
     220         -0.419804        1.000000        0.00000748        0.00187907        0.00153891        0.00027413
     221         -0.419592        1.000000        0.00007720        0.00001434        0.00249082        0.00144217
     222         -0.418611        1.000000        0.00002939        0.00004058        0.00079315        0.00025176
     223         -0.418375        1.000000        0.00000252        0.00000158        0.00000314        0.00007894
     224         -0.418096        1.000000        0.00000063        0.00000011        0.00001365        0.00002144
     225         -0.417024        1.000000        0.00004516        0.00001932        0.00196988        0.00092889
     226         -0.416724        1.000000        0.00000298        0.00000268        0.00001728        0.00016150
     227         -0.416494        1.000000        0.00000931        0.00896154        0.00112926        0.00000978
     228         -0.416242        1.000000        0.00002697        0.05557264        0.02500145        0.00011736
     229         -0.415986        1.000000        0.00001315        0.00080870        0.00003689        0.00000986
     230         -0.415600        1.000000        0.00000146        0.00296518        0.00052327        0.00002957
     231         -0.414999        1.000000        0.00003795        0.14916856        0.05681399        0.00012884
     232         -0.414501        1.000000        0.00002862        0.00653198        0.00186269        0.00003478
     233         -0.413934        1.000000        0.00003137        0.00028932        0.00017698        0.00052842
     234         -0.413718        1.000000        0.00005752        0.00262250        0.00515215        0.00412740
     235         -0.413679        1.000000        0.00000809        0.04955838        0.00738086        0.00032548
     236         -0.412955        1.000000        0.00003198        0.00005268        0.00020606        0.00063114
     237         -0.412571        1.000000        0.00000852        0.00002259        0.00105126        0.00029935
     238         -0.412400        1.000000        0.00011493        0.00000343        0.00009524        0.00455297
     239         -0.412272        1.000000        0.00000032        0.00000102        0.00000984        0.00000721
     240         -0.411530        1.000000        0.00001342        0.00000126        0.00006860        0.00052750
     241         -0.410312        1.000000        0.00909969        0.00036177        0.04119069        0.36728678
     242         -0.409676        1.000000        0.00000886        0.00000106        0.00005628        0.00035333
     243         -0.409579        1.000000        0.00000720        0.00117670        0.00409534        0.00019074
     244         -0.408492        1.000000        0.00003875        0.00383429        0.00892131        0.00094847
     245         -0.408193        1.000000        0.00022578        0.00016783        0.00437140        0.00627361
     246         -0.407442        1.000000        0.00015594        0.00000629        0.00054965        0.00803874
     247         -0.404126        1.000000        0.00008520        0.00004925        0.00002957        0.00175711
     248         -0.403927        1.000000        0.00142673        0.00034872        0.01563732        0.04395639
     249         -0.403650        1.000000        0.00627662        0.00044973        0.06855427        0.21243239
     250         -0.403272        1.000000        0.00160827        0.00077059        0.01927016        0.05208630
     251         -0.403068        1.000000        0.00009776        0.00022993        0.00220724        0.00331297
     252         -0.401724        1.000000        0.00000183        0.00000708        0.00002076        0.00009250
     253         -0.401110        1.000000        0.00002107        0.00000056        0.00001793        0.00037036
     254         -0.400991        1.000000        0.00001512        0.00000519        0.00008101        0.00076057
     255         -0.399087        1.000000        0.00001178        0.00012246        0.00037597        0.00115838
     256         -0.398472        1.000000        0.00000092        0.00000345        0.00001129        0.00004050
     257         -0.397630        1.000000        0.00001329        0.00024792        0.00019566        0.00087272
     258         -0.397100        1.000000        0.00001778        0.00031424        0.00021596        0.00063550
     259         -0.396170        1.000000        0.00001452        0.00057908        0.00164433        0.00060826