# Projected DOS for atomic kind N at iteration step i = 0, E(Fermi) =    -0.112050 a.u.
#     MO Eigenvalue [a.u.]      Occupation                 s                py                pz                px
       1         -0.905634        1.000000        0.00000018        0.00000001        0.00000000        0.00000000
       2         -0.901779        1.000000        0.00000064        0.00000003        0.00000000        0.00000005
       3         -0.900648        1.000000        0.00000004        0.00000001        0.00000000        0.00000000
       4         -0.897188        1.000000        0.00000618        0.00000032        0.00000000        0.00000002
       5         -0.895660        1.000000        0.00000010        0.00000000        0.00000000        0.00000000
       6         -0.894405        1.000000        0.00000018        0.00000001        0.00000001        0.00000000
       7         -0.892851        1.000000        0.00000224        0.00000000        0.00000046        0.00000029
       8         -0.891926        1.000000        0.00000014        0.00000000        0.00000000        0.00000000
       9         -0.891861        1.000000        0.00000000        0.00000000        0.00000000        0.00000000
      10         -0.889827        1.000000        0.00000024        0.00000000        0.00000000        0.00000000
      11         -0.886852        1.000000        0.00000022        0.00000000        0.00000000        0.00000000
      12         -0.886136        1.000000        0.00000004        0.00000000        0.00000000        0.00000000
      13         -0.884241        1.000000        0.61172585        0.00005508        0.00001082        0.00012382
      14         -0.884121        1.000000        0.00996968        0.00026381        0.00000025        0.00000762
      15         -0.883913        1.000000        0.00000002        0.00000000        0.00000000        0.00000000
      16         -0.879998        1.000000        0.00000799        0.00000036        0.00000000        0.00000005
      17         -0.878692        1.000000        0.07774815        0.00003208        0.00000422        0.00001681
      18         -0.878425        1.000000        0.53478415        0.00024285        0.00004497        0.00011018
      19         -0.878377        1.000000        0.00074856        0.00000121        0.00000011        0.00001314
      20         -0.877788        1.000000        0.00000171        0.00000000        0.00000000        0.00000001
      21         -0.876965        1.000000        0.00003121        0.00000001        0.00000000        0.00000019
      22         -0.876504        1.000000        0.00001057        0.00000001        0.00000049        0.00000013
      23         -0.873766        1.000000        0.00000038        0.00000000        0.00000000        0.00000000
      24         -0.872612        1.000000        0.00001959        0.00000058        0.00000119        0.00000008
      25         -0.870259        1.000000        0.00000914        0.00000001        0.00000003        0.00000000
      26         -0.868998        1.000000        0.00453081        0.00000280        0.00000200        0.00004124
      27         -0.868330        1.000000        0.00000039        0.00000000        0.00000000        0.00000002
      28         -0.867263        1.000000        0.00037309        0.00000475        0.00001799        0.00001670
      29         -0.867194        1.000000        0.00000946        0.00000035        0.00000037        0.00000012
      30         -0.866877        1.000000        0.61014773        0.00017269        0.00002994        0.00000238
      31         -0.865902        1.000000        0.00000014        0.00000001        0.00000000        0.00000000
      32         -0.865820        1.000000        0.00031693        0.00001630        0.00000062        0.00000619
      33         -0.862701        1.000000        0.00058709        0.00004723        0.00000022        0.00000864
      34         -0.861665        1.000000        0.00009093        0.00000217        0.00000008        0.00000073
      35         -0.861419        1.000000        0.00711296        0.00001147        0.00000232        0.00000001
      36         -0.860874        1.000000        0.04864193        0.00008497        0.00000821        0.00000155
      37         -0.860104        1.000000        0.00000080        0.00000000        0.00000001        0.00000005
      38         -0.859939        1.000000        0.00000006        0.00000000        0.00000000        0.00000000
      39         -0.859143        1.000000        0.00258943        0.00000067        0.00000152        0.00000469
      40         -0.858352        1.000000        0.05505941        0.00005464        0.00000137        0.00000218
      41         -0.857062        1.000000        0.00002142        0.00000005        0.00000065        0.00000027
      42         -0.856680        1.000000        0.00000116        0.00000000        0.00000001        0.00000009
      43         -0.855274        1.000000        0.00060749        0.00000021        0.00000984        0.00000048
      44         -0.854412        1.000000        0.00000139        0.00000000        0.00000001        0.00000012
      45         -0.852889        1.000000        0.00010553        0.00000195        0.00000679        0.00000298
      46         -0.852037        1.000000        0.00055574        0.00000012        0.00000180        0.00000014
      47         -0.851359        1.000000        0.38721237        0.00005501        0.00012048        0.00000049
      48         -0.850083        1.000000        0.00155114        0.00000032        0.00000098        0.00000050
      49         -0.850056        1.000000        0.00017127        0.00000003        0.00000006        0.00000001
      50         -0.849096        1.000000        0.00005898        0.00000026        0.00000033        0.00000056
      51         -0.848510        1.000000        0.00000039        0.00000000        0.00000001        0.00000007
      52         -0.848294        1.000000        0.00013966        0.00000008        0.00000200        0.00000088
      53         -0.847473        1.000000        0.06134598        0.00001589        0.00002868        0.00003407
      54         -0.847388        1.000000        0.00401307        0.00000116        0.00001226        0.00000498
      55         -0.846091        1.000000        0.00000142        0.00000000        0.00000002        0.00000020
      56         -0.845040        1.000000        0.00004052        0.00000009        0.00000006        0.00000454
      57         -0.844792        1.000000        0.00026786        0.00000134        0.00000085        0.00000018
      58         -0.843605        1.000000        0.00000025        0.00000002        0.00000000        0.00000001
      59         -0.842133        1.000000        0.01591978        0.00005075        0.00000055        0.00001025
      60         -0.841839        1.000000        0.35808995        0.00115409        0.00001335        0.00022414
      61         -0.841384        1.000000        0.00000018        0.00000000        0.00000000        0.00000001
      62         -0.841273        1.000000        0.00000092        0.00000002        0.00000000        0.00000000
      63         -0.840423        1.000000        0.00000122        0.00000000        0.00000005        0.00000029
      64         -0.838267        1.000000        0.01239944        0.00001421        0.00009122        0.00011041
      65         -0.837943        1.000000        0.01317472        0.00000381        0.00008246        0.00002530
      66         -0.837412        1.000000        0.00001425        0.00000001        0.00000008        0.00000003
      67         -0.837214        1.000000        0.00083906        0.00000032        0.00000482        0.00000139
      68         -0.836317        1.000000        0.00000000        0.00000000        0.00000000        0.00000000
      69         -0.835855        1.000000        0.00072528        0.00017842        0.00004304        0.00000005
      70         -0.834683        1.000000        0.00039433        0.00000067        0.00000077        0.00000319
      71         -0.834588        1.000000        0.00280540        0.00000185        0.00000452        0.00002582
      72         -0.834574        1.000000        0.00975652        0.00000524        0.00001810        0.00008957
      73         -0.833892        1.000000        0.01236603        0.00001920        0.00004404        0.00000711
      74         -0.833677        1.000000        0.00021703        0.00000420        0.00000177        0.00000075
      75         -0.833268        1.000000        0.00000060        0.00000000        0.00000005        0.00000023
      76         -0.831755        1.000000        0.00095709        0.00000039        0.00000271        0.00000447
      77         -0.829591        1.000000        0.10149613        0.00151671        0.00000003        0.00020945
      78         -0.828434        1.000000        0.12569768        0.00004805        0.00015022        0.00201653
      79         -0.828290        1.000000        0.00013065        0.00000154        0.00000058        0.00000141
      80         -0.827001        1.000000        0.00000001        0.00000000        0.00000000        0.00000000
      81         -0.826593        1.000000        0.00242153        0.00000600        0.00000175        0.00000413
      82         -0.826220        1.000000        0.00000059        0.00000000        0.00000000        0.00000000
      83         -0.825129        1.000000        0.00023075        0.00000335        0.00000101        0.00000082
      84         -0.824205        1.000000        0.00000004        0.00000001        0.00000000        0.00000000
      85         -0.823379        1.000000        0.00000015        0.00000000        0.00000001        0.00000006
      86         -0.823290        1.000000        0.00010405        0.00000178        0.00000133        0.00000002
      87         -0.822550        1.000000        0.06878478        0.00035963        0.00000301        0.00012070
      88         -0.822163        1.000000        0.00999423        0.00002337        0.00001225        0.00019196
      89         -0.820444        1.000000        0.00007015        0.00000005        0.00000011        0.00000208
      90         -0.817929        1.000000        0.06646858        0.00000440        0.00001266        0.00000040
      91         -0.815954        1.000000        0.00388393        0.00048778        0.00024609        0.00003605
      92         -0.814961        1.000000        0.16474223        0.00000869        0.00012651        0.00002342
      93         -0.814679        1.000000        0.00000790        0.00000000        0.00000001        0.00000027
      94         -0.814636        1.000000        0.00001297        0.00000039        0.00000005        0.00000057
      95         -0.814396        1.000000        0.00103768        0.00000008        0.00000093        0.00000019
      96         -0.813981        1.000000        0.00000005        0.00000001        0.00000000        0.00000000
      97         -0.813787        1.000000        0.00000006        0.00000000        0.00000000        0.00000001
      98         -0.813773        1.000000        0.00192077        0.00000007        0.00000276        0.00000682
      99         -0.812599        1.000000        0.00000016        0.00000000        0.00000000        0.00000000
     100         -0.808131        1.000000        0.21658306        0.00008237        0.00071641        0.00021833
     101         -0.807741        1.000000        0.00003087        0.00000001        0.00000124        0.00001062
     102         -0.804779        1.000000        0.00017058        0.00000481        0.00000016        0.00000279
     103         -0.803136        1.000000        0.00011187        0.00000704        0.00000437        0.00000003
     104         -0.801399        1.000000        0.00000124        0.00000033        0.00000031        0.00000040
     105         -0.799731        1.000000        0.00000005        0.00000000        0.00000000        0.00000000
     106         -0.798759        1.000000        0.00000000        0.00000000        0.00000000        0.00000000
     107         -0.796935        1.000000        0.00000971        0.00000019        0.00000054        0.00001245
     108         -0.791002        1.000000        0.00000002        0.00000000        0.00000000        0.00000000
     109         -0.788452        1.000000        0.50561710        0.00106934        0.00025431        0.00120896
     110         -0.786993        1.000000        0.11694255        0.00033875        0.00294358        0.00093401
     111         -0.773270        1.000000        0.00000396        0.00000202        0.00000000        0.00000091
     112         -0.629236        1.000000        0.01557801        0.00238151        0.03020260        0.16447442
     113         -0.623175        1.000000        0.01540826        0.00007223        0.05661140        0.13951675
     114         -0.614666        1.000000        0.01889005        0.02571198        0.00082038        0.16048276
     115         -0.613695        1.000000        0.02993879        0.00021182        0.07254887        0.08470971
     116         -0.593180        1.000000        0.01869760        0.07091121        0.06705866        0.04790559
     117         -0.578894        1.000000        0.00030400        0.00227917        0.00058450        0.00003336
     118         -0.575972        1.000000        0.00000144        0.00005221        0.00008619        0.00006068
     119         -0.575409        1.000000        0.02850064        0.01685261        0.05525741        0.09001590
     120         -0.572508        1.000000        0.00039198        0.00579567        0.00039869        0.00007903
     121         -0.567990        1.000000        0.03024358        0.00768622        0.00800048        0.13979181
     122         -0.566872        1.000000        0.00008975        0.00172472        0.00022667        0.00001340
     123         -0.552366        1.000000        0.00001631        0.00039364        0.00010979        0.00006685
     124         -0.537892        1.000000        0.00048327        0.00341148        0.00392885        0.00150806
     125         -0.535692        1.000000        0.00011091        0.00288694        0.00327549        0.00090072
     126         -0.530706        1.000000        0.00033542        0.09198759        0.01328303        0.00443678
     127         -0.530118        1.000000        0.00008436        0.00082968        0.00102170        0.00008378
     128         -0.528386        1.000000        0.00017636        0.02507929        0.00277411        0.00061584
     129         -0.525798        1.000000        0.00002826        0.01774789        0.00613271        0.00147253
     130         -0.524552        1.000000        0.00039977        0.00801694        0.03588881        0.00268550
     131         -0.523217        1.000000        0.00014494        0.00734822        0.03462501        0.00220304
     132         -0.522429        1.000000        0.00022454        0.00597662        0.01624690        0.00051624
     133         -0.520747        1.000000        0.00006070        0.00063274        0.00125480        0.00082391
     134         -0.520522        1.000000        0.00003220        0.00107058        0.00372675        0.00039927
     135         -0.519548        1.000000        0.00041795        0.00271206        0.01796173        0.00211826
     136         -0.518719        1.000000        0.00027715        0.02675232        0.00945069        0.00530091
     137         -0.516356        1.000000        0.00101227        0.00832419        0.02928884        0.00742463
     138         -0.516024        1.000000        0.00023280        0.02106498        0.01840297        0.00592940
     139         -0.513761        1.000000        0.00012201        0.13890564        0.00687607        0.00295251
     140         -0.512593        1.000000        0.00015369        0.01678007        0.07261582        0.00751204
     141         -0.511603        1.000000        0.00000941        0.03072888        0.00162768        0.00031138
     142         -0.511223        1.000000        0.00013834        0.00873491        0.01804749        0.00167555
     143         -0.510081        1.000000        0.00004242        0.00484564        0.00443070        0.00085901
     144         -0.508738        1.000000        0.00075271        0.00936154        0.00628618        0.00323254
     145         -0.507241        1.000000        0.00053382        0.01084755        0.01752365        0.00595229
     146         -0.507011        1.000000        0.00011087        0.00429693        0.00230959        0.00154754
     147         -0.505588        1.000000        0.00000917        0.00085176        0.00095213        0.00036944
     148         -0.504209        1.000000        0.00005806        0.00947181        0.01877612        0.00623168
     149         -0.503270        1.000000        0.00006676        0.05364405        0.01066168        0.00457861
     150         -0.502548        1.000000        0.00037034        0.15657857        0.18328330        0.02031395
     151         -0.502210        1.000000        0.00018631        0.01963605        0.01978065        0.00309557
     152         -0.501466        1.000000        0.00041607        0.10560900        0.20034256        0.07934223
     153         -0.500989        1.000000        0.00054523        0.01580886        0.02486312        0.01059430
     154         -0.499576        1.000000        0.00014830        0.00515221        0.03420265        0.02052908
     155         -0.498498        1.000000        0.00004484        0.00336204        0.00887750        0.00388786
     156         -0.493515        1.000000        0.00011862        0.04607266        0.03023453        0.00557342
     157         -0.492982        1.000000        0.00038117        0.18381250        0.13915810        0.02368292
     158         -0.486626        1.000000        0.00080002        0.30525202        0.11784778        0.04314998
     159         -0.485456        1.000000        0.00055297        0.36760045        0.08931212        0.05267368
     160         -0.481261        1.000000        0.00000750        0.03974346        0.41831616        0.01872247
     161         -0.473309        1.000000        0.00032993        0.18993063        0.35220208        0.01232769
     162         -0.471358        1.000000        0.00030739        0.20998828        0.16353664        0.07018492
     163         -0.466666        1.000000        0.00034016        0.12837527        0.02949969        0.35446980
     164         -0.466140        1.000000        0.00005153        0.22720500        0.11007510        0.15168937
     165         -0.465793        1.000000        0.00000111        0.00007358        0.00001718        0.00000918
     166         -0.465782        1.000000        0.00001233        0.00248392        0.00169736        0.01174076
     167         -0.463911        1.000000        0.00000344        0.00022425        0.00023622        0.00017937
     168         -0.459478        1.000000        0.00000027        0.00122930        0.00399426        0.00383838
     169         -0.457994        1.000000        0.00000018        0.00005131        0.00008449        0.00006604
     170         -0.457565        1.000000        0.00000056        0.00022333        0.00009470        0.00000704
     171         -0.456704        1.000000        0.00000164        0.00020442        0.00039380        0.00007203
     172         -0.454586        1.000000        0.00000017        0.00009422        0.00009351        0.00009417
     173         -0.454035        1.000000        0.00000052        0.00014281        0.00006815        0.00000025
     174         -0.452856        1.000000        0.00000095        0.00009118        0.00001390        0.00002002
     175         -0.451611        1.000000        0.00001098        0.00030765        0.00025860        0.00096076
     176         -0.451340        1.000000        0.00000129        0.00000153        0.00001317        0.00001727
     177         -0.448169        1.000000        0.00000066        0.00011664        0.00001672        0.00000967
     178         -0.447180        1.000000        0.00000002        0.00000094        0.00000236        0.00000183
     179         -0.446386        1.000000        0.00000947        0.00204789        0.00293080        0.00034694
     180         -0.446202        1.000000        0.00000023        0.00000741        0.00000056        0.00000117
     181         -0.445508        1.000000        0.00000011        0.00001952        0.00004951        0.00000965
     182         -0.445293        1.000000        0.00000010        0.00001103        0.00000142        0.00000019
     183         -0.441188        1.000000        0.00001638        0.45535218        0.06000867        0.01298828
     184         -0.440990        1.000000        0.00000109        0.00600159        0.00040903        0.00044510
     185         -0.440881        1.000000        0.00000076        0.00097666        0.00050802        0.00003973
     186         -0.440718        1.000000        0.00002640        0.04983373        0.05907914        0.00534134
     187         -0.440338        1.000000        0.00000003        0.00121358        0.00019998        0.00002907
     188         -0.440109        1.000000        0.00000024        0.00000605        0.00001924        0.00000774
     189         -0.439992        1.000000        0.00004682        0.00290032        0.00428854        0.00036345
     190         -0.439528        1.000000        0.00006672        0.09669770        0.18496252        0.01721198
     191         -0.438659        1.000000        0.00000843        0.00146954        0.00016739        0.00025435
     192         -0.438393        1.000000        0.00002130        0.00016248        0.00006234        0.00105818
     193         -0.438372        1.000000        0.00002074        0.00018079        0.00167062        0.00020461
     194         -0.438254        1.000000        0.00000013        0.00004345        0.00002802        0.00000564
     195         -0.437957        1.000000        0.00001340        0.00083739        0.00134479        0.00021272
     196         -0.436964        1.000000        0.00000012        0.00000806        0.00000318        0.00001148
     197         -0.435929        1.000000        0.00001194        0.00310597        0.00171034        0.00100026
     198         -0.435551        1.000000        0.00002883        0.01453942        0.00866887        0.00182129
     199         -0.433610        1.000000        0.00000013        0.00000025        0.00001764        0.00002643
     200         -0.433002        1.000000        0.00000038        0.00001043        0.00013441        0.00000547
     201         -0.432516        1.000000        0.00076778        0.00350708        0.07688491        0.11927576
     202         -0.432207        1.000000        0.00000141        0.00009491        0.00013635        0.00004071
     203         -0.432053        1.000000        0.00024151        0.00393837        0.03061340        0.03543121
     204         -0.431951        1.000000        0.00061604        0.00303413        0.07469737        0.10444547
     205         -0.430296        1.000000        0.00008726        0.00635442        0.00006945        0.00011348
     206         -0.429598        1.000000        0.00001969        0.00000513        0.00213289        0.00277493
     207         -0.429355        1.000000        0.00003751        0.00277855        0.00016085        0.00000856
     208         -0.429179        1.000000        0.00000163        0.00004579        0.00002479        0.00001999
     209         -0.428137        1.000000        0.00000076        0.00007600        0.00000446        0.00000665
     210         -0.426915        1.000000        0.00016714        0.01044326        0.11924992        0.00330385
     211         -0.426449        1.000000        0.00000150        0.00001394        0.00022429        0.00001417
     212         -0.426422        1.000000        0.00004151        0.00036332        0.00687524        0.00040777
     213         -0.426225        1.000000        0.00001083        0.00010261        0.00009470        0.00002995
     214         -0.424779        1.000000        0.00000088        0.00019249        0.00031322        0.00000445
     215         -0.424699        1.000000        0.00000927        0.00010502        0.00122767        0.00103894
     216         -0.424651        1.000000        0.00001016        0.00010524        0.00035899        0.00081851
     217         -0.424102        1.000000        0.00000144        0.00000375        0.00001410        0.00005818
     218         -0.422671        1.000000        0.00003019        0.00003687        0.00104702        0.00030265
     219         -0.422009        1.000000        0.00000059        0.00000162        0.00000608        0.00001502
     220         -0.419805        1.000000        0.00000749        0.00188034        0.00153889        0.00027380
     221         -0.419591        1.000000        0.00007748        0.00001429        0.00249918        0.00144593
     222         -0.418607        1.000000        0.00002912        0.00004073        0.00078529        0.00024832
     223         -0.418375        1.000000        0.00000252        0.00000158        0.00000313        0.00007894
     224         -0.418095        1.000000        0.00000063        0.00000011        0.00001366        0.00002145
     225         -0.417025        1.000000        0.00004516        0.00001932        0.00196971        0.00092884
     226         -0.416724        1.000000        0.00000298        0.00000276        0.00001731        0.00016150
     227         -0.416494        1.000000        0.00000933        0.00902370        0.00114527        0.00000970
     228         -0.416243        1.000000        0.00002672        0.05535444        0.02494918        0.00011745
     229         -0.415992        1.000000        0.00001325        0.00091048        0.00006160        0.00001018
     230         -0.415601        1.000000        0.00000145        0.00297040        0.00052473        0.00002940
     231         -0.415000        1.000000        0.00003792        0.14885940        0.05670224        0.00012868
     232         -0.414520        1.000000        0.00002832        0.00684719        0.00199288        0.00003455
     233         -0.413969        1.000000        0.00002489        0.00035475        0.00007633        0.00032460
     234         -0.413727        1.000000        0.00006482        0.00188669        0.00516665        0.00437324
     235         -0.413680        1.000000        0.00000767        0.05024688        0.00741841        0.00027483
     236         -0.412955        1.000000        0.00003197        0.00005267        0.00020613        0.00063105
     237         -0.412571        1.000000        0.00000852        0.00002258        0.00105140        0.00029947
     238         -0.412400        1.000000        0.00011490        0.00000344        0.00009513        0.00455159
     239         -0.412272        1.000000        0.00000033        0.00000102        0.00000986        0.00000726
     240         -0.411530        1.000000        0.00001341        0.00000126        0.00006858        0.00052738
     241         -0.410312        1.000000        0.00909970        0.00036179        0.04119039        0.36728676
     242         -0.409676        1.000000        0.00000888        0.00000106        0.00005637        0.00035401
     243         -0.409579        1.000000        0.00000721        0.00117680        0.00409576        0.00019091
     244         -0.408492        1.000000        0.00003878        0.00383383        0.00892045        0.00094931
     245         -0.408193        1.000000        0.00022576        0.00016815        0.00437174        0.00627297
     246         -0.407442        1.000000        0.00015595        0.00000629        0.00054970        0.00803932
     247         -0.404510        1.000000        0.00008702        0.00003632        0.00006225        0.00192378
     248         -0.403931        1.000000        0.00140430        0.00034640        0.01538958        0.04323308
     249         -0.403651        1.000000        0.00628258        0.00044944        0.06861604        0.21262098
     250         -0.403278        1.000000        0.00160342        0.00076714        0.01922202        0.05196474
     251         -0.403098        1.000000        0.00010424        0.00024708        0.00239825        0.00358935
     252         -0.401724        1.000000        0.00000183        0.00000708        0.00002074        0.00009244
     253         -0.401180        1.000000        0.00002976        0.00000068        0.00002607        0.00052425
     254         -0.400991        1.000000        0.00001511        0.00000519        0.00008088        0.00076030
     255         -0.399087        1.000000        0.00001188        0.00012167        0.00037599        0.00116071
     256         -0.398472        1.000000        0.00000092        0.00000344        0.00001132        0.00004056
     257         -0.397634        1.000000        0.00001338        0.00024399        0.00019427        0.00086637
     258         -0.397104        1.000000        0.00001836        0.00032000        0.00022071        0.00065401
     259         -0.396182        1.000000        0.00001352        0.00056293        0.00161653        0.00057312