# Projected DOS for atomic kind O at iteration step i = 0, E(Fermi) =    -0.112050 a.u.
#     MO Eigenvalue [a.u.]      Occupation                 s                py                pz                px
       1         -0.905634        1.000000        0.71180392        0.01252287        0.01590157        0.00308394
       2         -0.901779        1.000000        0.71824666        0.00008331        0.00850909        0.02272790
       3         -0.900648        1.000000        0.71114909        0.01723942        0.00235915        0.01396598
       4         -0.897188        1.000000        0.70671606        0.00765961        0.00982499        0.02114872
       5         -0.895660        1.000000        0.71408065        0.01988632        0.00421501        0.00325955
       6         -0.894405        1.000000        0.70861021        0.01065465        0.01344699        0.01153237
       7         -0.892851        1.000000        0.70651393        0.01171862        0.01557219        0.00870133
       8         -0.891926        1.000000        0.71220049        0.03169243        0.00111857        0.00080362
       9         -0.891861        1.000000        0.70924856        0.02085894        0.01245776        0.00349048
      10         -0.889827        1.000000        0.71233162        0.00453404        0.02654958        0.00379602
      11         -0.886852        1.000000        0.70790841        0.03204550        0.00237347        0.00211076
      12         -0.886136        1.000000        0.70484690        0.01318393        0.02020841        0.00479263
      13         -0.884241        1.000000        0.00009105        0.00000520        0.00000225        0.00000976
      14         -0.884121        1.000000        0.68263442        0.01002860        0.00609345        0.00321940
      15         -0.883913        1.000000        0.70552659        0.02722607        0.00540160        0.00382704
      16         -0.879998        1.000000        0.70639821        0.00645603        0.01055103        0.01951472
      17         -0.878692        1.000000        0.61388020        0.02402189        0.00844989        0.00184020
      18         -0.878425        1.000000        0.09007593        0.00360455        0.00126524        0.00029636
      19         -0.878377        1.000000        0.70344699        0.00964609        0.00315191        0.00459491
      20         -0.877788        1.000000        0.70337842        0.00749642        0.00346489        0.00337275
      21         -0.876965        1.000000        0.70587847        0.02398836        0.01094586        0.00195025
      22         -0.876504        1.000000        0.71240589        0.00995913        0.00656716        0.00683385
      23         -0.873766        1.000000        0.70619712        0.03434893        0.00271332        0.00065900
      24         -0.872612        1.000000        0.70677149        0.00230850        0.02402660        0.01241393
      25         -0.870259        1.000000        0.72447234        0.00894588        0.00702909        0.00425558
      26         -0.868998        1.000000        0.70962324        0.01302798        0.00721003        0.00962908
      27         -0.868330        1.000000        0.71390197        0.00641692        0.00424380        0.00767301
      28         -0.867263        1.000000        0.71225761        0.01196846        0.00168144        0.01034554
      29         -0.867194        1.000000        0.72010741        0.00178029        0.00758928        0.00670046
      30         -0.866877        1.000000        0.00000119        0.00000001        0.00000001        0.00000001
      31         -0.865902        1.000000        0.70223873        0.02735669        0.01403184        0.00012723
      32         -0.865820        1.000000        0.70049121        0.01280562        0.01034527        0.00928492
      33         -0.862701        1.000000        0.70195711        0.01731040        0.00733434        0.01264161
      34         -0.861665        1.000000        0.69892372        0.01042875        0.00377891        0.00484342
      35         -0.861419        1.000000        0.70560720        0.00551762        0.00772209        0.00916702
      36         -0.860874        1.000000        0.66930682        0.00975530        0.00430123        0.00846976
      37         -0.860104        1.000000        0.72209742        0.00823227        0.00468921        0.01362372
      38         -0.859939        1.000000        0.71441953        0.01150650        0.00016375        0.00588342
      39         -0.859143        1.000000        0.71962861        0.01240032        0.00395602        0.01078767
      40         -0.858352        1.000000        0.66208558        0.01151764        0.01247293        0.00362140
      41         -0.857062        1.000000        0.72181333        0.00393593        0.00459843        0.00837515
      42         -0.856680        1.000000        0.70284826        0.00478001        0.00698509        0.00946049
      43         -0.855274        1.000000        0.71184294        0.00695294        0.00606227        0.00281682
      44         -0.854412        1.000000        0.70584703        0.00668145        0.00818733        0.00957032
      45         -0.852889        1.000000        0.71934931        0.01164836        0.01159567        0.01181691
      46         -0.852037        1.000000        0.71975678        0.01176838        0.00834437        0.00634787
      47         -0.851359        1.000000        0.26657912        0.00667148        0.00056510        0.00235151
      48         -0.850083        1.000000        0.69383729        0.04083714        0.00516019        0.00211666
      49         -0.850056        1.000000        0.70865138        0.02299914        0.01580847        0.00271172
      50         -0.849096        1.000000        0.71825401        0.00718885        0.01051035        0.00763903
      51         -0.848510        1.000000        0.73465092        0.01086222        0.00848292        0.00799378
      52         -0.848294        1.000000        0.70780833        0.00864345        0.01978466        0.00184440
      53         -0.847473        1.000000        0.66126077        0.00888155        0.00496580        0.01385565
      54         -0.847388        1.000000        0.71754778        0.00758189        0.00653099        0.00875974
      55         -0.846091        1.000000        0.71761351        0.01268349        0.00989403        0.00733843
      56         -0.845040        1.000000        0.71246246        0.01784760        0.01396443        0.00803784
      57         -0.844792        1.000000        0.73796169        0.00998926        0.01286857        0.00250477
      58         -0.843605        1.000000        0.71601363        0.01055264        0.00741601        0.01337228
      59         -0.842133        1.000000        0.72001575        0.01025124        0.01055015        0.00472189
      60         -0.841839        1.000000        0.30106852        0.01064598        0.00178461        0.00438946
      61         -0.841384        1.000000        0.71509971        0.02481312        0.00484063        0.00495647
      62         -0.841273        1.000000        0.69306714        0.00318620        0.04041483        0.00658982
      63         -0.840423        1.000000        0.72205467        0.01331400        0.00766047        0.01317636
      64         -0.838267        1.000000        0.69632559        0.01271125        0.00481299        0.01495361
      65         -0.837943        1.000000        0.70539711        0.01067112        0.00701871        0.00821008
      66         -0.837412        1.000000        0.71498036        0.01179316        0.01426645        0.01137529
      67         -0.837214        1.000000        0.69256704        0.03982126        0.00053578        0.00851559
      68         -0.836317        1.000000        0.75393402        0.01098584        0.00696350        0.01449868
      69         -0.835855        1.000000        0.72195037        0.01070215        0.00949730        0.01696008
      70         -0.834683        1.000000        0.72258006        0.01896033        0.01549771        0.00272566
      71         -0.834588        1.000000        0.70542120        0.03236831        0.00430966        0.00831582
      72         -0.834574        1.000000        0.72622748        0.02127875        0.00333868        0.01438627
      73         -0.833892        1.000000        0.70989691        0.00819760        0.01237697        0.00806151
      74         -0.833677        1.000000        0.74054004        0.01588811        0.00805702        0.00431815
      75         -0.833268        1.000000        0.73398808        0.01804751        0.00777028        0.01210469
      76         -0.831755        1.000000        0.74172859        0.01221526        0.00852019        0.00915176
      77         -0.829591        1.000000        0.64533705        0.01274171        0.01196266        0.00986703
      78         -0.828434        1.000000        0.62708194        0.01903798        0.00213345        0.00702517
      79         -0.828290        1.000000        0.72255077        0.00800340        0.01537690        0.00955259
      80         -0.827001        1.000000        0.69507741        0.02907828        0.01403827        0.00631712
      81         -0.826593        1.000000        0.74003057        0.01035459        0.00807244        0.01574769
      82         -0.826220        1.000000        0.74319747        0.00844260        0.01348627        0.01283473
      83         -0.825129        1.000000        0.74796645        0.01620736        0.01167446        0.00575342
      84         -0.824205        1.000000        0.72892180        0.01862472        0.01892164        0.00688612
      85         -0.823379        1.000000        0.77277181        0.01270438        0.00737561        0.01749724
      86         -0.823290        1.000000        0.70381213        0.00899564        0.02265040        0.00682191
      87         -0.822550        1.000000        0.64769022        0.01363937        0.00649515        0.00928858
      88         -0.822163        1.000000        0.76038603        0.01253936        0.01109749        0.01089658
      89         -0.820444        1.000000        0.70769335        0.00535419        0.03937121        0.00353000
      90         -0.817929        1.000000        0.67217180        0.01151934        0.00949340        0.01032991
      91         -0.815954        1.000000        0.72543867        0.01608145        0.00358201        0.02300682
      92         -0.814961        1.000000        0.54184442        0.00987988        0.00686195        0.00966923
      93         -0.814679        1.000000        0.71122840        0.00529245        0.02850737        0.01313268
      94         -0.814636        1.000000        0.76309712        0.01262001        0.01057752        0.01195844
      95         -0.814396        1.000000        0.69323745        0.00205135        0.02506372        0.02126744
      96         -0.813981        1.000000        0.75503800        0.01715876        0.01008099        0.01667872
      97         -0.813787        1.000000        0.77302450        0.02771355        0.00506272        0.00563016
      98         -0.813773        1.000000        0.76829465        0.00449074        0.01047565        0.02002138
      99         -0.812599        1.000000        0.76070820        0.01190102        0.00925001        0.01600453
     100         -0.808131        1.000000        0.46977184        0.00887708        0.00879881        0.00871650
     101         -0.807741        1.000000        0.70179209        0.04391309        0.00275157        0.00204520
     102         -0.804779        1.000000        0.78504778        0.00111195        0.00639208        0.02633145
     103         -0.803136        1.000000        0.71773729        0.00766960        0.03153295        0.00824176
     104         -0.801399        1.000000        0.77847714        0.00495897        0.01386493        0.01683219
     105         -0.799731        1.000000        0.78636555        0.00556428        0.01235254        0.01958877
     106         -0.798759        1.000000        0.71445985        0.01464226        0.00148672        0.03338659
     107         -0.796935        1.000000        0.79373744        0.01698023        0.00654615        0.01728586
     108         -0.791002        1.000000        0.70732795        0.03019349        0.01005196        0.00707797
     109         -0.788452        1.000000        0.11730366        0.00953969        0.00135466        0.00404615
     110         -0.786993        1.000000        0.62216573        0.01599060        0.00335507        0.01052472
     111         -0.773270        1.000000        0.81948806        0.01524573        0.00534759        0.00914278
     112         -0.629236        1.000000        0.00036801        0.00002980        0.00010702        0.00037781
     113         -0.623175        1.000000        0.00012156        0.00003128        0.00045481        0.00004926
     114         -0.614666        1.000000        0.00000067        0.00000075        0.00000035        0.00000041
     115         -0.613695        1.000000        0.00024936        0.00097352        0.00040603        0.00000855
     116         -0.593180        1.000000        0.00069409        0.00074225        0.00056715        0.00149373
     117         -0.578894        1.000000        0.02997227        0.00199688        0.02882537        0.00540948
     118         -0.575972        1.000000        0.00637977        0.00341881        0.01352675        0.00866544
     119         -0.575409        1.000000        0.00046996        0.00016798        0.00031120        0.00085150
     120         -0.572508        1.000000        0.00447681        0.00630598        0.00225943        0.00098341
     121         -0.567990        1.000000        0.00035920        0.00199225        0.00078156        0.00072609
     122         -0.566872        1.000000        0.01944803        0.02956075        0.00929348        0.00161402
     123         -0.552366        1.000000        0.00457107        0.01407152        0.00675121        0.00129482
     124         -0.537892        1.000000        0.00140884        0.00085052        0.00208747        0.00102975
     125         -0.535692        1.000000        0.00099454        0.00047780        0.00161012        0.00244791
     126         -0.530706        1.000000        0.00033992        0.00050949        0.00084621        0.00052679
     127         -0.530118        1.000000        0.00217082        0.00167103        0.02744231        0.00052655
     128         -0.528386        1.000000        0.00172712        0.00393446        0.00565078        0.00436342
     129         -0.525798        1.000000        0.00119128        0.00264284        0.00351883        0.00237725
     130         -0.524552        1.000000        0.00026696        0.00041031        0.00065911        0.00061155
     131         -0.523217        1.000000        0.00041101        0.00080818        0.00070337        0.00133805
     132         -0.522429        1.000000        0.00058767        0.00115474        0.00089863        0.00189381
     133         -0.520747        1.000000        0.00252737        0.00202884        0.00178255        0.00090916
     134         -0.520522        1.000000        0.00169825        0.00565534        0.00751834        0.00743914
     135         -0.519548        1.000000        0.00130882        0.00206939        0.00330275        0.00344910
     136         -0.518719        1.000000        0.00093712        0.00096365        0.00301762        0.00152321
     137         -0.516356        1.000000        0.00031723        0.00061399        0.00091842        0.00108775
     138         -0.516024        1.000000        0.00094030        0.00099416        0.00397257        0.00134834
     139         -0.513761        1.000000        0.00085411        0.00327407        0.00562965        0.00169475
     140         -0.512593        1.000000        0.00038354        0.00185764        0.00105678        0.00112305
     141         -0.511603        1.000000        0.00150123        0.00543510        0.00430830        0.00322187
     142         -0.511223        1.000000        0.00100550        0.00617282        0.00231136        0.00338040
     143         -0.510081        1.000000        0.00099368        0.00362902        0.00342057        0.00282085
     144         -0.508738        1.000000        0.00079539        0.00361893        0.00370123        0.00516215
     145         -0.507241        1.000000        0.00074775        0.00296361        0.00303359        0.00536617
     146         -0.507011        1.000000        0.00032465        0.00136290        0.00103959        0.00128333
     147         -0.505588        1.000000        0.00225229        0.00686583        0.00622258        0.00471307
     148         -0.504209        1.000000        0.00040048        0.00123015        0.00045351        0.00153791
     149         -0.503270        1.000000        0.00088979        0.01875424        0.00379636        0.02464538
     150         -0.502548        1.000000        0.00013930        0.00066727        0.00077188        0.00109655
     151         -0.502210        1.000000        0.00057772        0.00218420        0.00365107        0.00736987
     152         -0.501466        1.000000        0.00044004        0.00318266        0.00417793        0.00519940
     153         -0.500989        1.000000        0.00133049        0.01382973        0.01459615        0.02235896
     154         -0.499576        1.000000        0.00064743        0.00414697        0.00159150        0.00625174
     155         -0.498498        1.000000        0.00179866        0.00710713        0.00389545        0.01435599
     156         -0.493515        1.000000        0.00030614        0.00780273        0.00327769        0.00584979
     157         -0.492982        1.000000        0.00012674        0.00206430        0.00097186        0.00147922
     158         -0.486626        1.000000        0.00018938        0.00260113        0.00371318        0.00202226
     159         -0.485456        1.000000        0.00004484        0.00087870        0.00074138        0.00066190
     160         -0.481261        1.000000        0.00003438        0.00052924        0.00088934        0.00041649
     161         -0.473309        1.000000        0.00013064        0.00046617        0.00053272        0.00297931
     162         -0.471358        1.000000        0.00010721        0.04762757        0.00247622        0.02016888
     163         -0.466666        1.000000        0.00012003        0.00871384        0.01561905        0.05771971
     164         -0.466140        1.000000        0.00036427        0.02193656        0.00952449        0.01065903
     165         -0.465793        1.000000        0.00116601        0.22105053        0.38521693        0.02360042
     166         -0.465782        1.000000        0.00016310        0.04385083        0.42558428        0.15696003
     167         -0.463911        1.000000        0.00290622        0.32874063        0.01567151        0.23696709
     168         -0.459478        1.000000        0.00030237        0.09252349        0.24876623        0.29113391
     169         -0.457994        1.000000        0.00178115        0.05057938        0.29727320        0.27518157
     170         -0.457565        1.000000        0.00097267        0.22844149        0.14627838        0.24395577
     171         -0.456704        1.000000        0.00160450        0.11286747        0.19943302        0.28592661
     172         -0.454586        1.000000        0.00138725        0.30047826        0.26679513        0.05731764
     173         -0.454035        1.000000        0.00261665        0.14729447        0.35585661        0.14064498
     174         -0.452856        1.000000        0.00054132        0.20356202        0.40274270        0.03299589
     175         -0.451611        1.000000        0.00113864        0.25385497        0.25759667        0.14049474
     176         -0.451340        1.000000        0.00045090        0.03706917        0.32233743        0.28334575
     177         -0.448169        1.000000        0.00130783        0.30639657        0.05008674        0.26280980
     178         -0.447180        1.000000        0.00054014        0.00730739        0.12624479        0.50505328
     179         -0.446386        1.000000        0.00180291        0.00438706        0.20520177        0.40437717
     180         -0.446202        1.000000        0.00048146        0.32449665        0.04552660        0.26698392
     181         -0.445508        1.000000        0.00298768        0.27656319        0.30506299        0.07266205
     182         -0.445293        1.000000        0.00073966        0.05888116        0.39935385        0.19189933
     183         -0.441188        1.000000        0.00024133        0.02116874        0.01390642        0.00962854
     184         -0.440990        1.000000        0.00170845        0.28359485        0.20922522        0.16443559
     185         -0.440881        1.000000        0.00293710        0.11547758        0.15477528        0.37592552
     186         -0.440718        1.000000        0.00139862        0.22701240        0.19859595        0.06872274
     187         -0.440338        1.000000        0.00171842        0.04804260        0.05660610        0.50704801
     188         -0.440109        1.000000        0.00128567        0.08909184        0.34352682        0.22400891
     189         -0.439992        1.000000        0.00109068        0.24897222        0.29150609        0.07358514
     190         -0.439528        1.000000        0.00130408        0.13408140        0.10668604        0.05542756
     191         -0.438659        1.000000        0.00153263        0.29424986        0.24988018        0.09454043
     192         -0.438393        1.000000        0.00251262        0.17465733        0.41493480        0.04988569
     193         -0.438372        1.000000        0.00228807        0.25727735        0.27455578        0.10173897
     194         -0.438254        1.000000        0.00287404        0.04695126        0.41498433        0.18721071
     195         -0.437957        1.000000        0.00210460        0.31634669        0.17360220        0.13856505
     196         -0.436964        1.000000        0.00114480        0.20635116        0.22036797        0.23051511
     197         -0.435929        1.000000        0.00229905        0.15171099        0.17962963        0.30675676
     198         -0.435551        1.000000        0.00159135        0.18928717        0.24476426        0.17414414
     199         -0.433610        1.000000        0.00407619        0.32168045        0.10393061        0.22810206
     200         -0.433002        1.000000        0.00112595        0.46054333        0.10617227        0.08874272
     201         -0.432516        1.000000        0.00058813        0.07263085        0.13845818        0.20417406
     202         -0.432207        1.000000        0.00047748        0.02991219        0.01761485        0.58758390
     203         -0.432053        1.000000        0.00140848        0.17497396        0.22062704        0.16555386
     204         -0.431951        1.000000        0.00099489        0.11402010        0.15355649        0.16710902
     205         -0.430296        1.000000        0.00226491        0.12007312        0.14265452        0.36837783
     206         -0.429598        1.000000        0.00644056        0.10016827        0.14166428        0.40502836
     207         -0.429355        1.000000        0.00238370        0.24507864        0.16771846        0.23244955
     208         -0.429179        1.000000        0.00114596        0.39532982        0.11035247        0.13152291
     209         -0.428137        1.000000        0.00156060        0.36341593        0.10271783        0.17184867
     210         -0.426915        1.000000        0.00389228        0.02833954        0.32750671        0.13462075
     211         -0.426449        1.000000        0.00358966        0.16076855        0.34340241        0.15618858
     212         -0.426422        1.000000        0.00151459        0.19011690        0.26700627        0.18758671
     213         -0.426225        1.000000        0.00010241        0.18325464        0.38484579        0.06219833
     214         -0.424779        1.000000        0.00374233        0.26095593        0.28635127        0.10387438
     215         -0.424699        1.000000        0.00517282        0.17489923        0.27649278        0.19685091
     216         -0.424651        1.000000        0.00297722        0.28867352        0.21270230        0.13540256
     217         -0.424102        1.000000        0.00417387        0.27264180        0.17221093        0.20278455
     218         -0.422671        1.000000        0.00181984        0.32311998        0.17265243        0.16024015
     219         -0.422009        1.000000        0.00294807        0.31187597        0.15928714        0.18079389
     220         -0.419805        1.000000        0.00418146        0.06025913        0.16083346        0.41614989
     221         -0.419591        1.000000        0.00327592        0.19082605        0.16760271        0.28527483
     222         -0.418607        1.000000        0.00422593        0.12821441        0.07848189        0.43550494
     223         -0.418375        1.000000        0.00579831        0.31905515        0.09729239        0.22429544
     224         -0.418095        1.000000        0.00265157        0.15437998        0.37010558        0.11622438
     225         -0.417025        1.000000        0.00277865        0.08519987        0.09502040        0.45987999
     226         -0.416724        1.000000        0.00383431        0.05129224        0.37601594        0.21205083
     227         -0.416494        1.000000        0.00137709        0.18904515        0.07131859        0.37167749
     228         -0.416243        1.000000        0.00456682        0.22697717        0.22941673        0.10854037
     229         -0.415992        1.000000        0.00335488        0.32314372        0.18119728        0.15048335
     230         -0.415601        1.000000        0.00321168        0.04316755        0.09471693        0.49876338
     231         -0.415000        1.000000        0.00183892        0.13718019        0.15264468        0.12668125
     232         -0.414520        1.000000        0.00188049        0.14451257        0.22899055        0.27342916
     233         -0.413969        1.000000        0.00364718        0.18540015        0.07966508        0.38508439
     234         -0.413727        1.000000        0.00259121        0.32152636        0.04425383        0.26912522
     235         -0.413680        1.000000        0.00409053        0.19329408        0.20221124        0.18055528
     236         -0.412955        1.000000        0.00417420        0.36217828        0.20046750        0.06020097
     237         -0.412571        1.000000        0.00347155        0.25771040        0.26280993        0.13420452
     238         -0.412400        1.000000        0.00238803        0.27948842        0.05459292        0.29763285
     239         -0.412272        1.000000        0.00390501        0.16950067        0.09580121        0.38603485
     240         -0.411530        1.000000        0.00394358        0.28323141        0.01993811        0.35185361
     241         -0.410312        1.000000        0.00042299        0.00897520        0.00533978        0.01202031
     242         -0.409676        1.000000        0.00177378        0.24012103        0.15056923        0.25049179
     243         -0.409579        1.000000        0.00057776        0.12615705        0.33843513        0.15198471
     244         -0.408492        1.000000        0.00226119        0.25604660        0.13949912        0.22298365
     245         -0.408193        1.000000        0.00520495        0.03583759        0.14155108        0.44629742
     246         -0.407442        1.000000        0.00115828        0.24037006        0.19134122        0.17820772
     247         -0.404510        1.000000        0.00202849        0.29900321        0.10779907        0.23407582
     248         -0.403931        1.000000        0.00164220        0.09269517        0.25342650        0.18637095
     249         -0.403651        1.000000        0.00057622        0.01484906        0.03033930        0.03105344
     250         -0.403278        1.000000        0.00104230        0.02296740        0.06433527        0.05591721
     251         -0.403098        1.000000        0.00551647        0.09496835        0.24747825        0.25322888
     252         -0.401724        1.000000        0.00515168        0.15777874        0.10929352        0.38361397
     253         -0.401180        1.000000        0.00227093        0.24895884        0.30357513        0.08749765
     254         -0.400991        1.000000        0.00487818        0.04876645        0.12023554        0.47203268
     255         -0.399087        1.000000        0.00090499        0.04400183        0.31639861        0.11648881
     256         -0.398472        1.000000        0.00005192        0.09712950        0.04010737        0.49145733
     257         -0.397634        1.000000        0.00145210        0.10746994        0.15482893        0.07790968
     258         -0.397104        1.000000        0.00126085        0.11949017        0.14266524        0.07769249
     259         -0.396182        1.000000        0.00463739        0.16377318        0.15987670        0.29619284