# Projected DOS for atomic kind I at iteration step i = 0, E(Fermi) =    -0.112045 a.u.
#     MO Eigenvalue [a.u.]      Occupation                 s                py                pz                px
       1         -0.905634        1.000000        0.00002430        0.00012192        0.00000531        0.00001782
       2         -0.901779        1.000000        0.00031218        0.00050773        0.00018829        0.00000828
       3         -0.900648        1.000000        0.00008945        0.00006099        0.00000473        0.00035854
       4         -0.897187        1.000000        0.00002390        0.00009195        0.00000807        0.00006828
       5         -0.895660        1.000000        0.00008420        0.00004042        0.00030066        0.00003800
       6         -0.894405        1.000000        0.00002092        0.00012134        0.00002202        0.00000046
       7         -0.892843        1.000000        0.00013122        0.00001347        0.00006419        0.00049924
       8         -0.891926        1.000000        0.00000703        0.00001927        0.00003738        0.00002407
       9         -0.891860        1.000000        0.00006329        0.00002424        0.00023728        0.00003088
      10         -0.889828        1.000000        0.00004874        0.00014935        0.00010762        0.00008090
      11         -0.886852        1.000000        0.00001554        0.00002162        0.00004395        0.00005386
      12         -0.886136        1.000000        0.00005998        0.00003845        0.00009079        0.00015100
      13         -0.884241        1.000000        0.00024194        0.00059648        0.00026733        0.00020649
      14         -0.884115        1.000000        0.00003031        0.00012825        0.00003955        0.00005815
      15         -0.883913        1.000000        0.00007282        0.00006670        0.00014870        0.00012927
      16         -0.879997        1.000000        0.00012813        0.00044188        0.00004874        0.00005158
      17         -0.878691        1.000000        0.00019909        0.00005638        0.00043312        0.00001573
      18         -0.878425        1.000000        0.00009264        0.00030672        0.00029385        0.00024585
      19         -0.878378        1.000000        0.00019450        0.00007821        0.00049784        0.00006652
      20         -0.877788        1.000000        0.00011907        0.00009923        0.00004822        0.00022987
      21         -0.876964        1.000000        0.00009797        0.00002800        0.00001045        0.00037389
      22         -0.876504        1.000000        0.00000563        0.00002548        0.00000080        0.00001050
      23         -0.873767        1.000000        0.00004115        0.00009946        0.00002295        0.00011017
      24         -0.872581        1.000000        0.00002492        0.00003464        0.00007337        0.00006952
      25         -0.870259        1.000000        0.00031157        0.00001030        0.00049486        0.00007734
      26         -0.868999        1.000000        0.00047308        0.00011115        0.00113868        0.00009129
      27         -0.868330        1.000000        0.00014153        0.00007600        0.00025744        0.00017985
      28         -0.867262        1.000000        0.00008361        0.00005804        0.00008796        0.00021840
      29         -0.867194        1.000000        0.00017740        0.00018332        0.00000175        0.00012143
      30         -0.866877        1.000000        0.00022224        0.00027437        0.00055142        0.00024298
      31         -0.865903        1.000000        0.00011890        0.00025279        0.00004806        0.00002181
      32         -0.865819        1.000000        0.00013189        0.00020175        0.00004210        0.00023897
      33         -0.862690        1.000000        0.00002337        0.00002816        0.00002666        0.00007159
      34         -0.861419        1.000000        0.00003764        0.00013130        0.00001655        0.00005339
      35         -0.861106        1.000000        0.00007484        0.00000241        0.00012036        0.00019637
      36         -0.860871        1.000000        0.00003941        0.00007716        0.00003750        0.00008672
      37         -0.860104        1.000000        0.00021061        0.00009717        0.00022276        0.00026029
      38         -0.859939        1.000000        0.00013451        0.00002810        0.00022685        0.00024166
      39         -0.859143        1.000000        0.00008024        0.00013765        0.00018383        0.00003961
      40         -0.858344        1.000000        0.00004346        0.00011054        0.00002154        0.00009559
      41         -0.857062        1.000000        0.00004354        0.00004539        0.00001937        0.00005565
      42         -0.856680        1.000000        0.00014199        0.00005901        0.00006693        0.00025160
      43         -0.855274        1.000000        0.00037852        0.00000361        0.00061123        0.00004376
      44         -0.854411        1.000000        0.00021696        0.00018738        0.00006666        0.00031062
      45         -0.852889        1.000000        0.00001355        0.00020102        0.00001171        0.00004361
      46         -0.852037        1.000000        0.00028938        0.00003434        0.00041228        0.00003286
      47         -0.851361        1.000000        0.00154439        0.00032417        0.00314920        0.00033169
      48         -0.850083        1.000000        0.00001422        0.00001665        0.00000755        0.00007224
      49         -0.850055        1.000000        0.00001830        0.00003038        0.00000604        0.00007416
      50         -0.848510        1.000000        0.00081553        0.00005674        0.00044458        0.00078791
      51         -0.848294        1.000000        0.00013727        0.00022880        0.00021629        0.00003621
      52         -0.847951        1.000000        0.00003465        0.00008620        0.00012589        0.00004722
      53         -0.847473        1.000000        0.00005168        0.00007218        0.00006316        0.00003765
      54         -0.847388        1.000000        0.00023108        0.00020518        0.00002560        0.00013631
      55         -0.846091        1.000000        0.00009427        0.00002859        0.00011932        0.00014590
      56         -0.845040        1.000000        0.00000668        0.00000065        0.00000113        0.00001747
      57         -0.844793        1.000000        0.00119521        0.00002751        0.00154085        0.00009529
      58         -0.843605        1.000000        0.00036334        0.00015327        0.00047184        0.00046376
      59         -0.842133        1.000000        0.00011169        0.00004416        0.00015342        0.00008781
      60         -0.841837        1.000000        0.00013273        0.00024815        0.00010091        0.00019807
      61         -0.841386        1.000000        0.00001752        0.00001666        0.00009156        0.00001069
      62         -0.841273        1.000000        0.00000325        0.00000038        0.00001716        0.00001597
      63         -0.840423        1.000000        0.00006524        0.00004225        0.00007796        0.00009680
      64         -0.838266        1.000000        0.00005275        0.00004853        0.00002326        0.00017154
      65         -0.837935        1.000000        0.00047432        0.00042303        0.00007747        0.00013952
      66         -0.837411        1.000000        0.00003919        0.00002924        0.00003415        0.00014069
      67         -0.837213        1.000000        0.00004613        0.00003656        0.00016527        0.00000812
      68         -0.836317        1.000000        0.00105195        0.00008259        0.00051989        0.00097060
      69         -0.835854        1.000000        0.00007275        0.00000340        0.00002051        0.00018100
      70         -0.834589        1.000000        0.00007141        0.00000984        0.00014444        0.00000452
      71         -0.834577        1.000000        0.00012715        0.00002163        0.00020897        0.00001628
      72         -0.834459        1.000000        0.00001399        0.00005229        0.00004652        0.00002075
      73         -0.833825        1.000000        0.00048016        0.00042926        0.00011065        0.00013118
      74         -0.833677        1.000000        0.00034152        0.00006252        0.00044564        0.00000962
      75         -0.833268        1.000000        0.00031781        0.00015752        0.00021720        0.00024615
      76         -0.830119        1.000000        0.00003624        0.00010709        0.00014151        0.00000812
      77         -0.829586        1.000000        0.00006143        0.00008751        0.00005624        0.00008934
      78         -0.828439        1.000000        0.00429998        0.00035715        0.00769580        0.00015262
      79         -0.828282        1.000000        0.00000869        0.00008251        0.00003910        0.00000626
      80         -0.827001        1.000000        0.00000074        0.00000161        0.00000060        0.00000149
      81         -0.826592        1.000000        0.00089307        0.00072340        0.00011779        0.00018076
      82         -0.826215        1.000000        0.00116170        0.00109851        0.00034706        0.00046530
      83         -0.825129        1.000000        0.00046820        0.00003435        0.00053879        0.00001435
      84         -0.824204        1.000000        0.00020065        0.00013701        0.00020507        0.00018014
      85         -0.823379        1.000000        0.00048983        0.00004457        0.00033200        0.00034556
      86         -0.823283        1.000000        0.00001232        0.00004736        0.00000293        0.00003002
      87         -0.822549        1.000000        0.00004974        0.00001394        0.00005879        0.00008342
      88         -0.822163        1.000000        0.00041056        0.00004596        0.00079579        0.00002622
      89         -0.820437        1.000000        0.00003048        0.00002277        0.00006018        0.00002875
      90         -0.817923        1.000000        0.00102323        0.00075759        0.00014740        0.00017355
      91         -0.815954        1.000000        0.00004351        0.00002163        0.00000857        0.00011796
      92         -0.814951        1.000000        0.00032825        0.00027957        0.00005917        0.00007489
      93         -0.814679        1.000000        0.00000967        0.00000095        0.00002147        0.00002677
      94         -0.814635        1.000000        0.00031890        0.00008949        0.00026500        0.00002307
      95         -0.814396        1.000000        0.00007344        0.00007772        0.00018132        0.00000274
      96         -0.813980        1.000000        0.00033018        0.00001703        0.00030510        0.00057783
      97         -0.813787        1.000000        0.01097851        0.00019061        0.00620338        0.00632036
      98         -0.812586        1.000000        0.00256317        0.00240276        0.00053384        0.00078717
      99         -0.810886        1.000000        0.00017476        0.00001546        0.00012616        0.00015091
     100         -0.808123        1.000000        0.00004490        0.00007501        0.00005124        0.00005377
     101         -0.807741        1.000000        0.00000081        0.00000390        0.00000126        0.00000568
     102         -0.804778        1.000000        0.03063133        0.01939144        0.00283653        0.00408511
     103         -0.803119        1.000000        0.00000252        0.00001257        0.00000883        0.00000184
     104         -0.801398        1.000000        0.00011874        0.00001357        0.00012549        0.00004980
     105         -0.799710        1.000000        0.00427649        0.00391305        0.00071184        0.00096053
     106         -0.798795        1.000000        0.00008443        0.00000795        0.00034990        0.00005008
     107         -0.790998        1.000000        0.00004502        0.00009660        0.00006948        0.00004683
     108         -0.788452        1.000000        0.00001471        0.00002228        0.00004220        0.00001380
     109         -0.787040        1.000000        0.00006112        0.00007780        0.00004522        0.00003001
     110         -0.778984        1.000000        0.00095403        0.00084792        0.00118268        0.00032214
     111         -0.773284        1.000000        0.03674564        0.00052428        0.02345241        0.00154231
     112         -0.629236        1.000000        0.00214665        0.00030969        0.00036601        0.00014357
     113         -0.623175        1.000000        0.00254567        0.00035774        0.00044657        0.00013984
     114         -0.614666        1.000000        0.00246345        0.00042240        0.00056503        0.00043413
     115         -0.613694        1.000000        0.00091132        0.00013001        0.00011883        0.00025299
     116         -0.593178        1.000000        0.00202590        0.00008868        0.00022401        0.00036956
     117         -0.578896        1.000000        0.90064139        0.00023917        0.00158533        0.00064369
     118         -0.575972        1.000000        0.94297556        0.00027551        0.00648252        0.00546211
     119         -0.575386        1.000000        0.00342307        0.00037822        0.00019675        0.00029704
     120         -0.572507        1.000000        0.93475613        0.00136914        0.00466077        0.01415522
     121         -0.567990        1.000000        0.00753596        0.00030855        0.00023014        0.00027647
     122         -0.566871        1.000000        0.91683163        0.00097284        0.00122244        0.00258403
     123         -0.552351        1.000000        0.94786064        0.00042855        0.00076414        0.00052508
     124         -0.537891        1.000000        0.87073680        0.00333264        0.00644149        0.00569783
     125         -0.535691        1.000000        0.92293016        0.00210299        0.00504993        0.00976088
     126         -0.530706        1.000000        0.72821614        0.00531899        0.00297988        0.00206433
     127         -0.530124        1.000000        0.95175608        0.00026739        0.00084725        0.00029132
     128         -0.528379        1.000000        0.82920795        0.00303232        0.00376461        0.00207485
     129         -0.525797        1.000000        0.89943294        0.00140981        0.00555188        0.00433037
     130         -0.524491        1.000000        0.79006559        0.00431671        0.00448896        0.00209662
     131         -0.523123        1.000000        0.82414599        0.00345989        0.00498613        0.00288256
     132         -0.522180        1.000000        0.81256296        0.00301856        0.00472369        0.00293235
     133         -0.520735        1.000000        0.96159627        0.00104528        0.00043567        0.00030613
     134         -0.520496        1.000000        0.88110077        0.00116141        0.00152066        0.00118049
     135         -0.518857        1.000000        0.85834519        0.00105704        0.00124018        0.00246344
     136         -0.516561        1.000000        0.85916324        0.00117833        0.00173073        0.00261161
     137         -0.516028        1.000000        0.87518645        0.00062461        0.00084136        0.00203261
     138         -0.513751        1.000000        0.69120330        0.00209151        0.00078370        0.00174911
     139         -0.512732        1.000000        0.78653433        0.00112782        0.00330248        0.00131829
     140         -0.511603        1.000000        0.86330751        0.00168477        0.00124594        0.00124300
     141         -0.511523        1.000000        0.83135188        0.00259814        0.00266303        0.00112174
     142         -0.510272        1.000000        0.88102374        0.00320467        0.00218536        0.00176298
     143         -0.510080        1.000000        0.91781577        0.00124581        0.00067832        0.00072147
     144         -0.507287        1.000000        0.85970579        0.00086004        0.00214354        0.00120106
     145         -0.507032        1.000000        0.94071418        0.00017423        0.00065795        0.00064519
     146         -0.505872        1.000000        0.89517553        0.00056857        0.00074910        0.00070561
     147         -0.505587        1.000000        0.92978896        0.00085706        0.00014895        0.00037196
     148         -0.504209        1.000000        0.89769106        0.00045456        0.00040243        0.00123084
     149         -0.503060        1.000000        0.75192554        0.00151029        0.00082961        0.00198743
     150         -0.502546        1.000000        0.38217075        0.00178631        0.00056946        0.00079845
     151         -0.502196        1.000000        0.87863548        0.00026416        0.00076464        0.00028106
     152         -0.501387        1.000000        0.30658081        0.00150444        0.00156658        0.00080994
     153         -0.500827        1.000000        0.82899561        0.00178949        0.00037104        0.00186910
     154         -0.499347        1.000000        0.84154265        0.00175325        0.00035112        0.00056782
     155         -0.498440        1.000000        0.89206422        0.00137513        0.00046081        0.00032353
     156         -0.493099        1.000000        0.31647813        0.00296440        0.00198762        0.00115570
     157         -0.492124        1.000000        0.89391937        0.00078504        0.00087230        0.00086033
     158         -0.486621        1.000000        0.20261476        0.00268537        0.00279149        0.00246240
     159         -0.485447        1.000000        0.14345808        0.00415677        0.00162300        0.00156188
     160         -0.481257        1.000000        0.19828005        0.00055789        0.00363116        0.00245646
     161         -0.473310        1.000000        0.06305635        0.00197253        0.00152525        0.00181477
     162         -0.471351        1.000000        0.11950336        0.00160596        0.00083610        0.00033279
     163         -0.466668        1.000000        0.02337389        0.00126223        0.00135909        0.00167748
     164         -0.466090        1.000000        0.08476849        0.00117655        0.00018859        0.00379113
     165         -0.465793        1.000000        0.01628933        0.00311472        0.00006293        0.00052343
     166         -0.465783        1.000000        0.00180983        0.00064267        0.00050602        0.00012490
     167         -0.463910        1.000000        0.07984547        0.00238946        0.00046231        0.00356597
     168         -0.459476        1.000000        0.00389049        0.00035754        0.00053699        0.00188469
     169         -0.457994        1.000000        0.02375113        0.00141323        0.00413647        0.00057423
     170         -0.457541        1.000000        0.02211656        0.00273371        0.00071342        0.00241926
     171         -0.456682        1.000000        0.05303765        0.00119139        0.00095021        0.00431304
     172         -0.454585        1.000000        0.01446790        0.00022645        0.00561525        0.00005307
     173         -0.454036        1.000000        0.00186669        0.00067720        0.00003764        0.00009350
     174         -0.452856        1.000000        0.00338457        0.00149891        0.00035164        0.00011635
     175         -0.451611        1.000000        0.00731610        0.00076102        0.00119368        0.00060311
     176         -0.451339        1.000000        0.00143730        0.00041589        0.00039954        0.00028107
     177         -0.448169        1.000000        0.02391463        0.00096655        0.00067762        0.00291864
     178         -0.447180        1.000000        0.00237738        0.00016968        0.00101653        0.00116535
     179         -0.446386        1.000000        0.01957616        0.00127520        0.00174676        0.00327873
     180         -0.446202        1.000000        0.01052929        0.00316914        0.00138617        0.00136276
     181         -0.445509        1.000000        0.00246716        0.00030303        0.00116748        0.00044474
     182         -0.445293        1.000000        0.00495557        0.00010245        0.00023261        0.00054742
     183         -0.441084        1.000000        0.01132663        0.00292702        0.00054485        0.00238007
     184         -0.440987        1.000000        0.00081958        0.00040103        0.00018623        0.00037943
     185         -0.440880        1.000000        0.00087453        0.00051677        0.00002852        0.00019890
     186         -0.440703        1.000000        0.02773582        0.00343622        0.00066191        0.00132062
     187         -0.440337        1.000000        0.02658783        0.00103900        0.00034144        0.00640974
     188         -0.440109        1.000000        0.00342425        0.00034060        0.00054487        0.00119857
     189         -0.439991        1.000000        0.01150899        0.00066684        0.00651765        0.00176376
     190         -0.439525        1.000000        0.02010694        0.00096353        0.00093644        0.00115059
     191         -0.438657        1.000000        0.01047003        0.00078340        0.00120369        0.00103112
     192         -0.438392        1.000000        0.00173722        0.00038301        0.00061145        0.00019177
     193         -0.438370        1.000000        0.01249910        0.00123065        0.00094306        0.00149070
     194         -0.438254        1.000000        0.00014437        0.00010581        0.00010598        0.00037509
     195         -0.437955        1.000000        0.01646698        0.00164060        0.00094803        0.00282394
     196         -0.436964        1.000000        0.00632203        0.00023956        0.00065786        0.00083564
     197         -0.435867        1.000000        0.00268090        0.00034454        0.00013627        0.00043463
     198         -0.435543        1.000000        0.01120293        0.00102118        0.00048027        0.00202103
     199         -0.433610        1.000000        0.00081855        0.00006420        0.00004169        0.00042534
     200         -0.433001        1.000000        0.00018039        0.00004974        0.00007605        0.00093758
     201         -0.432488        1.000000        0.00111266        0.00164651        0.00053922        0.00041616
     202         -0.432207        1.000000        0.00429296        0.00261044        0.00024046        0.00085440
     203         -0.432038        1.000000        0.00542042        0.00087568        0.00089926        0.00180529
     204         -0.431892        1.000000        0.00652620        0.00038944        0.00064770        0.00112217
     205         -0.430295        1.000000        0.00734995        0.00143114        0.00023898        0.00195496
     206         -0.429598        1.000000        0.00122420        0.00109848        0.00060110        0.00302071
     207         -0.429354        1.000000        0.00319898        0.00135075        0.00012257        0.00085216
     208         -0.429179        1.000000        0.00324352        0.00068144        0.00095685        0.00298799
     209         -0.428137        1.000000        0.01418672        0.00150989        0.00180380        0.00148677
     210         -0.426914        1.000000        0.00106544        0.00016253        0.00016145        0.00016617
     211         -0.426449        1.000000        0.00052602        0.00015829        0.00012828        0.00086590
     212         -0.426424        1.000000        0.00205343        0.00168151        0.00077983        0.00023671
     213         -0.426226        1.000000        0.00224358        0.00567449        0.00042151        0.00067069
     214         -0.424704        1.000000        0.00286730        0.00105270        0.00174998        0.00059596
     215         -0.424668        1.000000        0.00268153        0.00100248        0.00164322        0.00051463
     216         -0.424597        1.000000        0.00308026        0.00079130        0.00119220        0.00017428
     217         -0.424102        1.000000        0.00391541        0.00058880        0.00117455        0.00066125
     218         -0.422672        1.000000        0.00060446        0.00040387        0.00054851        0.00042189
     219         -0.422009        1.000000        0.00236507        0.00057176        0.00018675        0.00160677
     220         -0.419804        1.000000        0.00215642        0.00125431        0.00021587        0.00050244
     221         -0.419592        1.000000        0.00081274        0.00113759        0.00097858        0.00101580
     222         -0.418611        1.000000        0.00076819        0.00028746        0.00180456        0.00197758
     223         -0.418375        1.000000        0.00132577        0.00044066        0.00050950        0.00110711
     224         -0.418096        1.000000        0.00069737        0.00008845        0.00044617        0.00009561
     225         -0.417024        1.000000        0.00061005        0.00097470        0.00020193        0.00011212
     226         -0.416724        1.000000        0.00952943        0.00099874        0.00248090        0.00176026
     227         -0.416494        1.000000        0.00159100        0.00230190        0.00010837        0.00024646
     228         -0.416242        1.000000        0.00142785        0.00027383        0.00014404        0.00018886
     229         -0.415986        1.000000        0.00330786        0.00061340        0.00031416        0.00031851
     230         -0.415600        1.000000        0.00259247        0.00057723        0.00048420        0.00181327
     231         -0.414999        1.000000        0.00035160        0.00019723        0.00031316        0.00042263
     232         -0.414501        1.000000        0.00243171        0.00047859        0.00006931        0.00028480
     233         -0.413934        1.000000        0.00197739        0.00103811        0.00031139        0.00077631
     234         -0.413718        1.000000        0.00093869        0.00014921        0.00058199        0.00032043
     235         -0.413679        1.000000        0.00044692        0.00020156        0.00034668        0.00079035
     236         -0.412955        1.000000        0.00505599        0.00166723        0.00594234        0.00334272
     237         -0.412571        1.000000        0.00149379        0.00082681        0.00086901        0.00031166
     238         -0.412400        1.000000        0.00263877        0.00023695        0.00017253        0.00181584
     239         -0.412272        1.000000        0.00037248        0.00017384        0.00017391        0.00028519
     240         -0.411530        1.000000        0.00025137        0.00018607        0.00005451        0.00055694
     241         -0.410312        1.000000        0.00318706        0.00301897        0.00315610        0.00134620
     242         -0.409676        1.000000        0.00026016        0.00002144        0.00042845        0.00156087
     243         -0.409579        1.000000        0.00163135        0.00066370        0.00097638        0.00195939
     244         -0.408492        1.000000        0.00156730        0.00072647        0.00081850        0.00186552
     245         -0.408193        1.000000        0.00122379        0.00033168        0.00109672        0.00035068
     246         -0.407442        1.000000        0.00382921        0.00167088        0.00157631        0.00474494
     247         -0.404126        1.000000        0.00039112        0.00013124        0.00056735        0.00006957
     248         -0.403927        1.000000        0.00552563        0.00212417        0.00159358        0.00622134
     249         -0.403650        1.000000        0.02965465        0.00803051        0.01615447        0.00846996
     250         -0.403272        1.000000        0.08269985        0.02243916        0.04137591        0.01968964
     251         -0.403068        1.000000        0.00736117        0.00185445        0.00408239        0.00167063
     252         -0.401724        1.000000        0.00052727        0.00011632        0.00007287        0.00256138
     253         -0.401110        1.000000        0.00037831        0.00024049        0.00023399        0.00004134
     254         -0.400991        1.000000        0.00132385        0.00039548        0.00072559        0.00186021
     255         -0.399087        1.000000        0.02719711        0.00895084        0.01898589        0.00907547
     256         -0.398472        1.000000        0.00052637        0.00008118        0.00057172        0.00034215
     257         -0.397630        1.000000        0.05535236        0.02102394        0.02151799        0.01421410
     258         -0.397100        1.000000        0.05970016        0.02280531        0.01802431        0.01368496
     259         -0.396170        1.000000        0.00383337        0.00134496        0.00179305        0.00134842