     100
 i =        1, E =      -575.3414922041
  I        12.0398238981       12.4241482769        8.7354312941
  I        18.3381291208       12.4399201866        8.7273227139
  I        12.0432584388       18.6662703835        8.7336922521
  I        18.3382527487       18.6498852011        8.7278978884
  I        12.1549264918        9.3147778665       12.1496644149
  I        18.4392842587        9.3107586532       12.1523889365
  I         9.1382980843       12.4270705824       11.6116454089
  I        12.1963430790       12.4348064942       15.0636789416
  I        12.1515655407       15.5427473063       12.1543814635
  I        15.4088369933       12.4262635996       11.6178161970
  I        18.4764090337       12.4321102921       15.0654149594
  I        18.4321726070       15.5439470984       12.1586928007
  I        21.6934833074       12.4277712277       11.6297037122
  I         9.1359291414       18.6671747201       11.6143246529
  I        12.1958674125       18.6534278281       15.0672802260
  I        12.1501861001       21.7780643774       12.1484421057
  I        15.4077519096       18.6632876844       11.6160143506
  I        18.4767389688       18.6581289460       15.0680631618
  I        18.4404152249       21.7816270326       12.1526686212
  I        21.6975023332       18.6635947926       11.6291628007
  I        12.3022772397        9.3051282034       18.5079929969
  I        18.5886173053        9.2999607725       18.4998791732
  I         9.2814369758       12.4284503919       17.9781860248
  I        12.3528161945       12.4171441348       21.4027988377
  I        12.2985021950       15.5469787860       18.5096991253
  I        15.5650207863       12.4309287207       17.9687398391
  I        18.6353036270       12.4395001002       21.4100423467
  I        18.5817377401       15.5467397078       18.5011968478
  I        21.8528070099       12.4347599014       17.9704896786
  I         9.2848529348       18.6610405690       17.9777228242
  I        12.3531299336       18.6727413176       21.4009627018
  I        12.3034826779       21.7831490800       18.5070122789
  I        15.5641845019       18.6591854699       17.9697711331
  I        18.6348393188       18.6508708244       21.4084400650
  I        18.5885826807       21.7886927872       18.4993490712
  I        21.8498624849       18.6554614314       17.9706985605
 Pb        12.2828766393       12.3569924629       11.8502742038
 Pb        18.6925036137       12.3436066943       11.8329206681
 Pb        12.2855559050       18.7301233013       11.8497116393
 Pb        18.6905293320       18.7451312104       11.8321348278
 Pb        12.4294153100       12.3606951830       18.3121461745
 Pb        18.8353649920       12.3536509594       18.3243983685
 Pb        12.4266404477       18.7310782492       18.3135705601
 Pb        18.8361844869       18.7359458351       18.3250584829
  C        15.0412970038       15.5451226636        8.5569478439
  C        15.1840195792        9.2923049498       14.9071747342
  C         8.8864844993       15.5451229913       14.9092126429
  C        15.1848004125       15.5450678051       14.9111767647
  C        21.4849474534       15.5450087215       14.9119220883
  C        15.1839320548       21.7978361885       14.9072125824
  C        15.3441690379       15.5450527490       21.2816089919
  N        16.4518762903       15.5450557686        9.1735457298
  N        16.5894809768        9.2898427282       15.5347803028
  N        10.2939255587       15.5451396663       15.5273221504
  N        16.5916716863       15.5451332146       15.5281376777
  N        22.8963792299       15.5451420057       15.5367852042
  N        16.5894157370       21.8001902890       15.5345618560
  N        16.7580663966       15.5452553542       21.8931646643
  H        15.1419619643       15.5452176503        7.4962606348
  H        14.5201991038       16.4188611324        8.8769402850
  H        14.5203245535       14.6714019436        8.8770692834
  H        16.9769736768       16.4054496991        8.8829506807
  H        16.9772027711       14.6849201369        8.8828492045
  H        16.3936923578       15.5451592804       10.2121653483
  H        15.2867071743        9.3012474718       13.8463340361
  H        14.6728879284       10.1690917435       15.2344798798
  H        14.6665358482        8.4214016609       15.2363235831
  H        17.1264650596       10.1399381068       15.2362522130
  H        17.1307438249        8.4598946946       15.2267944702
  H        16.5490546132        9.3042198525       16.5783053559
  H         8.9936469790       15.5449234423       13.8488113078
  H         8.3785661745       16.4236304868       15.2369205152
  H         8.3785597355       14.6666023062       15.2368473546
  H        10.8225861067       16.3998417349       15.2347356375
  H        10.8225114371       14.6905876172       15.2346156659
  H        10.2397558876       15.5451395700       16.5685963957
  H        15.2877739853       15.5450645594       13.8519100614
  H        14.6747778422       16.4231040056       15.2340572631
  H        14.6748210330       14.6670023285       15.2340587810
  H        17.1246450097       16.3982764822       15.2364034725
  H        17.1247235955       14.6920078353       15.2364108897
  H        16.5427502753       15.5449539970       16.5691573181
  H        21.5821764458       15.5452292492       13.8500942584
  H        20.9749766048       16.4245289902       15.2355552080
  H        20.9750245340       14.6655280858       15.2356496193
  H        23.4133706938       16.3959217563       15.2325431520
  H        23.4134220645       14.6943985014       15.2325954849
  H        22.8173468007       15.5450409079       16.5782294155
  H        15.2871734727       21.7889736315       13.8464473821
  H        14.6663860651       22.6686706324       15.2365068924
  H        14.6727771704       20.9210695478       15.2346361156
  H        17.1305541267       22.6303596987       15.2270485480
  H        17.1268000542       20.9501644983       15.2364212954
  H        16.5491426767       21.7861187237       16.5781345460
  H        15.4421056349       15.5450584718       20.2209140936
  H        14.8232066440       16.4238150769       21.5866808985
  H        14.8231459856       14.6663449077       21.5866126163
  H        17.2820148239       16.4047771637       21.5891628341
  H        17.2816864665       14.6856923999       21.5891725644
  H        16.6874407281       15.5450720270       22.9288310579
     100
 i =        2, E =      -575.3570147043
  I        12.0399516616       12.4286181699        8.7601014050
  I        18.3312844446       12.4631180872        8.7451991193
  I        12.0448979637       18.6624250252        8.7573514999
  I        18.3308551326       18.6262238821        8.7448660002
  I        12.1670800817        9.3216511898       12.1407666498
  I        18.4369481520        9.3134899835       12.1472292545
  I         9.1478888816       12.4333027842       11.6147825978
  I        12.1968609919       12.4579248879       15.0641684493
  I        12.1684946675       15.5383012363       12.1525109603
  I        15.3864735428       12.4357834828       11.6241526600
  I        18.4528781387       12.4444304745       15.0651249280
  I        18.4224916403       15.5425234663       12.1627730377
  I        21.6930455140       12.4375524129       11.6499246312
  I         9.1443499130       18.6621838884       11.6172651104
  I        12.1985416931       18.6265260470       15.0694033575
  I        12.1617332453       21.7726234550       12.1382964669
  I        15.3888177084       18.6521766480       11.6196407870
  I        18.4521025201       18.6453842695       15.0735166792
  I        18.4395366459       21.7798440654       12.1483393441
  I        21.6992308451       18.6549049877       11.6485272921
  I        12.3164033957        9.2968955971       18.4959343582
  I        18.5876070631        9.2907174925       18.4813310598
  I         9.2896501816       12.4403065481       17.9837193391
  I        12.3600302474       12.4173775435       21.3911414639
  I        12.3130852714       15.5471945229       18.5058685239
  I        15.5480862576       12.4449531684       17.9623087271
  I        18.6256812600       12.4693316332       21.4069441660
  I        18.5732701360       15.5526932757       18.4851742627
  I        21.8504844802       12.4549842543       17.9658299376
  I         9.2966045823       18.6483839510       17.9836141052
  I        12.3625681109       18.6737263342       21.3887178226
  I        12.3197027628       21.7895295796       18.4955897865
  I        15.5515389223       18.6430373634       17.9651737680
  I        18.6244024850       18.6230010409       21.4018577735
  I        18.5889582333       21.7955781135       18.4803317652
  I        21.8436310629       18.6364227066       17.9669678354
 Pb        12.2355185524       12.2997603055       11.8022498635
 Pb        18.7531219518       12.2794451569       11.7726978526
 Pb        12.2327074591       18.7917282518       11.8052432979
 Pb        18.7508206307       18.8101424103       11.7705860649
 Pb        12.3817088475       12.3039750129       18.3715735269
 Pb        18.8908225315       12.2859854498       18.3935423090
 Pb        12.3695481099       18.7922267506       18.3715001692
 Pb        18.8879627150       18.7982697212       18.3971126398
  C        14.9984198086       15.5450463730        8.5324947932
  C        15.1501784192        9.2927439325       14.8944448173
  C         8.8512472004       15.5451521737       14.8887774556
  C        15.1549482233       15.5451651580       14.8913849532
  C        21.4418354185       15.5451615526       14.8875554371
  C        15.1505654065       21.7971872067       14.8944169785
  C        15.3077759690       15.5453053441       21.2516661848
  N        16.4315465178       15.5452193418        9.1736795620
  N        16.5927120327        9.2988697675       15.5224002688
  N        10.2834592529       15.5450793168       15.5248237215
  N        16.5874993278       15.5449438233       15.5254225265
  N        22.8851777307       15.5451359435       15.5329435951
  N        16.5928470910       21.7913692014       15.5226779344
  N        16.7468252231       15.5450625751       21.8912861824
  H        15.1411054232       15.5451683434        7.4858807475
  H        14.5209464136       16.4233166731        8.8807487014
  H        14.5209438330       14.6667671185        8.8807677276
  H        16.9928018495       16.3919122676        8.8976870353
  H        16.9925435641       14.6983706363        8.8976828771
  H        16.4167424497       15.5449521157       10.2119277870
  H        15.2823988029        9.3005699493       13.8447366290
  H        14.6656951816       10.1705551797       15.2330007878
  H        14.6524628369        8.4224895855       15.2292045094
  H        17.1426384964       10.1491221493       15.2401116191
  H        17.1444570300        8.4698143039       15.2373227163
  H        16.5674138338        9.2991335509       16.5698828000
  H         8.9842204300       15.5448013978       13.8399964935
  H         8.3711492395       16.4229222244       15.2342328042
  H         8.3711472573       14.6673814637       15.2341838015
  H        10.8324195427       16.3926403880       15.2401497313
  H        10.8321748691       14.6976482489       15.2399158731
  H        10.2463936022       15.5451611585       16.5664608605
  H        15.2805181052       15.5449548544       13.8439890499
  H        14.6704097978       16.4207749163       15.2331232356
  H        14.6707885605       14.6694059956       15.2331467210
  H        17.1383767223       16.3929479760       15.2418288681
  H        17.1385610001       14.6971379984       15.2415856736
  H        16.5547106182       15.5448608891       16.5672719851
  H        21.5811441662       15.5451081445       13.8384560467
  H        20.9736941012       16.4290951118       15.2393228293
  H        20.9739353051       14.6610183030       15.2393219513
  H        23.4249585231       16.3852575866       15.2499935745
  H        23.4250252959       14.7049267867       15.2501911333
  H        22.8198094656       15.5447228321       16.5743478815
  H        15.2822383408       21.7897350674       13.8447127706
  H        14.6523466224       22.6671556320       15.2294439632
  H        14.6653985702       20.9198943505       15.2332561577
  H        17.1443090297       22.6204459538       15.2369923830
  H        17.1426212309       20.9411108851       15.2400940041
  H        16.5669036885       21.7909204559       16.5700787321
  H        15.4437723053       15.5451277222       20.2046274918
  H        14.8297037103       16.4253268605       21.5959680560
  H        14.8302664298       14.6651417636       21.5961138817
  H        17.3018028911       16.3945315844       21.6020837218
  H        17.3014586017       14.6957883918       21.6020317108
  H        16.7200217577       15.5452032772       22.9245016372
     100
 i =        3, E =      -575.3645939660
  I        12.0478721150       12.4316847363        8.7654680544
  I        18.3246426455       12.4817095569        8.7487456679
  I        12.0520560395       18.6595961186        8.7617359258
  I        18.3251359231       18.6072520374        8.7483751538
  I        12.1783284775        9.3114637533       12.1322486978
  I        18.4344358418        9.3015068613       12.1402198914
  I         9.1437258622       12.4407382936       11.6257021326
  I        12.1957011703       12.4789139704       15.0649816845
  I        12.1817775973       15.5344693123       12.1495356404
  I        15.3648099110       12.4462957151       11.6296477542
  I        18.4290787268       12.4535354054       15.0676117645
  I        18.4094832711       15.5445120732       12.1631892570
  I        21.7159210881       12.4463322970       11.6681682969
  I         9.1381550059       18.6553143564       11.6276761612
  I        12.2037772404       18.6010260866       15.0712725207
  I        12.1728473994       21.7865787405       12.1291064735
  I        15.3708723600       18.6413574711       11.6276958614
  I        18.4284131928       18.6364852664       15.0776862165
  I        18.4379104322       21.7901577701       12.1427226599
  I        21.7185783775       18.6466516468       11.6671532917
  I        12.3320575809        9.2788120876       18.4803046666
  I        18.5863006798        9.2701465090       18.4635946994
  I         9.2953504146       12.4533975488       17.9874509048
  I        12.3664086138       12.4219984111       21.3956157923
  I        12.3271592232       15.5449484288       18.5029925963
  I        15.5258541025       12.4557233494       17.9532164828
  I        18.6187280222       12.4969021015       21.4181755046
  I        18.5660899679       15.5583021884       18.4684427745
  I        21.8618953816       12.4726556205       17.9618727253
  I         9.3003835030       18.6353416506       17.9903605525
  I        12.3700242385       18.6684206724       21.3914197474
  I        12.3360235678       21.8098420599       18.4797015732
  I        15.5347367326       18.6291006479       17.9575978408
  I        18.6170143375       18.5978486457       21.4118852040
  I        18.5897520558       21.8112095122       18.4616504727
  I        21.8500224460       18.6198975316       17.9636912368
 Pb        12.2054398151       12.2717440157       11.7783232038
 Pb        18.7852198039       12.2478551881       11.7446559688
 Pb        12.2016738715       18.8213253808       11.7810602732
 Pb        18.7844281368       18.8409641794       11.7373385052
 Pb        12.3518839860       12.2681468118       18.4066389491
 Pb        18.9228993586       12.2514491261       18.4342965290
 Pb        12.3355853729       18.8331640766       18.4065355816
 Pb        18.9151885142       18.8310302720       18.4414054541
  C        15.0212391625       15.5451347220        8.5474502866
  C        15.1541734480        9.2972173573       14.8916518507
  C         8.8531727620       15.5451032694       14.8910447634
  C        15.1582365015       15.5449866377       14.8933308127
  C        21.4478696740       15.5451027617       14.8902584971
  C        15.1539429016       21.7928984122       14.8917010132
  C        15.3269334490       15.5452290935       21.2598985672
  N        16.4688271059       15.5449866254        9.1854673434
  N        16.6075040013        9.2996048506       15.5307318869
  N        10.2970776992       15.5449453472       15.5277296376
  N        16.6025864387       15.5448749160       15.5283241215
  N        22.9046458413       15.5450581251       15.5434996394
  N        16.6072435574       21.7905441228       15.5306267528
  N        16.7815464744       15.5452544280       21.8980560924
  H        15.1225117150       15.5451483269        7.4928438674
  H        14.5077369588       16.4159574917        8.8677641996
  H        14.5078804371       14.6742405853        8.8676624798
  H        16.9958173045       16.4077133022        8.8930224461
  H        16.9957675269       14.6825239108        8.8927305844
  H        16.4035353066       15.5451326529       10.2235138955
  H        15.2683883049        9.3016087257       13.8372768351
  H        14.6534986008       10.1708433995       15.2275751515
  H        14.6427814860        8.4282267239       15.2230593022
  H        17.1390391515       10.1589035264       15.2346370939
  H        17.1501946258        8.4703720206       15.2272033712
  H        16.5742351160        9.3026681006       16.5767190715
  H         8.9684416500       15.5448164305       13.8367524814
  H         8.3548707022       16.4206161017       15.2235341175
  H         8.3548205221       14.6696952551       15.2237057284
  H        10.8331670301       16.3989937679       15.2366490250
  H        10.8327787002       14.6908416389       15.2364159751
  H        10.2376437549       15.5449887893       16.5681546828
  H        15.2687614625       15.5450708421       13.8403808854
  H        14.6592562570       16.4194391600       15.2252747588
  H        14.6595288041       14.6706019539       15.2255185982
  H        17.1407766786       16.3989093334       15.2378561218
  H        17.1409757951       14.6911106957       15.2374243460
  H        16.5531383734       15.5447399490       16.5690781313
  H        21.5627566794       15.5450807207       13.8353022868
  H        20.9584635292       16.4247451471       15.2283170271
  H        20.9586883945       14.6653069555       15.2283504508
  H        23.4261416569       16.3934392173       15.2507162066
  H        23.4261088066       14.6965796799       15.2507552361
  H        22.8032839939       15.5445763562       16.5826998740
  H        15.2683014803       21.7885187962       13.8373455450
  H        14.6425860565       22.6618079241       15.2234560590
  H        14.6534807241       20.9192345858       15.2278480923
  H        17.1500813190       22.6197199845       15.2271970964
  H        17.1389300999       20.9311877288       15.2350685853
  H        16.5735864933       21.7872633773       16.5765640865
  H        15.4293985191       15.5453699819       20.2056721222
  H        14.8216267325       16.4199789001       21.5839782836
  H        14.8222412947       14.6705371642       21.5844779434
  H        17.3075999402       16.4077986515       21.5939751819
  H        17.3071293957       14.6825018146       21.5942181297
  H        16.7149123405       15.5451737281       22.9306227716
     100
 i =        4, E =      -575.3694553466
  I        12.0610899900       12.4340121397        8.7537548558
  I        18.3194416708       12.4931373270        8.7387837539
  I        12.0626265084       18.6573055502        8.7486735086
  I        18.3216317422       18.5954518767        8.7364408667
  I        12.1888005466        9.2930170272       12.1249636880
  I        18.4329568452        9.2820608495       12.1320483879
  I         9.1303933152       12.4496180325       11.6426074858
  I        12.1953450019       12.4962414436       15.0620157853
  I        12.1876478415       15.5317423403       12.1464557674
  I        15.3465322336       12.4562418700       11.6346164818
  I        18.4058765190       12.4579224854       15.0716628547
  I        18.3990777007       15.5481662203       12.1647805800
  I        21.7483853482       12.4535904304       11.6837095197
  I         9.1218206569       18.6464067570       11.6432695422
  I        12.2104602126       18.5810957291       15.0712700258
  I        12.1830956265       21.8093270055       12.1221949415
  I        15.3540253937       18.6306248943       11.6384839833
  I        18.4066311247       18.6327711416       15.0808506467
  I        18.4370194055       21.8073313987       12.1361652866
  I        21.7478019988       18.6393365263       11.6836271916
  I        12.3475987873        9.2584162619       18.4617816177
  I        18.5876275008        9.2478820105       18.4514578590
  I         9.3000537132       12.4665547501       17.9921044381
  I        12.3725029371       12.4302316130       21.4115208963
  I        12.3391123323       15.5416699158       18.5021415588
  I        15.5034899289       12.4643044635       17.9433524889
  I        18.6152182840       12.5156532832       21.4398285704
  I        18.5599843085       15.5613240372       18.4521447314
  I        21.8800294357       12.4865664592       17.9597758687
  I         9.2966373233       18.6227411086       17.9971272206
  I        12.3757854811       18.6580266005       21.4067130511
  I        12.3515413068       21.8366996057       18.4600897661
  I        15.5158259259       18.6180591131       17.9486441052
  I        18.6131942108       18.5819661154       21.4373170776
  I        18.5928184939       21.8306075007       18.4486862851
  I        21.8654138253       18.6071850272       17.9618067477
 Pb        12.1917570336       12.2635833999       11.7765354025
 Pb        18.7969886150       12.2405880651       11.7450069339
 Pb        12.1916683277       18.8296318616       11.7759345769
 Pb        18.7963872446       18.8472426696       11.7329519838
 Pb        12.3358717357       12.2464958782       18.4216452589
 Pb        18.9362536135       12.2433350797       18.4482571574
 Pb        12.3238821573       18.8573511816       18.4213861228
 Pb        18.9235133745       18.8368637870       18.4559075483
  C        15.0107712067       15.5451163936        8.5418722519
  C        15.1544657916        9.2985980648       14.8910530019
  C         8.8496783102       15.5450897719       14.8889077535
  C        15.1589806417       15.5447863067       14.8943936506
  C        21.4484358633       15.5449831729       14.8910291822
  C        15.1541628430       21.7916097667       14.8912283875
  C        15.3289226775       15.5452552322       21.2633639611
  N        16.4561938048       15.5450576977        9.1772428018
  N        16.6079702786        9.3021370360       15.5309502814
  N        10.2923203665       15.5447300367       15.5249100828
  N        16.6036383553       15.5448705973       15.5251367812
  N        22.9045665139       15.5449716373       15.5486138261
  N        16.6077203677       21.7878275343       15.5308449339
  N        16.7844550623       15.5453946402       21.8954043749
  H        15.1262575524       15.5452409981        7.4844582010
  H        14.5091527473       16.4238434296        8.8734519550
  H        14.5092495069       14.6664303621        8.8733176521
  H        16.9974989773       16.4022298119        8.9016133688
  H        16.9975249172       14.6882759738        8.9012977225
  H        16.4049075623       15.5452100812       10.2158056697
  H        15.2675875537        9.3063898626       13.8322428756
  H        14.6503205331       10.1762661731       15.2248122837
  H        14.6419311866        8.4270069375       15.2252596525
  H        17.1339779944       10.1635845349       15.2328622927
  H        17.1515071668        8.4767123376       15.2170586927
  H        16.5805015537        9.3081046606       16.5753201789
  H         8.9665063866       15.5447357895       13.8305157979
  H         8.3475409369       16.4237369662       15.2207476270
  H         8.3475206419       14.6665223447       15.2210235752
  H        10.8295715872       16.3984177128       15.2367469340
  H        10.8287796701       14.6903918184       15.2365673221
  H        10.2325853619       15.5445959868       16.5642954524
  H        15.2688366635       15.5450967481       13.8368845456
  H        14.6549320415       16.4223348071       15.2228396200
  H        14.6548464519       14.6674073335       15.2230648041
  H        17.1384791301       16.4001051771       15.2357891043
  H        17.1385751726       14.6899236855       15.2351889709
  H        16.5533692007       15.5446442019       16.5649935201
  H        21.5605111221       15.5450904153       13.8311675688
  H        20.9480834151       16.4255102065       15.2235809067
  H        20.9482284532       14.6644418093       15.2236741418
  H        23.4239798604       16.3945807555       15.2527694267
  H        23.4237902198       14.6952648460       15.2526013759
  H        22.7961208408       15.5444064882       16.5857044978
  H        15.2673675478       21.7836411482       13.8324048058
  H        14.6416017044       22.6631626032       15.2255508623
  H        14.6504343172       20.9137039685       15.2249748278
  H        17.1513436561       22.6133156663       15.2172487491
  H        17.1337818578       20.9260851085       15.2333862618
  H        16.5796214514       21.7818833554       16.5751296892
  H        15.4316361647       15.5454099619       20.2041261728
  H        14.8225766575       16.4260788231       21.5809796333
  H        14.8230983005       14.6644448136       21.5814274417
  H        17.3117641054       16.4054763518       21.5921332319
  H        17.3112791535       14.6846248668       21.5926206391
  H        16.7146393217       15.5452450720       22.9280204577
     100
 i =        5, E =      -575.3754133504
  I        12.1000170410       12.4398362951        8.7258712676
  I        18.3076612374       12.5249854512        8.7188864446
  I        12.0941998410       18.6523851584        8.7143023589
  I        18.3116331479       18.5632570416        8.7061740695
  I        12.2189163417        9.2504220601       12.1023488744
  I        18.4301650977        9.2330983922       12.1064859215
  I         9.0957809159       12.4753488373       11.6960384654
  I        12.1946360505       12.5460079638       15.0470761468
  I        12.2016905613       15.5255390902       12.1362300482
  I        15.2955623006       12.4829024185       11.6522155742
  I        18.3383400208       12.4658784998       15.0826732819
  I        18.3698520276       15.5599957481       12.1660970578
  I        21.8258454181       12.4735620334       11.7306854822
  I         9.0795865702       18.6200801682       11.6912676265
  I        12.2313874812       18.5252147457       15.0687942964
  I        12.2125609614       21.8616020634       12.1008256489
  I        15.3103340556       18.5958762217       11.6682635402
  I        18.3426282709       18.6284148035       15.0884281945
  I        18.4359480664       21.8499393440       12.1151205113
  I        21.8185705684       18.6182548145       11.7330158178
  I        12.3932538952        9.2048290114       18.4045662490
  I        18.5956401492        9.2003133060       18.4200580089
  I         9.3121086360       12.5045841331       18.0085586690
  I        12.3906830024       12.4554464897       21.4531870942
  I        12.3719424723       15.5345717953       18.4998329020
  I        15.4424501074       12.4869454284       17.9166036062
  I        18.6088483318       12.5621147592       21.4930504290
  I        18.5411590036       15.5643691519       18.4046564074
  I        21.9242117655       12.5257419520       17.9561939596
  I         9.2875507483       18.5860159119       18.0182809537
  I        12.3933174388       18.6275702541       21.4488468947
  I        12.3974194600       21.9041951510       18.4002561264
  I        15.4574998759       18.5867754715       17.9238064266
  I        18.6047846878       18.5425882885       21.5053108719
  I        18.6037303572       21.8765638822       18.4147724893
  I        21.9045617260       18.5706788349       17.9577787640
 Pb        12.1529279229       12.2360200501       11.7675010565
 Pb        18.8406506712       12.2205548013       11.7458471824
 Pb        12.1559229727       18.8619863678       11.7604385382
 Pb        18.8421232741       18.8657165634       11.7266500395
 Pb        12.2962618960       12.1836634918       18.4699251315
 Pb        18.9743414828       12.2211468748       18.4895147470
 Pb        12.2939536910       18.9289323559       18.4636294811
 Pb        18.9540858160       18.8525842280       18.4994842068
  C        15.0254486193       15.5452965890        8.5429744492
  C        15.1474022531        9.3053482559       14.8898255482
  C         8.8357348601       15.5449637885       14.8773059154
  C        15.1515451929       15.5445990877       14.8845801462
  C        21.4259262538       15.5449902179       14.8806038755
  C        15.1471736941       21.7846684035       14.8898724442
  C        15.3288401328       15.5454112029       21.2532494760
  N        16.4559412081       15.5452278584        9.1876908785
  N        16.6039888316        9.3179805945       15.5164929955
  N        10.2683947079       15.5440820793       15.5195034628
  N        16.5883297655       15.5448538091       15.5167554932
  N        22.8763431408       15.5445593626       15.5510250828
  N        16.6036642466       21.7715890145       15.5167484546