# Projected DOS for atomic kind Pb at iteration step i = 0, E(Fermi) =    -0.172076 a.u.
#     MO Eigenvalue [a.u.]      Occupation                 s                py                pz                px
       1         -0.952917        1.000000        0.00000006        0.00000013        0.00000074        0.00000009
       2         -0.945306        1.000000        0.00000041        0.00000303        0.00000698        0.00000353
       3         -0.942427        1.000000        0.00000021        0.00000088        0.00000128        0.00000056
       4         -0.940424        1.000000        0.00000063        0.00000725        0.00000575        0.00000603
       5         -0.936657        1.000000        0.00000063        0.00000659        0.00000722        0.00000364
       6         -0.936357        1.000000        0.00000047        0.00000255        0.00000351        0.00000487
       7         -0.926085        1.000000        0.00000116        0.00001520        0.00001021        0.00000968
       8         -0.693812        1.000000        0.00000321        0.00000211        0.00000538        0.00000016
       9         -0.690003        1.000000        0.00001608        0.00001377        0.00001450        0.00000797
      10         -0.684866        1.000000        0.00003327        0.00002295        0.00003226        0.00001149
      11         -0.683701        1.000000        0.00002430        0.00002991        0.00003801        0.00002333
      12         -0.683458        1.000000        0.00008481        0.00008381        0.00004665        0.00006171
      13         -0.680384        1.000000        0.00004101        0.00003748        0.00005461        0.00003597
      14         -0.671851        1.000000        0.00006852        0.00005107        0.00004000        0.00001953
      15         -0.640367        1.000000        0.00171104        0.00027921        0.00206616        0.00047820
      16         -0.631081        1.000000        0.01278604        0.00034483        0.00628116        0.00080886
      17         -0.622812        1.000000        0.02272288        0.00745957        0.00040807        0.00843866
      18         -0.619688        1.000000        0.00153492        0.00563971        0.00005269        0.00010566
      19         -0.615426        1.000000        0.03865343        0.01114832        0.00069644        0.00074580
      20         -0.603535        1.000000        0.04518402        0.00223426        0.00334447        0.00843525
      21         -0.597806        1.000000        0.11713103        0.00803168        0.00042031        0.00131425
      22         -0.594683        1.000000        0.10246171        0.00344921        0.00127481        0.01324292
      23         -0.594373        1.000000        0.09330247        0.00374251        0.00133362        0.00994997
      24         -0.593211        1.000000        0.07972760        0.00446858        0.00169968        0.01254822
      25         -0.591256        1.000000        0.02289590        0.01175940        0.00085710        0.00408581
      26         -0.588245        1.000000        0.02399342        0.00513022        0.00480048        0.00378966
      27         -0.587614        1.000000        0.05997693        0.00484656        0.00297341        0.00286949
      28         -0.586130        1.000000        0.04342730        0.00478092        0.00130146        0.01296456
      29         -0.583927        1.000000        0.03158729        0.02147237        0.00091581        0.00326055
      30         -0.583167        1.000000        0.00555213        0.00144907        0.00398657        0.00326828
      31         -0.582585        1.000000        0.02692894        0.00698939        0.00702757        0.00724955
      32         -0.582336        1.000000        0.00869914        0.00640863        0.00154568        0.00151142
      33         -0.580369        1.000000        0.02185154        0.00362150        0.02486066        0.00489401
      34         -0.580076        1.000000        0.01761697        0.00535175        0.02522706        0.00347964
      35         -0.578438        1.000000        0.01305839        0.00833031        0.00395218        0.00213766
      36         -0.577986        1.000000        0.02851159        0.00765767        0.00882317        0.00918898
      37         -0.577674        1.000000        0.00514440        0.00571916        0.00200100        0.00156908
      38         -0.576142        1.000000        0.00921807        0.00539827        0.01526199        0.00550817
      39         -0.575208        1.000000        0.02824250        0.00561221        0.02280410        0.00372742
      40         -0.574826        1.000000        0.00386550        0.01902594        0.01175136        0.00446344
      41         -0.574316        1.000000        0.01454756        0.00253583        0.01790394        0.00352702
      42         -0.573214        1.000000        0.00214244        0.00650322        0.00149026        0.01201945
      43         -0.572804        1.000000        0.00023916        0.01474885        0.02574115        0.00646884
      44         -0.571373        1.000000        0.00212615        0.01825617        0.00525710        0.00358099
      45         -0.570793        1.000000        0.07732492        0.00681625        0.01161399        0.00278595
      46         -0.570480        1.000000        0.01052693        0.00176138        0.01091698        0.00250145
      47         -0.569815        1.000000        0.04259121        0.00606786        0.01623240        0.00303159
      48         -0.568011        1.000000        0.00108540        0.00076010        0.00125060        0.00081702
      49         -0.566928        1.000000        0.01381154        0.00061162        0.01223644        0.02558941
      50         -0.564172        1.000000        0.00081409        0.00280118        0.00158062        0.00672165
      51         -0.562723        1.000000        0.00594568        0.00154346        0.00231431        0.00017512
      52         -0.561040        1.000000        0.00376570        0.02036614        0.01625970        0.00036846
      53         -0.560387        1.000000        0.00638963        0.00985083        0.00557296        0.00038941
      54         -0.559965        1.000000        0.00713224        0.00700792        0.00190370        0.00046402
      55         -0.559375        1.000000        0.00089781        0.00226216        0.00257906        0.00130960
      56         -0.557587        1.000000        0.00492795        0.00024454        0.00170260        0.00570262
      57         -0.556618        1.000000        0.00092003        0.00730288        0.00444429        0.00089757
      58         -0.554432        1.000000        0.02719965        0.02344720        0.00197800        0.00045176
      59         -0.551156        1.000000        0.02611315        0.00290381        0.00061437        0.00062519
      60         -0.545924        1.000000        0.00288428        0.00096929        0.00644865        0.00021345
      61         -0.544889        1.000000        0.01168584        0.00239078        0.00396886        0.00694622
      62         -0.541933        1.000000        0.00196013        0.00011900        0.01353953        0.00449413
      63         -0.538446        1.000000        0.00038763        0.00448313        0.00137103        0.00016505
      64         -0.538041        1.000000        0.00902646        0.00115003        0.00759837        0.00016694
      65         -0.473952        1.000000        0.00277404        0.00002435        0.00010053        0.00001030
      66         -0.469955        1.000000        0.01218722        0.00005716        0.00009673        0.00004526
      67         -0.465113        1.000000        0.57278651        0.00008344        0.00180282        0.00013328
      68         -0.464752        1.000000        0.15878029        0.00005414        0.00030719        0.00004292
      69         -0.464189        1.000000        0.06744356        0.00017708        0.00009924        0.00003208
      70         -0.463813        1.000000        0.01176692        0.00003906        0.00003177        0.00003196
      71         -0.461699        1.000000        0.32145275        0.00041647        0.00028711        0.00024786
      72         -0.460866        1.000000        0.58803399        0.00093504        0.00052117        0.00063218
      73         -0.459447        1.000000        0.39476463        0.00045665        0.00022399        0.00033188
      74         -0.458485        1.000000        0.73877774        0.00001648        0.00118031        0.00013670
      75         -0.454241        1.000000        0.59658658        0.00094393        0.00052054        0.00069161
      76         -0.451608        1.000000        0.11046456        0.00013039        0.00015153        0.00023510
      77         -0.450243        1.000000        0.71491786        0.00166216        0.00098062        0.00072201
      78         -0.443152        1.000000        0.70989055        0.00044364        0.00039099        0.00043924
      79         -0.439586        1.000000        0.75001909        0.00047890        0.00022727        0.00078616
      80         -0.410742        1.000000        0.00053677        0.00000285        0.00008006        0.00000615
      81         -0.409900        1.000000        0.00005535        0.00001038        0.00000932        0.00000219
      82         -0.407699        1.000000        0.00071148        0.00007864        0.00001394        0.00009557
      83         -0.406292        1.000000        0.00117628        0.00004863        0.00007392        0.00010756
      84         -0.402421        1.000000        0.00034156        0.00015394        0.00024528        0.00004022
      85         -0.401822        1.000000        0.00026967        0.00008715        0.00015065        0.00001446
      86         -0.400759        1.000000        0.00013077        0.00004380        0.00008744        0.00004830
      87         -0.400112        1.000000        0.00040724        0.00020331        0.00004299        0.00009549
      88         -0.398917        1.000000        0.00093848        0.00043094        0.00028208        0.00020643
      89         -0.398314        1.000000        0.00046351        0.00015808        0.00015769        0.00008791
      90         -0.398197        1.000000        0.00055360        0.00013305        0.00012448        0.00014211
      91         -0.395468        1.000000        0.00087968        0.00005569        0.00027792        0.00026587
      92         -0.390102        1.000000        0.00006614        0.00001286        0.00003578        0.00001045
      93         -0.386861        1.000000        0.00017289        0.00005442        0.00014314        0.00003536
      94         -0.323842        1.000000        0.00592823        0.00689478        0.00791640        0.00204553
      95         -0.315921        1.000000        0.00416379        0.02314907        0.05187551        0.01789486
      96         -0.305522        1.000000        0.00104068        0.00851544        0.00863566        0.00270646
      97         -0.303267        1.000000        0.00924374        0.05931240        0.00820273        0.01636087
      98         -0.299332        1.000000        0.00541926        0.10440078        0.00525740        0.02770769
      99         -0.276639        1.000000        0.00605994        0.08812840        0.08215786        0.03581133
     100         -0.273909        1.000000        0.00407856        0.11976954        0.04889903        0.02737340
     101         -0.273376        1.000000        0.00563191        0.05302642        0.03723515        0.02850312
     102         -0.269728        1.000000        0.00231950        0.07168828        0.08784254        0.08278617
     103         -0.268748        1.000000        0.00217682        0.08673372        0.06743078        0.01987642
     104         -0.266653        1.000000        0.00428153        0.05637460        0.09947402        0.05157627
     105         -0.265242        1.000000        0.00220600        0.04584621        0.02643611        0.10668582
     106         -0.264938        1.000000        0.00092618        0.01680119        0.04322027        0.18493221
     107         -0.263328        1.000000        0.00130004        0.06394505        0.08427107        0.07110893
     108         -0.260753        1.000000        0.00116022        0.02494633        0.13453527        0.04051149
     109         -0.257656        1.000000        0.00191773        0.06720258        0.07690980        0.05354935
     110         -0.256437        1.000000        0.00043953        0.12251066        0.04174623        0.06722334
     111         -0.256062        1.000000        0.00056004        0.06623213        0.09960711        0.04727723
     112         -0.254499        1.000000        0.00023535        0.03910209        0.09875200        0.05242361
     113         -0.253894        1.000000        0.00171493        0.05836706        0.06896241        0.05430797
     114         -0.252564        1.000000        0.00084408        0.04410781        0.01960595        0.01446783
     115         -0.251026        1.000000        0.00132387        0.03291665        0.12097199        0.03905761
     116         -0.247308        1.000000        0.00417998        0.03798961        0.10021781        0.02205856
     117         -0.245709        1.000000        0.00834727        0.03563297        0.03205114        0.03505566
     118         -0.244702        1.000000        0.00093606        0.04946595        0.06191044        0.04765309
     119         -0.244475        1.000000        0.00285799        0.05714440        0.02354289        0.07731761
     120         -0.243351        1.000000        0.00779710        0.05883952        0.04945635        0.10297677
     121         -0.240288        1.000000        0.00462941        0.05352276        0.07142297        0.02667502
     122         -0.239086        1.000000        0.00068258        0.01026843        0.02660067        0.00886844
     123         -0.237190        1.000000        0.00434870        0.03507070        0.01135192        0.05270277
     124         -0.236269        1.000000        0.00736597        0.04307893        0.02351275        0.06179434
     125         -0.235699        1.000000        0.00070979        0.05099000        0.04059589        0.01399408
     126         -0.234113        1.000000        0.00514352        0.03395398        0.03653048        0.05990490
     127         -0.233480        1.000000        0.00278289        0.02695175        0.02848388        0.07902602
     128         -0.232405        1.000000        0.00688865        0.01349981        0.05231904        0.02067270
     129         -0.229410        1.000000        0.00279110        0.01536778        0.00402908        0.01310454
     130         -0.227762        1.000000        0.00619197        0.03354537        0.01682853        0.03149112
     131         -0.225413        1.000000        0.00676376        0.01711896        0.01410512        0.01541261
     132         -0.224052        1.000000        0.00381550        0.00929636        0.00546811        0.00631640
     133         -0.222361        1.000000        0.00617119        0.00712388        0.03678758        0.01912169
     134         -0.220691        1.000000        0.01185838        0.02371665        0.00443710        0.02591975
     135         -0.219020        1.000000        0.01156372        0.01995075        0.00751177        0.01582679
     136         -0.218327        1.000000        0.00550305        0.01171245        0.01405091        0.01072749
     137         -0.216233        1.000000        0.00930613        0.01775486        0.00970861        0.01526968
     138         -0.215483        1.000000        0.00862853        0.01698014        0.01752946        0.00552836
     139         -0.214605        1.000000        0.00316110        0.00400805        0.00623166        0.00325259
     140         -0.214368        1.000000        0.00198293        0.00230980        0.00380049        0.00408414
     141         -0.213408        1.000000        0.01042959        0.01397363        0.01519466        0.00729950
     142         -0.211776        1.000000        0.00185078        0.00486562        0.00131844        0.00443012
     143         -0.211150        1.000000        0.00271701        0.00689230        0.00284785        0.00406990
     144         -0.210145        1.000000        0.00551266        0.00550496        0.00688174        0.00514905
     145         -0.208580        1.000000        0.00558383        0.01146264        0.00431659        0.00330999
     146         -0.208428        1.000000        0.01425740        0.00653029        0.00556303        0.01194255
     147         -0.207771        1.000000        0.00176400        0.00423236        0.00118907        0.00609594
     148         -0.207417        1.000000        0.00376236        0.00433103        0.00190776        0.00252131
     149         -0.205793        1.000000        0.00308853        0.00203189        0.00273706        0.00722652
     150         -0.205455        1.000000        0.00774694        0.00575405        0.00367049        0.00555069
     151         -0.205045        1.000000        0.00365236        0.00401936        0.00208559        0.00954313
     152         -0.203876        1.000000        0.00652421        0.00785320        0.00351522        0.00750656
     153         -0.203271        1.000000        0.01317824        0.00914623        0.00783081        0.02022147
     154         -0.202405        1.000000        0.00719995        0.00180808        0.00203928        0.00381149
     155         -0.201917        1.000000        0.00294409        0.00231421        0.00302744        0.00612624
     156         -0.201169        1.000000        0.01116306        0.01022478        0.00431356        0.01398476
     157         -0.200652        1.000000        0.00515461        0.00475789        0.00307098        0.00221607
     158         -0.199565        1.000000        0.01059470        0.00477205        0.00225603        0.01245348
     159         -0.198540        1.000000        0.00776669        0.00253808        0.00266323        0.00757320
     160         -0.197965        1.000000        0.00210297        0.00189760        0.00160540        0.00278551
     161         -0.197009        1.000000        0.00327937        0.00277836        0.00102037        0.00487361
     162         -0.196588        1.000000        0.01036013        0.00175625        0.00228330        0.00360848
     163         -0.196292        1.000000        0.00426031        0.00087608        0.00114770        0.00585937
     164         -0.195928        1.000000        0.00787819        0.00235017        0.00180534        0.00588567
     165         -0.195079        1.000000        0.00132290        0.00094858        0.00069429        0.00227390
     166         -0.194734        1.000000        0.00758689        0.00253068        0.00165406        0.00509476
     167         -0.193767        1.000000        0.00935264        0.00378911        0.00272790        0.00220464
     168         -0.193491        1.000000        0.01104933        0.00064221        0.00266358        0.00310250
     169         -0.193360        1.000000        0.00330329        0.00043078        0.00093149        0.00053878
     170         -0.192849        1.000000        0.00781343        0.00151700        0.00277469        0.00194577
     171         -0.191807        1.000000        0.00472794        0.00189402        0.00267469        0.00169830
     172         -0.191160        1.000000        0.00173495        0.00259649        0.00040112        0.00673178
     173         -0.190215        1.000000        0.00304165        0.00506396        0.00230280        0.00558838
     174         -0.190078        1.000000        0.00441381        0.00150709        0.00064213        0.00317059
     175         -0.189443        1.000000        0.00281613        0.00081001        0.00241574        0.00348259
     176         -0.188827        1.000000        0.00721171        0.00207263        0.00119627        0.00401808
     177         -0.188174        1.000000        0.00397694        0.00126527        0.00066460        0.00212940
     178         -0.187747        1.000000        0.00585133        0.00238807        0.00143974        0.00473817
     179         -0.187688        1.000000        0.00311483        0.00087855        0.00084369        0.00172816
     180         -0.187342        1.000000        0.00283740        0.00150933        0.00036391        0.00016966
     181         -0.186851        1.000000        0.00665887        0.00237902        0.00264979        0.00303566
     182         -0.186471        1.000000        0.00477507        0.00108749        0.00130848        0.00411695
     183         -0.186117        1.000000        0.00222850        0.00056817        0.00124930        0.00082758
     184         -0.184686        1.000000        0.00090587        0.00092721        0.00033111        0.00091101
     185         -0.184080        1.000000        0.00634522        0.00214724        0.00054595        0.00685282
     186         -0.183199        1.000000        0.01705205        0.00273247        0.00280103        0.00299813
     187         -0.182472        1.000000        0.01295263        0.00216270        0.00088075        0.00352151
     188         -0.182395        1.000000        0.00102722        0.00015474        0.00023997        0.00211360
     189         -0.181912        1.000000        0.01373300        0.00319492        0.00078247        0.00655937
     190         -0.178395        1.000000        0.00087047        0.00081797        0.00011458        0.00010971
     191         -0.176336        1.000000        0.04342423        0.00824079        0.00149364        0.00397758
     192         -0.174274        1.000000        0.00146364        0.00055791        0.00017772        0.00049642
     193         -0.174212        1.000000        0.00226641        0.00010114        0.00130485        0.00003689
     194         -0.172600        1.000000        0.07695484        0.01010790        0.00232498        0.00422072
     195         -0.172076        1.000000        0.08732060        0.01027853        0.00356862        0.00592537
     196         -0.168825        0.000000        0.11760002        0.00367232        0.00336732        0.00338969
     197         -0.167272        0.000000        0.05114061        0.00077147        0.00194990        0.00954477
     198         -0.160676        0.000000        0.09031270        0.00141146        0.00074525        0.00449283
     199         -0.155514        0.000000        0.00863591        0.01482828        0.00709998        0.00992494
     200         -0.155092        0.000000        0.05811087        0.00515369        0.00123646        0.00140477
     201         -0.129184        0.000000        0.00008409        0.00015179        0.00006801        0.00012984
     202         -0.074147        0.000000        0.00598197        0.14724759        0.09364983        0.49127610
     203         -0.073774        0.000000        0.00019233        0.06026900        0.01010013        0.66429788
     204         -0.072841        0.000000        0.00131212        0.06578540        0.09508972        0.61206947
     205         -0.062705        0.000000        0.00617020        0.21736526        0.13794410        0.36021912
     206         -0.055851        0.000000        0.01185929        0.15024089        0.08620927        0.47417345
     207         -0.052996        0.000000        0.00481744        0.06007061        0.03909750        0.59684443
     208         -0.049521        0.000000        0.00190818        0.38578350        0.05099195        0.26949216
     209         -0.046687        0.000000        0.00426545        0.16723137        0.14658215        0.38847371
     210         -0.040753        0.000000        0.00287005        0.55172545        0.08043030        0.05210883
     211         -0.040500        0.000000        0.00467214        0.11548547        0.55313858        0.01820778
     212         -0.038560        0.000000        0.00533182        0.09549765        0.29098024        0.29816608
     213         -0.034739        0.000000        0.00317168        0.10461779        0.46099295        0.11726781
     214         -0.033646        0.000000        0.00158274        0.22299266        0.42952632        0.02597850
     215         -0.030607        0.000000        0.00523012        0.28605955        0.33939393        0.06287241
     216         -0.026411        0.000000        0.00064779        0.28266815        0.15840521        0.23808652
     217         -0.024009        0.000000        0.00221319        0.05266686        0.59242277        0.01937097
     218         -0.022597        0.000000        0.00130957        0.39606357        0.19648886        0.09145648
     219         -0.020636        0.000000        0.00209675        0.54064702        0.12594640        0.02518819
     220         -0.017987        0.000000        0.00040504        0.24584598        0.09180160        0.34019547
     221         -0.017747        0.000000        0.00031517        0.20400607        0.10546358        0.36711953
     222         -0.014871        0.000000        0.00023988        0.08698579        0.55176704        0.04480476
     223         -0.014479        0.000000        0.00068960        0.42312065        0.23407098        0.02434707
     224         -0.011895        0.000000        0.00030111        0.56380522        0.02778036        0.07347145
     225         -0.008742        0.000000        0.00014519        0.07826339        0.59808235        0.01112237
     226          0.088306        0.000000        0.00000080        0.00003718        0.00007439        0.00001593
     227          0.098883        0.000000        0.00000187        0.00020538        0.00005951        0.00001347
     228          0.102780        0.000000        0.00000975        0.00015952        0.00003946        0.00005420
     229          0.103763        0.000000        0.00000449        0.00051360        0.00015731        0.00007655
     230          0.103953        0.000000        0.00000047        0.00007422        0.00003271        0.00001422
     231          0.108999        0.000000        0.00000657        0.00008514        0.00007090        0.00017496
     232          0.115315        0.000000        0.00000097        0.00005879        0.00008930        0.00001735
     233          0.283667        0.000000        0.00001483        0.00012113        0.00030539        0.00000311
     234          0.284818        0.000000        0.00000555        0.00009386        0.00004504        0.00000607
     235          0.286037        0.000000        0.00000636        0.00005489        0.00022976        0.00000890
     236          0.290040        0.000000        0.00000524        0.00003235        0.00001931        0.00000052
     237          0.293168        0.000000        0.00000089        0.00004247        0.00005111        0.00012508
     238          0.294703        0.000000        0.00001262        0.00033474        0.00005126        0.00002902
     239          0.295023        0.000000        0.00000690        0.00014905        0.00007191        0.00002149
     240          0.295166        0.000000        0.00000587        0.00006818        0.00015490        0.00006525
     241          0.296596        0.000000        0.00000548        0.00006952        0.00002838        0.00006186
     242          0.298058        0.000000        0.00003577        0.00020099        0.00007194        0.00006972
     243          0.300357        0.000000        0.00000374        0.00007607        0.00002792        0.00013715
     244          0.301917        0.000000        0.00000368        0.00002138        0.00003315        0.00003638
     245          0.307550        0.000000        0.00000177        0.00003519        0.00007173        0.00003622
     246          0.311187        0.000000        0.00000312        0.00003424        0.00003257        0.00002232
     247          0.316486        0.000000        0.00001875        0.00012626        0.00030227        0.00001434
     248          0.327638        0.000000        0.00000364        0.00008537        0.00001153        0.00001169
     249          0.336288        0.000000        0.00002402        0.00016415        0.00013329        0.00016836
     250          0.337491        0.000000        0.00002241        0.00008405        0.00012484        0.00005755
     251          0.337676        0.000000        0.00000511        0.00003663        0.00002435        0.00025663
     252          0.344754        0.000000        0.00000985        0.00008280        0.00007184        0.00004024
     253          0.349257        0.000000        0.00000434        0.00003328        0.00010367        0.00002476
     254          0.454596        0.000000        0.00000021        0.00000283        0.00000117        0.00000035
     255          0.459540        0.000000        0.00000057        0.00000591        0.00001179        0.00000089
     256          0.462974        0.000000        0.00000043        0.00000681        0.00001218        0.00000472
     257          0.464494        0.000000        0.00000471        0.00000585        0.00001051        0.00003326
     258          0.466160        0.000000        0.00000210        0.00000826        0.00000899        0.00001171
     259          0.467274        0.000000        0.00000051        0.00000845        0.00008809        0.00001778