# Projected DOS for atomic kind H at iteration step i = 0, E(Fermi) =    -0.172076 a.u.
#     MO Eigenvalue [a.u.]      Occupation                 s
       1         -0.952917        1.000000        0.28164556
       2         -0.945306        1.000000        0.28346104
       3         -0.942427        1.000000        0.28037281
       4         -0.940424        1.000000        0.28246488
       5         -0.936657        1.000000        0.27978731
       6         -0.936357        1.000000        0.28130529
       7         -0.926085        1.000000        0.28053855
       8         -0.693812        1.000000        0.34284087
       9         -0.690003        1.000000        0.34834029
      10         -0.684866        1.000000        0.34845397
      11         -0.683701        1.000000        0.34081302
      12         -0.683458        1.000000        0.34386990
      13         -0.680384        1.000000        0.34522072
      14         -0.671851        1.000000        0.34654775
      15         -0.640367        1.000000        0.00807867
      16         -0.631081        1.000000        0.00158348
      17         -0.622812        1.000000        0.00079843
      18         -0.619688        1.000000        0.00272761
      19         -0.615426        1.000000        0.00680530
      20         -0.603535        1.000000        0.01524454
      21         -0.597806        1.000000        0.02002354
      22         -0.594683        1.000000        0.01800251
      23         -0.594373        1.000000        0.00677912
      24         -0.593211        1.000000        0.01332737
      25         -0.591256        1.000000        0.07270648
      26         -0.588245        1.000000        0.09311009
      27         -0.587614        1.000000        0.03830253
      28         -0.586130        1.000000        0.06234768
      29         -0.583927        1.000000        0.01159161
      30         -0.583167        1.000000        0.04479208
      31         -0.582585        1.000000        0.07932392
      32         -0.582336        1.000000        0.02699614
      33         -0.580369        1.000000        0.03219270
      34         -0.580076        1.000000        0.03633778
      35         -0.578438        1.000000        0.06008055
      36         -0.577986        1.000000        0.08967813
      37         -0.577674        1.000000        0.21638807
      38         -0.576142        1.000000        0.07170201
      39         -0.575208        1.000000        0.03214002
      40         -0.574826        1.000000        0.04675798
      41         -0.574316        1.000000        0.06651722
      42         -0.573214        1.000000        0.14248434
      43         -0.572804        1.000000        0.01009726
      44         -0.571373        1.000000        0.00207559
      45         -0.570793        1.000000        0.05367479
      46         -0.570480        1.000000        0.16689771
      47         -0.569815        1.000000        0.05384114
      48         -0.568011        1.000000        0.28095727
      49         -0.566928        1.000000        0.04665935
      50         -0.564172        1.000000        0.23018356
      51         -0.562723        1.000000        0.28626694
      52         -0.561040        1.000000        0.05211684
      53         -0.560387        1.000000        0.14747705
      54         -0.559965        1.000000        0.22597127
      55         -0.559375        1.000000        0.02836492
      56         -0.557587        1.000000        0.25699216
      57         -0.556618        1.000000        0.12727874
      58         -0.554432        1.000000        0.09661959
      59         -0.551156        1.000000        0.23721305
      60         -0.545924        1.000000        0.25893646
      61         -0.544889        1.000000        0.18970433
      62         -0.541933        1.000000        0.15065284
      63         -0.538446        1.000000        0.18396158
      64         -0.538041        1.000000        0.23377878
      65         -0.473952        1.000000        0.17615447
      66         -0.469955        1.000000        0.17313189
      67         -0.465113        1.000000        0.03759262
      68         -0.464752        1.000000        0.13948974
      69         -0.464189        1.000000        0.16266279
      70         -0.463813        1.000000        0.17685387
      71         -0.461699        1.000000        0.09639824
      72         -0.460866        1.000000        0.02237705
      73         -0.459447        1.000000        0.07481522
      74         -0.458485        1.000000        0.00460707
      75         -0.454241        1.000000        0.02806731
      76         -0.451608        1.000000        0.14839036
      77         -0.450243        1.000000        0.00188579
      78         -0.443152        1.000000        0.00420260
      79         -0.439586        1.000000        0.00158845
      80         -0.410742        1.000000        0.42184394
      81         -0.409900        1.000000        0.42057413
      82         -0.407699        1.000000        0.42237230
      83         -0.406292        1.000000        0.42137083
      84         -0.402421        1.000000        0.42375457
      85         -0.401822        1.000000        0.42214039
      86         -0.400759        1.000000        0.42096580
      87         -0.400112        1.000000        0.42186869
      88         -0.398917        1.000000        0.41956966
      89         -0.398314        1.000000        0.41769095
      90         -0.398197        1.000000        0.42100747
      91         -0.395468        1.000000        0.41973041
      92         -0.390102        1.000000        0.42459300
      93         -0.386861        1.000000        0.42035832
      94         -0.323842        1.000000        0.00065393
      95         -0.315921        1.000000        0.00011977
      96         -0.305522        1.000000        0.00040995
      97         -0.303267        1.000000        0.00012501
      98         -0.299332        1.000000        0.00018942
      99         -0.276639        1.000000        0.00046421
     100         -0.273909        1.000000        0.00057599
     101         -0.273376        1.000000        0.00173121
     102         -0.269728        1.000000        0.00041616
     103         -0.268748        1.000000        0.00066134
     104         -0.266653        1.000000        0.00044179
     105         -0.265242        1.000000        0.00041480
     106         -0.264938        1.000000        0.00053887
     107         -0.263328        1.000000        0.00044958
     108         -0.260753        1.000000        0.00069276
     109         -0.257656        1.000000        0.00036129
     110         -0.256437        1.000000        0.00044138
     111         -0.256062        1.000000        0.00037773
     112         -0.254499        1.000000        0.00086568
     113         -0.253894        1.000000        0.00046042
     114         -0.252564        1.000000        0.00093279
     115         -0.251026        1.000000        0.00035127
     116         -0.247308        1.000000        0.00043103
     117         -0.245709        1.000000        0.00067283
     118         -0.244702        1.000000        0.00049830
     119         -0.244475        1.000000        0.00046400
     120         -0.243351        1.000000        0.00043383
     121         -0.240288        1.000000        0.00049733
     122         -0.239086        1.000000        0.00040131
     123         -0.237190        1.000000        0.00075113
     124         -0.236269        1.000000        0.00054928
     125         -0.235699        1.000000        0.00064432
     126         -0.234113        1.000000        0.00136224
     127         -0.233480        1.000000        0.00087373
     128         -0.232405        1.000000        0.00044320
     129         -0.229410        1.000000        0.00120403
     130         -0.227762        1.000000        0.00069045
     131         -0.225413        1.000000        0.00092695
     132         -0.224052        1.000000        0.00252570
     133         -0.222361        1.000000        0.00139926
     134         -0.220691        1.000000        0.00067839
     135         -0.219020        1.000000        0.00101018
     136         -0.218327        1.000000        0.00079128
     137         -0.216233        1.000000        0.00070720
     138         -0.215483        1.000000        0.00238617
     139         -0.214605        1.000000        0.00152928
     140         -0.214368        1.000000        0.00159990
     141         -0.213408        1.000000        0.00162680
     142         -0.211776        1.000000        0.00196128
     143         -0.211150        1.000000        0.00109399
     144         -0.210145        1.000000        0.00109506
     145         -0.208580        1.000000        0.00180740
     146         -0.208428        1.000000        0.00061732
     147         -0.207771        1.000000        0.00164162
     148         -0.207417        1.000000        0.00112355
     149         -0.205793        1.000000        0.00122332
     150         -0.205455        1.000000        0.00111494
     151         -0.205045        1.000000        0.00112268
     152         -0.203876        1.000000        0.00065529
     153         -0.203271        1.000000        0.00075607
     154         -0.202405        1.000000        0.00132024
     155         -0.201917        1.000000        0.00131068
     156         -0.201169        1.000000        0.00047132
     157         -0.200652        1.000000        0.00061359
     158         -0.199565        1.000000        0.00062742
     159         -0.198540        1.000000        0.00077751
     160         -0.197965        1.000000        0.00204024
     161         -0.197009        1.000000        0.00079070
     162         -0.196588        1.000000        0.00060413
     163         -0.196292        1.000000        0.00152066
     164         -0.195928        1.000000        0.00130331
     165         -0.195079        1.000000        0.00167061
     166         -0.194734        1.000000        0.00068219
     167         -0.193767        1.000000        0.00134714
     168         -0.193491        1.000000        0.00078579
     169         -0.193360        1.000000        0.00054456
     170         -0.192849        1.000000        0.00058240
     171         -0.191807        1.000000        0.00252927
     172         -0.191160        1.000000        0.00055723
     173         -0.190215        1.000000        0.00119774
     174         -0.190078        1.000000        0.00339619
     175         -0.189443        1.000000        0.00109270
     176         -0.188827        1.000000        0.00095150
     177         -0.188174        1.000000        0.00031228
     178         -0.187747        1.000000        0.00026375
     179         -0.187688        1.000000        0.00017297
     180         -0.187342        1.000000        0.00033368
     181         -0.186851        1.000000        0.00067115
     182         -0.186471        1.000000        0.00037088
     183         -0.186117        1.000000        0.00016232
     184         -0.184686        1.000000        0.00135217
     185         -0.184080        1.000000        0.00055435
     186         -0.183199        1.000000        0.00050544
     187         -0.182472        1.000000        0.00022477
     188         -0.182395        1.000000        0.00039692
     189         -0.181912        1.000000        0.00029989
     190         -0.178395        1.000000        0.00032010
     191         -0.176336        1.000000        0.00016084
     192         -0.174274        1.000000        0.00014547
     193         -0.174212        1.000000        0.00004989
     194         -0.172600        1.000000        0.00008964
     195         -0.172076        1.000000        0.00024219
     196         -0.168825        0.000000        0.00015433
     197         -0.167272        0.000000        0.00003199
     198         -0.160676        0.000000        0.00011689
     199         -0.155514        0.000000        0.00019838
     200         -0.155092        0.000000        0.00007113
     201         -0.129184        0.000000        0.00002652
     202         -0.074147        0.000000        0.00052028
     203         -0.073774        0.000000        0.00008397
     204         -0.072841        0.000000        0.00028043
     205         -0.062705        0.000000        0.00084634
     206         -0.055851        0.000000        0.00025016
     207         -0.052996        0.000000        0.00017142
     208         -0.049521        0.000000        0.00022495
     209         -0.046687        0.000000        0.00019202
     210         -0.040753        0.000000        0.00020827
     211         -0.040500        0.000000        0.00021756
     212         -0.038560        0.000000        0.00045104
     213         -0.034739        0.000000        0.00017407
     214         -0.033646        0.000000        0.00024103
     215         -0.030607        0.000000        0.00044590
     216         -0.026411        0.000000        0.00038045
     217         -0.024009        0.000000        0.00010626
     218         -0.022597        0.000000        0.00078823
     219         -0.020636        0.000000        0.00011002
     220         -0.017987        0.000000        0.00018779
     221         -0.017747        0.000000        0.00018114
     222         -0.014871        0.000000        0.00059757
     223         -0.014479        0.000000        0.00037451
     224         -0.011895        0.000000        0.00024093
     225         -0.008742        0.000000        0.00088585
     226          0.088306        0.000000        0.00337621
     227          0.098883        0.000000        0.00283974
     228          0.102780        0.000000        0.00465501
     229          0.103763        0.000000        0.00423152
     230          0.103953        0.000000        0.00389467
     231          0.108999        0.000000        0.00366259
     232          0.115315        0.000000        0.00335112
     233          0.283667        0.000000        0.66148434
     234          0.284818        0.000000        0.65851343
     235          0.286037        0.000000        0.66705577
     236          0.290040        0.000000        0.66005578
     237          0.293168        0.000000        0.65941264
     238          0.294703        0.000000        0.66298910
     239          0.295023        0.000000        0.66154481
     240          0.295166        0.000000        0.66402554
     241          0.296596        0.000000        0.65848243
     242          0.298058        0.000000        0.66132257
     243          0.300357        0.000000        0.66120024
     244          0.301917        0.000000        0.65710089
     245          0.307550        0.000000        0.66239716
     246          0.311187        0.000000        0.66183977
     247          0.316486        0.000000        0.63497166
     248          0.327638        0.000000        0.63347907
     249          0.336288        0.000000        0.63165821
     250          0.337491        0.000000        0.63144694
     251          0.337676        0.000000        0.63174100
     252          0.344754        0.000000        0.63233399
     253          0.349257        0.000000        0.63130683
     254          0.454596        0.000000        0.58397267
     255          0.459540        0.000000        0.58419428
     256          0.462974        0.000000        0.58143495
     257          0.464494        0.000000        0.57926916
     258          0.466160        0.000000        0.58132937
     259          0.467274        0.000000        0.58173436
     260          0.468489        0.000000        0.58432149
     261          0.470005        0.000000        0.58293204
     262          0.470873        0.000000        0.58511183
     263          0.472369        0.000000        0.58248691
     264          0.473060        0.000000        0.58226360
     265          0.473369        0.000000        0.58366815
     266          0.477099        0.000000        0.58387893
     267          0.479766        0.000000        0.58049302
     268          0.550721        0.000000        0.55418911
     269          0.560087        0.000000        0.55227858
     270          0.563958        0.000000        0.55257752
     271          0.566366        0.000000        0.55376769
     272          0.568050        0.000000        0.55280588
     273          0.571885        0.000000        0.55238850
     274          0.575454        0.000000        0.55317665
