# Projected DOS for atomic kind I at iteration step i = 0, E(Fermi) =    -0.172076 a.u.
#     MO Eigenvalue [a.u.]      Occupation                 s                py                pz                px
       1         -0.952917        1.000000        0.00011961        0.00043255        0.00015759        0.00007598
       2         -0.945306        1.000000        0.00015243        0.00021919        0.00041137        0.00010358
       3         -0.942427        1.000000        0.00018440        0.00050974        0.00028087        0.00021964
       4         -0.940424        1.000000        0.00012824        0.00036853        0.00007856        0.00025133
       5         -0.936657        1.000000        0.00018684        0.00033169        0.00032552        0.00019834
       6         -0.936357        1.000000        0.00017248        0.00047239        0.00026617        0.00002931
       7         -0.926085        1.000000        0.00015976        0.00039964        0.00014815        0.00026089
       8         -0.693812        1.000000        0.00075502        0.00025958        0.00013848        0.00004778
       9         -0.690003        1.000000        0.00219692        0.00060477        0.00054845        0.00021059
      10         -0.684866        1.000000        0.00163263        0.00036950        0.00036217        0.00007722
      11         -0.683701        1.000000        0.00216553        0.00023971        0.00028727        0.00033336
      12         -0.683458        1.000000        0.00166083        0.00056281        0.00015161        0.00033559
      13         -0.680384        1.000000        0.00241409        0.00054769        0.00045933        0.00031855
      14         -0.671851        1.000000        0.00164181        0.00031713        0.00025001        0.00019822
      15         -0.640367        1.000000        0.95253672        0.00117525        0.00684743        0.01710635
      16         -0.631081        1.000000        0.95071021        0.00144255        0.01579245        0.00763718
      17         -0.622812        1.000000        0.94024487        0.00642000        0.00255766        0.00938082
      18         -0.619688        1.000000        0.95971437        0.00660758        0.00185452        0.01683620
      19         -0.615426        1.000000        0.91782085        0.00913659        0.00290740        0.00164595
      20         -0.603535        1.000000        0.87347192        0.00330638        0.00742262        0.01463955
      21         -0.597806        1.000000        0.80421384        0.00449480        0.00553416        0.00624429
      22         -0.594683        1.000000        0.81298269        0.00828415        0.00551977        0.00404531
      23         -0.594373        1.000000        0.85532762        0.00502370        0.00470924        0.00879443
      24         -0.593211        1.000000        0.84846494        0.00527000        0.00487995        0.00759939
      25         -0.591256        1.000000        0.75754216        0.00415029        0.00585138        0.00568643
      26         -0.588245        1.000000        0.69426538        0.00691145        0.00273575        0.00590199
      27         -0.587614        1.000000        0.80152287        0.00712022        0.00762934        0.00769730
      28         -0.586130        1.000000        0.76529131        0.00419748        0.00344491        0.00377005
      29         -0.583927        1.000000        0.89464057        0.00417103        0.00426209        0.00963761
      30         -0.583167        1.000000        0.84094326        0.00203635        0.00790121        0.00794440
      31         -0.582585        1.000000        0.73132514        0.00360548        0.00342259        0.00389033
      32         -0.582336        1.000000        0.89547847        0.00088384        0.00341143        0.00847376
      33         -0.580369        1.000000        0.84616161        0.00298479        0.00482700        0.00403321
      34         -0.580076        1.000000        0.83851617        0.00269679        0.00414193        0.00380003
      35         -0.578438        1.000000        0.79072577        0.00679886        0.00183505        0.00095238
      36         -0.577986        1.000000        0.68858293        0.00290776        0.00265423        0.00279461
      37         -0.577674        1.000000        0.33329896        0.00208058        0.00213790        0.00197012
      38         -0.576142        1.000000        0.76826864        0.00199933        0.00227067        0.00207884
      39         -0.575208        1.000000        0.84467941        0.00138942        0.00456142        0.00189439
      40         -0.574826        1.000000        0.82345096        0.00174160        0.00279670        0.00142228
      41         -0.574316        1.000000        0.77636450        0.00169284        0.00328234        0.00378103
      42         -0.573214        1.000000        0.58013363        0.00316173        0.00339720        0.00195727
      43         -0.572804        1.000000        0.92082749        0.00189012        0.00189411        0.00041626
      44         -0.571373        1.000000        0.95990487        0.00235839        0.00052168        0.00246017
      45         -0.570793        1.000000        0.73823878        0.00667475        0.00575229        0.00242513
      46         -0.570480        1.000000        0.50096122        0.00582263        0.00220705        0.00175470
      47         -0.569815        1.000000        0.77403792        0.00459377        0.00430203        0.00138198
      48         -0.568011        1.000000        0.14176768        0.00262944        0.00066203        0.00061838
      49         -0.566928        1.000000        0.80714520        0.00095693        0.00077204        0.00410883
      50         -0.564172        1.000000        0.28215203        0.00110450        0.00188914        0.00098485
      51         -0.562723        1.000000        0.12028625        0.00061153        0.00054931        0.00086048
      52         -0.561040        1.000000        0.78776559        0.00244637        0.00140350        0.00052271
      53         -0.560387        1.000000        0.51568832        0.00456929        0.00127200        0.00197519
      54         -0.559965        1.000000        0.28681398        0.00511767        0.00085095        0.00089630
      55         -0.559375        1.000000        0.89456774        0.00234511        0.00119868        0.00563518
      56         -0.557587        1.000000        0.19298814        0.00128707        0.00104914        0.00055911
      57         -0.556618        1.000000        0.54964214        0.00106730        0.00135861        0.00081228
      58         -0.554432        1.000000        0.64193158        0.00504084        0.00097191        0.00089266
      59         -0.551156        1.000000        0.20425348        0.00638595        0.00240777        0.00162075
      60         -0.545924        1.000000        0.18348315        0.00137446        0.00164717        0.00106394
      61         -0.544889        1.000000        0.34185394        0.00162668        0.00211783        0.00168320
      62         -0.541933        1.000000        0.46197727        0.00072638        0.00137468        0.00045367
      63         -0.538446        1.000000        0.35110891        0.00101258        0.00097647        0.00105561
      64         -0.538041        1.000000        0.22520750        0.00234030        0.00093995        0.00218406
      65         -0.473952        1.000000        0.00260721        0.00193454        0.00112061        0.00026550
      66         -0.469955        1.000000        0.00502423        0.00358382        0.00327700        0.00143285
      67         -0.465113        1.000000        0.12112439        0.03322334        0.04236641        0.01888662
      68         -0.464752        1.000000        0.03368657        0.01046080        0.01332241        0.00523000
      69         -0.464189        1.000000        0.01482545        0.00680800        0.00430007        0.00544126
      70         -0.463813        1.000000        0.00326971        0.00141957        0.00258652        0.00167695
      71         -0.461699        1.000000        0.08297790        0.02417983        0.02194216        0.01755877
      72         -0.460866        1.000000        0.16395743        0.05292607        0.03882173        0.03122935
      73         -0.459447        1.000000        0.10953236        0.03036179        0.02271900        0.02042603
      74         -0.458485        1.000000        0.13149073        0.03329840        0.04254127        0.02813145
      75         -0.454241        1.000000        0.13473310        0.04124181        0.02891129        0.04303137
      76         -0.451608        1.000000        0.03079962        0.00874108        0.00739554        0.00752852
      77         -0.450243        1.000000        0.14828200        0.03666487        0.04327086        0.04288116
      78         -0.443152        1.000000        0.15023213        0.03619567        0.03902087        0.03596119
      79         -0.439586        1.000000        0.14537964        0.04368670        0.04293911        0.00870577
      80         -0.410742        1.000000        0.00173088        0.00392710        0.00041633        0.00073104
      81         -0.409900        1.000000        0.00079283        0.00064912        0.00220332        0.00072933
      82         -0.407699        1.000000        0.00191758        0.00358820        0.00524134        0.00131614
      83         -0.406292        1.000000        0.00265951        0.00628627        0.00384624        0.00257752
      84         -0.402421        1.000000        0.00193816        0.00164726        0.00403531        0.00096585
      85         -0.401822        1.000000        0.00057515        0.00274544        0.00140266        0.00128052
      86         -0.400759        1.000000        0.00133124        0.00476669        0.00201310        0.00132745
      87         -0.400112        1.000000        0.00134279        0.00189511        0.00072005        0.00306965
      88         -0.398917        1.000000        0.00366719        0.00760279        0.00111160        0.00141978
      89         -0.398314        1.000000        0.00208790        0.00193758        0.00283504        0.00314926
      90         -0.398197        1.000000        0.00189988        0.00182721        0.00365452        0.00147175
      91         -0.395468        1.000000        0.00231999        0.00571232        0.00204864        0.00108342
      92         -0.390102        1.000000        0.00076303        0.00132094        0.00112423        0.00082434
      93         -0.386861        1.000000        0.00165961        0.00380495        0.00054869        0.00231650
      94         -0.323842        1.000000        0.02827083        0.01364893        0.23844759        0.69329368
      95         -0.315921        1.000000        0.02623426        0.05090464        0.52008669        0.30518386
      96         -0.305522        1.000000        0.03186330        0.23381109        0.06548698        0.64685360
      97         -0.303267        1.000000        0.01587665        0.21682902        0.05242808        0.62106449
      98         -0.299332        1.000000        0.01550614        0.73860215        0.06332231        0.03849971
      99         -0.276639        1.000000        0.00904512        0.29918640        0.24578949        0.23010846
     100         -0.273909        1.000000        0.01279109        0.20890409        0.27216743        0.30154415
     101         -0.273376        1.000000        0.00762005        0.62433035        0.06944105        0.16179939
     102         -0.269728        1.000000        0.01617814        0.14411561        0.19385428        0.39932247
     103         -0.268748        1.000000        0.01686881        0.35606700        0.28635492        0.16120646
     104         -0.266653        1.000000        0.01783138        0.24402376        0.30293467        0.22091321
     105         -0.265242        1.000000        0.01071106        0.47022320        0.11493063        0.21987318
     106         -0.264938        1.000000        0.01814249        0.22402862        0.16829732        0.33958884
     107         -0.263328        1.000000        0.02015995        0.34812660        0.27992951        0.12829097
     108         -0.260753        1.000000        0.01330986        0.21678755        0.49547701        0.06876313
     109         -0.257656        1.000000        0.01675348        0.34752297        0.18024958        0.25256324
     110         -0.256437        1.000000        0.01966876        0.22591605        0.19693852        0.32337838
     111         -0.256062        1.000000        0.01914555        0.23222688        0.30312417        0.22938832
     112         -0.254499        1.000000        0.01725195        0.37700363        0.20194080        0.20880395
     113         -0.253894        1.000000        0.01262785        0.25271263        0.33991308        0.20858565
     114         -0.252564        1.000000        0.00579084        0.52260721        0.30364835        0.08392289
     115         -0.251026        1.000000        0.01445437        0.25784200        0.36306753        0.16783276
     116         -0.247308        1.000000        0.01293292        0.17077683        0.40938145        0.23999678
     117         -0.245709        1.000000        0.01145237        0.16989069        0.46515977        0.23878650
     118         -0.244702        1.000000        0.01144684        0.19163267        0.36584204        0.26811041
     119         -0.244475        1.000000        0.01232726        0.19924699        0.24872343        0.37639492
     120         -0.243351        1.000000        0.01515661        0.19384767        0.37283690        0.19626448
     121         -0.240288        1.000000        0.01444794        0.22292098        0.37198487        0.23145525
     122         -0.239086        1.000000        0.00488009        0.20654479        0.59050423        0.14663303
     123         -0.237190        1.000000        0.00768882        0.17935595        0.41526898        0.28948035
     124         -0.236269        1.000000        0.01000926        0.23228966        0.32598018        0.29228151
     125         -0.235699        1.000000        0.00971080        0.26774599        0.45699992        0.15550659
     126         -0.234113        1.000000        0.00696481        0.23529844        0.34783387        0.26594783
     127         -0.233480        1.000000        0.00868448        0.37893284        0.31066770        0.16058638
     128         -0.232405        1.000000        0.00953889        0.28258670        0.46846592        0.14251869
     129         -0.229410        1.000000        0.00992543        0.30320191        0.30121652        0.34393401
     130         -0.227762        1.000000        0.00568428        0.27315720        0.28947219        0.33855441
     131         -0.225413        1.000000        0.00474417        0.44696390        0.31039933        0.17745065
     132         -0.224052        1.000000        0.00283256        0.41151776        0.40057908        0.14326084
     133         -0.222361        1.000000        0.00243020        0.24626275        0.43126400        0.24064360
     134         -0.220691        1.000000        0.00612757        0.38281898        0.25731458        0.28364582
     135         -0.219020        1.000000        0.00495099        0.39232720        0.25307645        0.28799732
     136         -0.218327        1.000000        0.00786283        0.37081748        0.16268631        0.41150764
     137         -0.216233        1.000000        0.00547650        0.25654230        0.23059461        0.45026246
     138         -0.215483        1.000000        0.00334162        0.38956811        0.38459672        0.15891709
     139         -0.214605        1.000000        0.00240643        0.27880407        0.61219990        0.07957969
     140         -0.214368        1.000000        0.00185454        0.29868952        0.48047241        0.19599015
     141         -0.213408        1.000000        0.00533836        0.22885449        0.56758818        0.14157387
     142         -0.211776        1.000000        0.00238815        0.41547438        0.32187691        0.23526328
     143         -0.211150        1.000000        0.00272915        0.42258065        0.35555149        0.19627556
     144         -0.210145        1.000000        0.00320895        0.33351919        0.35299942        0.27948449
     145         -0.208580        1.000000        0.00281496        0.57201473        0.21412529        0.17519747
     146         -0.208428        1.000000        0.00199464        0.28950405        0.29045689        0.37539463
     147         -0.207771        1.000000        0.00144542        0.36708517        0.26603259        0.34321834
     148         -0.207417        1.000000        0.00153602        0.43775070        0.21052063        0.33028447
     149         -0.205793        1.000000        0.00212184        0.40712290        0.19839092        0.36715735
     150         -0.205455        1.000000        0.00272029        0.45253000        0.22965476        0.28634919
     151         -0.205045        1.000000        0.00321982        0.35685992        0.25736467        0.35613440
     152         -0.203876        1.000000        0.00286339        0.36153168        0.16860672        0.43652046
     153         -0.203271        1.000000        0.00317475        0.32416881        0.28430443        0.33370401
     154         -0.202405        1.000000        0.00400579        0.31205654        0.14350460        0.51853867
     155         -0.201917        1.000000        0.00353662        0.24963152        0.31257610        0.41197929
     156         -0.201169        1.000000        0.00263469        0.35468118        0.33776411        0.26189170
     157         -0.200652        1.000000        0.00252530        0.25077433        0.24154884        0.48467630
     158         -0.199565        1.000000        0.00251692        0.25784971        0.30270826        0.40334657
     159         -0.198540        1.000000        0.00138810        0.32723867        0.30583131        0.34055611
     160         -0.197965        1.000000        0.00336938        0.22982494        0.25054381        0.49743643
     161         -0.197009        1.000000        0.00101539        0.43165241        0.35278190        0.19735577
     162         -0.196588        1.000000        0.00101977        0.38124026        0.20100260        0.39447799
     163         -0.196292        1.000000        0.00195814        0.38967698        0.31676248        0.26945242
     164         -0.195928        1.000000        0.00156028        0.31014531        0.27173899        0.39069153
     165         -0.195079        1.000000        0.00173596        0.30269481        0.24284216        0.43810442
     166         -0.194734        1.000000        0.00130950        0.43796945        0.27883606        0.25992207
     167         -0.193767        1.000000        0.00289554        0.42356558        0.39760224        0.14854585
     168         -0.193491        1.000000        0.00175717        0.51021337        0.23893650        0.22730359
     169         -0.193360        1.000000        0.00100105        0.19683617        0.30542618        0.48811507
     170         -0.192849        1.000000        0.00081972        0.41294454        0.19664235        0.37197910
     171         -0.191807        1.000000        0.00251063        0.41536545        0.41225762        0.14456450
     172         -0.191160        1.000000        0.00095024        0.21518923        0.43473394        0.33365548
     173         -0.190215        1.000000        0.00194172        0.35125553        0.28446684        0.34028377
     174         -0.190078        1.000000        0.00330924        0.44879569        0.18348382        0.33570220
     175         -0.189443        1.000000        0.00158071        0.35078518        0.36184655        0.26892954
     176         -0.188827        1.000000        0.00150810        0.34058596        0.29925348        0.33822690
     177         -0.188174        1.000000        0.00085124        0.24885804        0.55177305        0.18848669
     178         -0.187747        1.000000        0.00109580        0.22896915        0.13922508        0.61421653
     179         -0.187688        1.000000        0.00088621        0.23297641        0.32407582        0.43382835
     180         -0.187342        1.000000        0.00032747        0.25592894        0.47700059        0.26043751
     181         -0.186851        1.000000        0.00082123        0.45513425        0.39917699        0.12579949
     182         -0.186471        1.000000        0.00068921        0.25985838        0.18688987        0.53815038
     183         -0.186117        1.000000        0.00031585        0.53266793        0.19155129        0.26968011
     184         -0.184686        1.000000        0.00100374        0.21502839        0.60009026        0.17402122
     185         -0.184080        1.000000        0.00117342        0.32133341        0.18458648        0.47311943
     186         -0.183199        1.000000        0.00219806        0.24486151        0.45769120        0.26629537
     187         -0.182472        1.000000        0.00126367        0.29007735        0.34749884        0.34052070
     188         -0.182395        1.000000        0.00049739        0.19775346        0.29622200        0.50020359
     189         -0.181912        1.000000        0.00190342        0.31001791        0.31697716        0.34490601
     190         -0.178395        1.000000        0.00036717        0.28050332        0.57062208        0.14428490
     191         -0.176336        1.000000        0.00115512        0.10706870        0.55441002        0.27953803
     192         -0.174274        1.000000        0.00021860        0.24505339        0.12567435        0.62590766
     193         -0.174212        1.000000        0.00019802        0.12772262        0.10310857        0.76495333
     194         -0.172600        1.000000        0.00087112        0.14228251        0.37414272        0.38873173
     195         -0.172076        1.000000        0.00122930        0.17536680        0.46390036        0.25164951
     196         -0.168825        0.000000        0.00122169        0.28346773        0.26453648        0.32233697
     197         -0.167272        0.000000        0.00984020        0.09845724        0.58727067        0.24086055
     198         -0.160676        0.000000        0.00400868        0.60667603        0.20190498        0.09010096
     199         -0.155514        0.000000        0.01132311        0.06154441        0.20881282        0.67705241
     200         -0.155092        0.000000        0.00482316        0.21008035        0.08629269        0.63259240
     201         -0.129184        0.000000        0.00792073        0.26562180        0.00403396        0.72189014
     202         -0.074147        0.000000        0.01414267        0.06308448        0.11155958        0.07140537
     203         -0.073774        0.000000        0.01224191        0.09916065        0.05871602        0.09471589
     204         -0.072841        0.000000        0.02467846        0.05797466        0.05808283        0.08411203
     205         -0.062705        0.000000        0.02545165        0.10037112        0.07299582        0.07691021
     206         -0.055851        0.000000        0.01545045        0.10656160        0.06632074        0.08844012
     207         -0.052996        0.000000        0.02039483        0.05342137        0.10737924        0.11742555
     208         -0.049521        0.000000        0.01782102        0.14628262        0.02726004        0.09972297
     209         -0.046687        0.000000        0.01277780        0.09718326        0.04619194        0.13676301
     210         -0.040753        0.000000        0.01946260        0.20427080        0.03220770        0.05632181
     211         -0.040500        0.000000        0.02264922        0.04228281        0.17452043        0.06848142
     212         -0.038560        0.000000        0.02068209        0.05428878        0.14576959        0.08799299
     213         -0.034739        0.000000        0.02090133        0.04006396        0.18325789        0.06923287
     214         -0.033646        0.000000        0.02239978        0.03816210        0.19569796        0.06285403
     215         -0.030607        0.000000        0.01760428        0.10732019        0.14372150        0.03660947
     216         -0.026411        0.000000        0.02461757        0.12835647        0.05347867        0.11275383
     217         -0.024009        0.000000        0.02660489        0.03139542        0.24893964        0.02594507
     218         -0.022597        0.000000        0.01846557        0.14367616        0.05011487        0.10032112
     219         -0.020636        0.000000        0.01980897        0.19580058        0.03180430        0.05822027
     220         -0.017987        0.000000        0.02269086        0.12371187        0.02865330        0.14613798
     221         -0.017747        0.000000        0.02353569        0.10850373        0.03637889        0.15415594
     222         -0.014871        0.000000        0.02364467        0.03645440        0.21406737        0.04041407
     223         -0.014479        0.000000        0.02157725        0.16313505        0.09402159        0.03807518
     224         -0.011895        0.000000        0.02659707        0.21258889        0.02468285        0.06965570
     225         -0.008742        0.000000        0.02693507        0.03920421        0.22960967        0.01444950
     226          0.088306        0.000000        0.00002608        0.00070153        0.00043554        0.00002807
     227          0.098883        0.000000        0.00007946        0.00037593        0.00176201        0.00075708
     228          0.102780        0.000000        0.00011780        0.00050617        0.00113846        0.00048899
     229          0.103763        0.000000        0.00006881        0.00126999        0.00024426        0.00111171
     230          0.103953        0.000000        0.00005674        0.00120918        0.00092014        0.00022168
     231          0.108999        0.000000        0.00013456        0.00112365        0.00133202        0.00096868
     232          0.115315        0.000000        0.00004840        0.00096383        0.00076792        0.00063152
     233          0.283667        0.000000        0.00079564        0.01161949        0.00143291        0.00196215
     234          0.284818        0.000000        0.00010200        0.00084709        0.00258841        0.00028793
     235          0.286037        0.000000        0.00210969        0.00018193        0.00334656        0.00890023
     236          0.290040        0.000000        0.00022230        0.00277747        0.00050422        0.00101002
     237          0.293168        0.000000        0.00005896        0.00027275        0.00022643        0.00135426
     238          0.294703        0.000000        0.00053222        0.01069036        0.00601896        0.00293592
     239          0.295023        0.000000        0.00075768        0.00537491        0.00854689        0.00259216
     240          0.295166        0.000000        0.00071860        0.01248142        0.00194438        0.00387869
     241          0.296596        0.000000        0.00042587        0.00542200        0.00242619        0.00012727
     242          0.298058        0.000000        0.00012561        0.00179245        0.00249930        0.00182082
     243          0.300357        0.000000        0.00082201        0.01025255        0.00541035        0.00025778
     244          0.301917        0.000000        0.00015640        0.00051708        0.00215390        0.00080204
     245          0.307550        0.000000        0.00068649        0.00662883        0.00048295        0.00691748
     246          0.311187        0.000000        0.00048502        0.00800650        0.00083080        0.00141707
     247          0.316486        0.000000        0.00084966        0.01163771        0.00282224        0.00255317
     248          0.327638        0.000000        0.00079051        0.00445064        0.00759208        0.00247381
     249          0.336288        0.000000        0.00101468        0.00811437        0.00163010        0.00513795
     250          0.337491        0.000000        0.00145271        0.00310493        0.00473214        0.00731919
     251          0.337676        0.000000        0.00098001        0.01145828        0.00631311        0.00119539
     252          0.344754        0.000000        0.00034225        0.01797779        0.00394991        0.00250156
     253          0.349257        0.000000        0.00086315        0.00960878        0.00091561        0.00670196
     254          0.454596        0.000000        0.00001005        0.00007622        0.00024877        0.00007345
     255          0.459540        0.000000        0.00004238        0.00050416        0.00018581        0.00026974
     256          0.462974        0.000000        0.00004431        0.00022613        0.00017999        0.00020938
     257          0.464494        0.000000        0.00006305        0.00079511        0.00063942        0.00008906
     258          0.466160        0.000000        0.00005791        0.00051702        0.00049957        0.00028451
     259          0.467274        0.000000        0.00003789        0.00037496        0.00029674        0.00016215