# Projected DOS for atomic kind N at iteration step i = 0, E(Fermi) =    -0.171332 a.u.
#     MO Eigenvalue [a.u.]      Occupation                 s                py                pz                px
       1         -0.952920        1.000000        0.61487285        0.00024038        0.00001479        0.00009703
       2         -0.945307        1.000000        0.61476096        0.00004659        0.00001430        0.00023582
       3         -0.942426        1.000000        0.61147321        0.00014769        0.00000092        0.00004794
       4         -0.940424        1.000000        0.61384839        0.00016796        0.00035803        0.00001422
       5         -0.936657        1.000000        0.61274573        0.00005596        0.00011325        0.00005394
       6         -0.936357        1.000000        0.61321197        0.00000028        0.00003036        0.00037174
       7         -0.926086        1.000000        0.61321689        0.00002457        0.00015369        0.00001553
       8         -0.693809        1.000000        0.01614766        0.00273743        0.00067257        0.19247790
       9         -0.690003        1.000000        0.01758709        0.00182045        0.00077720        0.18813433
      10         -0.684866        1.000000        0.01733131        0.00100544        0.00434493        0.18427498
      11         -0.683700        1.000000        0.01506288        0.00335612        0.03681961        0.15840610
      12         -0.683458        1.000000        0.01524368        0.00042819        0.06127351        0.13524559
      13         -0.680384        1.000000        0.01620033        0.00083013        0.08158096        0.11183368
      14         -0.671849        1.000000        0.01697334        0.01211211        0.05788303        0.12123976
      15         -0.640366        1.000000        0.00052127        0.00707612        0.00035710        0.00015013
      16         -0.631104        1.000000        0.00007280        0.00186317        0.00020887        0.00002233
      17         -0.622824        1.000000        0.00001782        0.00010720        0.00098259        0.00001695
      18         -0.619654        1.000000        0.00002904        0.00004088        0.00371253        0.00010386
      19         -0.614883        1.000000        0.00016628        0.00011142        0.00912908        0.00018785
      20         -0.603480        1.000000        0.00011090        0.00669918        0.01417944        0.00146866
      21         -0.597755        1.000000        0.00029103        0.00811949        0.01429255        0.00526741
      22         -0.594222        1.000000        0.00018163        0.00897224        0.00314762        0.00041473
      23         -0.594030        1.000000        0.00020340        0.00402705        0.00999130        0.00028753
      24         -0.592278        1.000000        0.00008836        0.01159768        0.01216237        0.00397992
      25         -0.591212        1.000000        0.00016302        0.00803612        0.07160281        0.02012161
      26         -0.587664        1.000000        0.00028642        0.01073175        0.01283571        0.00032132
      27         -0.586484        1.000000        0.00024205        0.09114406        0.01903416        0.00220327
      28         -0.585399        1.000000        0.00009755        0.14585555        0.01435792        0.00152791
      29         -0.583846        1.000000        0.00015304        0.00576234        0.01302711        0.00313884
      30         -0.582996        1.000000        0.00014881        0.05093230        0.04500302        0.00284010
      31         -0.582420        1.000000        0.00034251        0.07006228        0.02951931        0.00302740
      32         -0.582207        1.000000        0.00016650        0.06447820        0.01378580        0.00145860
      33         -0.580324        1.000000        0.00010031        0.02008087        0.02309363        0.00466640
      34         -0.580056        1.000000        0.00012447        0.03233403        0.02345449        0.00385065
      35         -0.577896        1.000000        0.00022427        0.04013164        0.04884795        0.01103522
      36         -0.577822        1.000000        0.00001026        0.03100365        0.40766356        0.00319931
      37         -0.576940        1.000000        0.00000927        0.02645284        0.08820974        0.00240949
      38         -0.575890        1.000000        0.00019872        0.09094110        0.01668332        0.00223146
      39         -0.574954        1.000000        0.00006736        0.03805435        0.01397369        0.00254012
      40         -0.574743        1.000000        0.00004667        0.01392271        0.04907725        0.01225591
      41         -0.574171        1.000000        0.00012587        0.03701196        0.05399023        0.01215928
      42         -0.573190        1.000000        0.00025982        0.03905301        0.15062355        0.03833049
      43         -0.572511        1.000000        0.00001657        0.00851248        0.00245291        0.00235876
      44         -0.571375        1.000000        0.00000328        0.00158233        0.00089121        0.00055226
      45         -0.570494        1.000000        0.00003805        0.14034070        0.10772457        0.04504340
      46         -0.569633        1.000000        0.00034187        0.07873162        0.04344869        0.00116042
      47         -0.568008        1.000000        0.00023476        0.45473346        0.06187087        0.00042739
      48         -0.567089        1.000000        0.00023098        0.00747499        0.06576191        0.01054220
      49         -0.565593        1.000000        0.00010237        0.03158154        0.00592663        0.00159743
      50         -0.564140        1.000000        0.00008829        0.03359962        0.38490792        0.00456763
      51         -0.562719        1.000000        0.00029847        0.08402822        0.31615216        0.12909151
      52         -0.560392        1.000000        0.00043708        0.17534752        0.12741634        0.04278590
      53         -0.559963        1.000000        0.00047880        0.28181610        0.12522445        0.03260943
      54         -0.559468        1.000000        0.00009897        0.00882971        0.02023628        0.00729036
      55         -0.557586        1.000000        0.00117005        0.11038600        0.21467185        0.15713877
      56         -0.554224        1.000000        0.00010628        0.02756947        0.10370941        0.02549084
      57         -0.553686        1.000000        0.00045966        0.07816191        0.02674301        0.00548268
      58         -0.552342        1.000000        0.00089225        0.13312422        0.01116175        0.00067595
      59         -0.551138        1.000000        0.00090997        0.27849042        0.17486451        0.00547116
      60         -0.545809        1.000000        0.00050464        0.00369178        0.33604518        0.14337421
      61         -0.544885        1.000000        0.00084284        0.32307843        0.03727656        0.02795888
      62         -0.541933        1.000000        0.00119679        0.29008442        0.01783607        0.01425730
      63         -0.538424        1.000000        0.00054005        0.29671388        0.09275294        0.00674427
      64         -0.537834        1.000000        0.00019679        0.41408547        0.00128012        0.04055635
      65         -0.473927        1.000000        0.00851734        0.00107297        0.00185388        0.43724078
      66         -0.469954        1.000000        0.00866014        0.00230489        0.00281895        0.42527961
      67         -0.465117        1.000000        0.00172827        0.00062872        0.00147496        0.08832460
      68         -0.464752        1.000000        0.00698978        0.00234052        0.00501807        0.33889852
      69         -0.464187        1.000000        0.00882830        0.00124759        0.11813805        0.27747684
      70         -0.463806        1.000000        0.00922766        0.01062299        0.09485693        0.32681322
      71         -0.461691        1.000000        0.00534532        0.00348022        0.10003114        0.13609882
      72         -0.460662        1.000000        0.00110261        0.00033419        0.02537897        0.03058729
      73         -0.459417        1.000000        0.00316750        0.00034878        0.08368441        0.09330639
      74         -0.458457        1.000000        0.00010089        0.00076649        0.00381894        0.00622661
      75         -0.454140        1.000000        0.00174327        0.00798906        0.02251109        0.04149116
      76         -0.451579        1.000000        0.00688849        0.02529441        0.10442126        0.23852808
      77         -0.447663        1.000000        0.00002293        0.00034201        0.00014311        0.00124393
      78         -0.443150        1.000000        0.00001687        0.00139276        0.00381521        0.00763320
      79         -0.438489        1.000000        0.00000951        0.00116097        0.00038368        0.00156582
      80         -0.410724        1.000000        0.00000658        0.03832053        0.00002351        0.00077987
      81         -0.409898        1.000000        0.00000611        0.00028176        0.03371545        0.00025051
      82         -0.407698        1.000000        0.00000750        0.00033468        0.03852553        0.00045991
      83         -0.406288        1.000000        0.00000642        0.04389462        0.00044418        0.00045872
      84         -0.402421        1.000000        0.00001017        0.00378976        0.03863369        0.00088603
      85         -0.401818        1.000000        0.00000049        0.03290772        0.00104251        0.00007822
      86         -0.400758        1.000000        0.00001588        0.03326165        0.00480627        0.00245150
      87         -0.400111        1.000000        0.00001009        0.00579641        0.02184885        0.00893393
      88         -0.398916        1.000000        0.00001735        0.03934265        0.00041176        0.00036477
      89         -0.398310        1.000000        0.00000392        0.00094211        0.02585243        0.00763869
      90         -0.398196        1.000000        0.00001121        0.00201850        0.02154039        0.01261030
      91         -0.395468        1.000000        0.00001126        0.03698868        0.00055038        0.00192126
      92         -0.390100        1.000000        0.00000195        0.00963427        0.02337076        0.00579947
      93         -0.386844        1.000000        0.00000699        0.02695158        0.00292180        0.00949902
      94         -0.323848        1.000000        0.00026050        0.00149380        0.00026953        0.00036975
      95         -0.315952        1.000000        0.00005261        0.00007812        0.00005768        0.00001316
      96         -0.305510        1.000000        0.00003206        0.00003137        0.00009693        0.00001288
      97         -0.303277        1.000000        0.00006070        0.00008531        0.00017213        0.00002499
      98         -0.298797        1.000000        0.00011249        0.00001400        0.00050143        0.00010797
      99         -0.276492        1.000000        0.00041145        0.00159559        0.00022123        0.00043613
     100         -0.273732        1.000000        0.00118290        0.00194228        0.00122470        0.00111765
     101         -0.273066        1.000000        0.00134880        0.00336925        0.00021970        0.00116244
     102         -0.269510        1.000000        0.00024815        0.00031086        0.00023686        0.00011506
     103         -0.268426        1.000000        0.00035297        0.00024131        0.00027100        0.00016133
     104         -0.265559        1.000000        0.00031479        0.00024286        0.00018297        0.00014494
     105         -0.264930        1.000000        0.00024630        0.00136670        0.00027477        0.00035705
     106         -0.264692        1.000000        0.00030674        0.00071631        0.00126742        0.00011793
     107         -0.262922        1.000000        0.00011305        0.00006506        0.00046972        0.00020564
     108         -0.257322        1.000000        0.00021856        0.00128543        0.00054318        0.00060827
     109         -0.256894        1.000000        0.00046516        0.00130862        0.00039727        0.00058279
     110         -0.256130        1.000000        0.00030924        0.00025911        0.00032784        0.00029322
     111         -0.255739        1.000000        0.00026038        0.00012035        0.00038936        0.00013384
     112         -0.254158        1.000000        0.00024574        0.00046784        0.00014315        0.00021478
     113         -0.252575        1.000000        0.00058617        0.00059743        0.00042162        0.00031851
     114         -0.251752        1.000000        0.00072999        0.00162224        0.00009572        0.00055064
     115         -0.250358        1.000000        0.00041540        0.00067450        0.00055835        0.00034532
     116         -0.247144        1.000000        0.00016824        0.00036517        0.00042616        0.00019144
     117         -0.245542        1.000000        0.00038138        0.00033660        0.00032940        0.00026108
     118         -0.244402        1.000000        0.00015712        0.00084995        0.00021337        0.00012835
     119         -0.243420        1.000000        0.00021095        0.00060227        0.00020391        0.00018867
     120         -0.242997        1.000000        0.00039048        0.00082633        0.00037867        0.00036915
     121         -0.239911        1.000000        0.00036372        0.00032527        0.00026056        0.00032489
     122         -0.238443        1.000000        0.00015121        0.00116778        0.00207975        0.00015425
     123         -0.236608        1.000000        0.00066249        0.00034237        0.00176875        0.00031952
     124         -0.236012        1.000000        0.00039148        0.00051304        0.00083572        0.00007820
     125         -0.235208        1.000000        0.00099762        0.00012792        0.00048069        0.00058599
     126         -0.233912        1.000000        0.00141929        0.00056735        0.00206215        0.00084611
     127         -0.232358        1.000000        0.00019228        0.00060182        0.00059141        0.00011668
     128         -0.231975        1.000000        0.00065542        0.00101954        0.00011946        0.00036887
     129         -0.229302        1.000000        0.00083870        0.00035377        0.00224950        0.00028118
     130         -0.227524        1.000000        0.00051433        0.00065030        0.00091693        0.00047328
     131         -0.224407        1.000000        0.00324360        0.00590184        0.00103965        0.00195673
     132         -0.223099        1.000000        0.00095075        0.00026680        0.00053867        0.00036322
     133         -0.221927        1.000000        0.00198617        0.00176812        0.00092471        0.00123975
     134         -0.219921        1.000000        0.00051616        0.00031915        0.00043704        0.00019805
     135         -0.218616        1.000000        0.00070633        0.00100474        0.00243763        0.00024093
     136         -0.217955        1.000000        0.00066974        0.00123995        0.00055608        0.00038300
     137         -0.215980        1.000000        0.00094955        0.00032664        0.00157987        0.00046035
     138         -0.215281        1.000000        0.00281319        0.00270690        0.00303177        0.00116812
     139         -0.214268        1.000000        0.00072827        0.00128526        0.00088788        0.00023420
     140         -0.213955        1.000000        0.00144175        0.00437881        0.00121430        0.00085142
     141         -0.212335        1.000000        0.00140340        0.00067530        0.00516063        0.00027616
     142         -0.211674        1.000000        0.00191270        0.00458022        0.00224682        0.00029579
     143         -0.210759        1.000000        0.00043425        0.00074316        0.00116654        0.00034550
     144         -0.209500        1.000000        0.00031858        0.00152066        0.00056272        0.00026205
     145         -0.207903        1.000000        0.00143176        0.00174857        0.00060069        0.00083742
     146         -0.207805        1.000000        0.00021080        0.00053183        0.00046319        0.00003383
     147         -0.207348        1.000000        0.00058169        0.00183903        0.00102937        0.00072031
     148         -0.206402        1.000000        0.00170133        0.00671165        0.00109100        0.00112009
     149         -0.205587        1.000000        0.00034674        0.00624933        0.00045062        0.00060981
     150         -0.205022        1.000000        0.00113985        0.00330009        0.00080168        0.00083356
     151         -0.204514        1.000000        0.00026041        0.00176649        0.00064129        0.00024690
     152         -0.203628        1.000000        0.00045081        0.00280231        0.00037872        0.00094035
     153         -0.202296        1.000000        0.00102902        0.00188734        0.00046062        0.00058367
     154         -0.201944        1.000000        0.00068361        0.00201701        0.00072033        0.00099207
     155         -0.201718        1.000000        0.00061150        0.00413135        0.00029103        0.00047098
     156         -0.201037        1.000000        0.00029125        0.00193398        0.00011266        0.00033038
     157         -0.200342        1.000000        0.00031200        0.00203550        0.00023841        0.00082471
     158         -0.199337        1.000000        0.00029363        0.00062791        0.00039261        0.00053296
     159         -0.198119        1.000000        0.00062345        0.00235462        0.00065340        0.00180703
     160         -0.197880        1.000000        0.00139507        0.00123739        0.00086992        0.00242701
     161         -0.196968        1.000000        0.00037692        0.00057104        0.00074411        0.00013488
     162         -0.196419        1.000000        0.00033932        0.00048951        0.00100325        0.00018938
     163         -0.195977        1.000000        0.00085155        0.00321212        0.00172383        0.00049161
     164         -0.195765        1.000000        0.00059551        0.00337564        0.00132041        0.00048664
     165         -0.194940        1.000000        0.00168151        0.00480512        0.00179500        0.00057660
     166         -0.194230        1.000000        0.00017211        0.00088996        0.00121110        0.00023676
     167         -0.193668        1.000000        0.00065193        0.00121446        0.00332497        0.00088438
     168         -0.193258        1.000000        0.00050312        0.00205487        0.00058239        0.00028847
     169         -0.193007        1.000000        0.00010897        0.00062415        0.00093875        0.00028038
     170         -0.192642        1.000000        0.00015867        0.00102832        0.00041133        0.00009411
     171         -0.191576        1.000000        0.00129624        0.00569242        0.00237361        0.00123086
     172         -0.190366        1.000000        0.00056494        0.00225495        0.00038811        0.00025004
     173         -0.189997        1.000000        0.00223012        0.01032364        0.00122533        0.00161635
     174         -0.189712        1.000000        0.00004992        0.00016638        0.00025287        0.00014627
     175         -0.188943        1.000000        0.00067881        0.00623391        0.00007806        0.00007516
     176         -0.188648        1.000000        0.00028753        0.00204456        0.00070909        0.00029845
     177         -0.188059        1.000000        0.00012652        0.00068553        0.00041619        0.00012028
     178         -0.187647        1.000000        0.00010533        0.00118922        0.00011938        0.00019433
     179         -0.187375        1.000000        0.00002662        0.00012229        0.00002843        0.00002376
     180         -0.187073        1.000000        0.00016257        0.00115002        0.00036017        0.00009678
     181         -0.186116        1.000000        0.00004655        0.00050288        0.00012307        0.00002678
     182         -0.185476        1.000000        0.00008068        0.00020567        0.00020275        0.00032039
     183         -0.184651        1.000000        0.00082663        0.00320029        0.00041682        0.00056190
     184         -0.183394        1.000000        0.00040065        0.00131098        0.00024309        0.00020161
     185         -0.183104        1.000000        0.00025475        0.00051726        0.00025385        0.00004834
     186         -0.182342        1.000000        0.00018094        0.00076015        0.00027228        0.00004683
     187         -0.182069        1.000000        0.00011912        0.00050798        0.00003875        0.00002225
     188         -0.181586        1.000000        0.00023840        0.00095874        0.00020229        0.00005629
     189         -0.179811        1.000000        0.00003157        0.00017302        0.00002509        0.00007821
     190         -0.176114        1.000000        0.00004379        0.00017834        0.00003831        0.00035721
     191         -0.174275        1.000000        0.00001079        0.00014491        0.00006718        0.00002196
     192         -0.173453        1.000000        0.00006380        0.00013775        0.00004221        0.00002965
     193         -0.172083        1.000000        0.00008681        0.00018874        0.00011729        0.00010854
     194         -0.171332        1.000000        0.00000299        0.00001215        0.00000436        0.00000389
     195         -0.168815        0.000000        0.00002540        0.00010023        0.00002544        0.00002389
     196         -0.167304        0.000000        0.00000087        0.00000313        0.00003483        0.00000213
     197         -0.164426        0.000000        0.00006635        0.00014383        0.00001560        0.00004419
     198         -0.158482        0.000000        0.00003163        0.00010600        0.00003342        0.00002045
     199         -0.155453        0.000000        0.00002892        0.00022763        0.00007172        0.00009263
     200         -0.155031        0.000000        0.00001995        0.00011826        0.00005267        0.00001949
     201         -0.129174        0.000000        0.00000406        0.00000927        0.00000638        0.00000577
     202         -0.074048        0.000000        0.00032729        0.00015334        0.00030891        0.00000665
     203         -0.073755        0.000000        0.00003252        0.00000560        0.00004012        0.00001504
     204         -0.071856        0.000000        0.00007147        0.00008865        0.00024618        0.00004316
     205         -0.062686        0.000000        0.00056643        0.00033865        0.00038190        0.00003889
     206         -0.055405        0.000000        0.00009154        0.00005999        0.00020314        0.00008204
     207         -0.052773        0.000000        0.00005395        0.00010089        0.00003609        0.00002790
     208         -0.049414        0.000000        0.00011907        0.00002872        0.00012954        0.00002139
     209         -0.045621        0.000000        0.00006444        0.00002433        0.00004753        0.00011487
     210         -0.040740        0.000000        0.00012657        0.00002837        0.00010066        0.00002066
     211         -0.040491        0.000000        0.00005836        0.00002595        0.00007612        0.00000615
     212         -0.038394        0.000000        0.00015304        0.00035131        0.00014005        0.00007632
     213         -0.034583        0.000000        0.00003279        0.00014321        0.00007366        0.00003136
     214         -0.033635        0.000000        0.00017054        0.00014619        0.00001541        0.00000918
     215         -0.030205        0.000000        0.00012678        0.00021764        0.00031434        0.00003317
     216         -0.026359        0.000000        0.00008428        0.00026868        0.00015162        0.00004055
     217         -0.023999        0.000000        0.00004333        0.00002513        0.00003713        0.00002903
     218         -0.022548        0.000000        0.00023831        0.00064812        0.00021600        0.00004001
     219         -0.018004        0.000000        0.00004750        0.00004075        0.00004563        0.00003078
     220         -0.017859        0.000000        0.00007666        0.00006432        0.00004020        0.00004205
     221         -0.017675        0.000000        0.00003637        0.00011868        0.00004065        0.00001676
     222         -0.014839        0.000000        0.00027327        0.00048453        0.00009355        0.00003393
     223         -0.013977        0.000000        0.00009256        0.00019318        0.00009068        0.00000750
     224         -0.011662        0.000000        0.00015516        0.00001161        0.00014868        0.00012348
     225         -0.005076        0.000000        0.00035885        0.00073543        0.00007563        0.00005771
     226          0.088309        0.000000        0.09809308        0.00058327        0.00087816        0.26047915
     227          0.098887        0.000000        0.09804080        0.00649351        0.05650514        0.19562660
     228          0.102781        0.000000        0.10460154        0.00152556        0.00283376        0.25567434
     229          0.103763        0.000000        0.10436569        0.00016194        0.07542436        0.17973711
     230          0.103953        0.000000        0.10421320        0.00179093        0.00326969        0.25591405
     231          0.108999        0.000000        0.10277128        0.00205136        0.12060818        0.13530580
     232          0.115315        0.000000        0.10183002        0.01857121        0.07584596        0.16753247
     233          0.283730        0.000000        0.00286350        0.30914225        0.00437762        0.00018341
     234          0.284821        0.000000        0.00000389        0.00539016        0.32483496        0.00128075
     235          0.286039        0.000000        0.00013219        0.27443256        0.03381748        0.00361442
     236          0.290040        0.000000        0.00330957        0.30013262        0.02622595        0.00060801
     237          0.293169        0.000000        0.00233463        0.02436185        0.22678005        0.07940702
     238          0.294703        0.000000        0.00418012        0.18344671        0.09740874        0.02510071
     239          0.295023        0.000000        0.00123917        0.09019686        0.17355855        0.05004114
     240          0.295167        0.000000        0.00148101        0.25689628        0.04559558        0.00651619
     241          0.296596        0.000000        0.00415938        0.03085207        0.12427740        0.16781574
     242          0.298059        0.000000        0.00168606        0.02891993        0.29024609        0.00325813
     243          0.300357        0.000000        0.00014764        0.27707024        0.02759090        0.01077998
     244          0.301918        0.000000        0.01014231        0.07626401        0.24399678        0.00104113
     245          0.307552        0.000000        0.00062431        0.15038523        0.07741864        0.08786077
     246          0.311191        0.000000        0.00019873        0.14165598        0.15997652        0.01828975
     247          0.316564        0.000000        0.24646253        0.00060136        0.00051671        0.09404767
     248          0.327639        0.000000        0.24578868        0.00030425        0.01611350        0.08407284
     249          0.336288        0.000000        0.23992931        0.00050519        0.02169212        0.08410794
     250          0.337493        0.000000        0.23901965        0.00171919        0.00833756        0.09700524
     251          0.337676        0.000000        0.23956041        0.00111746        0.05546364        0.04660526
     252          0.344756        0.000000        0.22788893        0.01372374        0.00092840        0.09417178
     253          0.349263        0.000000        0.24375756        0.00454049        0.02511984        0.07166606
     254          0.454597        0.000000        0.00000020        0.00580004        0.01716840        0.00016878
     255          0.459542        0.000000        0.00000342        0.01527360        0.00527882        0.00001383
     256          0.462974        0.000000        0.00004926        0.02285395        0.00138931        0.00015469
     257          0.464494        0.000000        0.00000641        0.00085439        0.02524734        0.00021621
     258          0.466161        0.000000        0.00004534        0.02268464        0.00048812        0.00020782
     259          0.467274        0.000000        0.00001469        0.00153478        0.02365833        0.00045038