# Projected DOS for atomic kind Pb at iteration step i = 0, E(Fermi) =    -0.171332 a.u.
#     MO Eigenvalue [a.u.]      Occupation                 s                py                pz                px
       1         -0.952920        1.000000        0.00000006        0.00000013        0.00000072        0.00000009
       2         -0.945307        1.000000        0.00000041        0.00000303        0.00000698        0.00000353
       3         -0.942426        1.000000        0.00000021        0.00000088        0.00000127        0.00000056
       4         -0.940424        1.000000        0.00000063        0.00000725        0.00000575        0.00000603
       5         -0.936657        1.000000        0.00000063        0.00000659        0.00000722        0.00000364
       6         -0.936357        1.000000        0.00000047        0.00000255        0.00000351        0.00000487
       7         -0.926086        1.000000        0.00000116        0.00001519        0.00001020        0.00000968
       8         -0.693809        1.000000        0.00000291        0.00000206        0.00000482        0.00000014
       9         -0.690003        1.000000        0.00001597        0.00001374        0.00001442        0.00000794
      10         -0.684866        1.000000        0.00003322        0.00002295        0.00003224        0.00001148
      11         -0.683700        1.000000        0.00002318        0.00002934        0.00003775        0.00002321
      12         -0.683458        1.000000        0.00008448        0.00008370        0.00004665        0.00006168
      13         -0.680384        1.000000        0.00004099        0.00003747        0.00005460        0.00003597
      14         -0.671849        1.000000        0.00006805        0.00005094        0.00003940        0.00001949
      15         -0.640366        1.000000        0.00170249        0.00027805        0.00206332        0.00047853
      16         -0.631104        1.000000        0.01276621        0.00034422        0.00628151        0.00080995
      17         -0.622824        1.000000        0.02272632        0.00748791        0.00040608        0.00843933
      18         -0.619654        1.000000        0.00134720        0.00558741        0.00005179        0.00010372
      19         -0.614883        1.000000        0.03993857        0.01125682        0.00070034        0.00070604
      20         -0.603480        1.000000        0.04519731        0.00220150        0.00331699        0.00851450
      21         -0.597755        1.000000        0.11770076        0.00814125        0.00037738        0.00104229
      22         -0.594222        1.000000        0.10543970        0.00449351        0.00075655        0.01027228
      23         -0.594030        1.000000        0.09824618        0.00394670        0.00129646        0.00878372
      24         -0.592278        1.000000        0.06347163        0.00453505        0.00179568        0.01900368
      25         -0.591212        1.000000        0.02531921        0.01169099        0.00097832        0.00458344
      26         -0.587664        1.000000        0.07301019        0.00772819        0.00395457        0.00067517
      27         -0.586484        1.000000        0.04122244        0.00329363        0.00194907        0.00811303
      28         -0.585399        1.000000        0.01096319        0.00328517        0.00241924        0.00893528
      29         -0.583846        1.000000        0.03329241        0.02092839        0.00111682        0.00367858
      30         -0.582996        1.000000        0.00911011        0.00206792        0.00386918        0.00430311
      31         -0.582420        1.000000        0.02146498        0.00894736        0.00576179        0.00274942
      32         -0.582207        1.000000        0.01143486        0.00421046        0.00293491        0.00452841
      33         -0.580324        1.000000        0.02124170        0.00324250        0.02523966        0.00472323
      34         -0.580056        1.000000        0.01711376        0.00553484        0.02496392        0.00343519
      35         -0.577896        1.000000        0.03321905        0.00847371        0.00915785        0.00923677
      36         -0.577822        1.000000        0.00497996        0.00176178        0.00196668        0.00084813
      37         -0.576940        1.000000        0.02044194        0.01171102        0.01002118        0.00091636
      38         -0.575890        1.000000        0.00492883        0.00387015        0.01394668        0.00565725
      39         -0.574954        1.000000        0.01434535        0.01269108        0.01280158        0.00519095
      40         -0.574743        1.000000        0.00971438        0.01267258        0.01700673        0.00420159
      41         -0.574171        1.000000        0.01028302        0.00256779        0.01789206        0.00386227
      42         -0.573190        1.000000        0.00177241        0.00586918        0.00178039        0.01192445
      43         -0.572511        1.000000        0.00024979        0.01512120        0.02509942        0.00664644
      44         -0.571375        1.000000        0.00139032        0.01834548        0.00522501        0.00369265
      45         -0.570494        1.000000        0.00463397        0.00129379        0.01086490        0.00252324
      46         -0.569633        1.000000        0.05282087        0.00150780        0.01447656        0.00492176
      47         -0.568008        1.000000        0.00270233        0.00092842        0.00115957        0.00060698
      48         -0.567089        1.000000        0.02757236        0.00211358        0.01122816        0.02256954
      49         -0.565593        1.000000        0.07143213        0.01771280        0.00649746        0.00411386
      50         -0.564140        1.000000        0.00190693        0.00307629        0.00174447        0.00627977
      51         -0.562719        1.000000        0.00594494        0.00155046        0.00232441        0.00017825
      52         -0.560392        1.000000        0.00858765        0.00940511        0.00227653        0.00058148
      53         -0.559963        1.000000        0.00728007        0.00768156        0.00073431        0.00052754
      54         -0.559468        1.000000        0.00080362        0.00136167        0.00096224        0.00124914
      55         -0.557586        1.000000        0.00490892        0.00025514        0.00168093        0.00571669
      56         -0.554224        1.000000        0.02474894        0.02245257        0.00645737        0.00057610
      57         -0.553686        1.000000        0.00429020        0.00757898        0.03124095        0.00052284
      58         -0.552342        1.000000        0.00352136        0.01430026        0.00013812        0.00061738
      59         -0.551138        1.000000        0.02606436        0.00293037        0.00072371        0.00061913
      60         -0.545809        1.000000        0.00299090        0.00114524        0.00674718        0.00022738
      61         -0.544885        1.000000        0.01162055        0.00240207        0.00396106        0.00694305
      62         -0.541933        1.000000        0.00196142        0.00012137        0.01354288        0.00448764
      63         -0.538424        1.000000        0.00037294        0.00447216        0.00140044        0.00016597
      64         -0.537834        1.000000        0.00926751        0.00126329        0.00799561        0.00017251
      65         -0.473927        1.000000        0.00248904        0.00002304        0.00011058        0.00001023
      66         -0.469954        1.000000        0.01215939        0.00005718        0.00009677        0.00004546
      67         -0.465117        1.000000        0.57667984        0.00008398        0.00181235        0.00013423
      68         -0.464752        1.000000        0.15478298        0.00005308        0.00029780        0.00004250
      69         -0.464187        1.000000        0.06720467        0.00017388        0.00010007        0.00003275
      70         -0.463806        1.000000        0.01125421        0.00004031        0.00003090        0.00003096
      71         -0.461691        1.000000        0.31173169        0.00038838        0.00028107        0.00022419
      72         -0.460662        1.000000        0.58585870        0.00094740        0.00052783        0.00061797
      73         -0.459417        1.000000        0.40946979        0.00046533        0.00023589        0.00034820
      74         -0.458457        1.000000        0.73630084        0.00002506        0.00115583        0.00014299
      75         -0.454140        1.000000        0.58853885        0.00077853        0.00044566        0.00068366
      76         -0.451579        1.000000        0.11204035        0.00007487        0.00012217        0.00025415
      77         -0.447663        1.000000        0.72081223        0.00171723        0.00124120        0.00085250
      78         -0.443150        1.000000        0.70983949        0.00044315        0.00038986        0.00043698
      79         -0.438489        1.000000        0.74627817        0.00033508        0.00013908        0.00065995
      80         -0.410724        1.000000        0.00065843        0.00000249        0.00007981        0.00000672
      81         -0.409898        1.000000        0.00005892        0.00001020        0.00000963        0.00000208
      82         -0.407698        1.000000        0.00071427        0.00007858        0.00001377        0.00009533
      83         -0.406288        1.000000        0.00119963        0.00004845        0.00007401        0.00010751
      84         -0.402421        1.000000        0.00034190        0.00015389        0.00024532        0.00004023
      85         -0.401818        1.000000        0.00030640        0.00008487        0.00014927        0.00001375
      86         -0.400758        1.000000        0.00013176        0.00004369        0.00008747        0.00004827
      87         -0.400111        1.000000        0.00040857        0.00020291        0.00004299        0.00009524
      88         -0.398916        1.000000        0.00093924        0.00043038        0.00028189        0.00020589
      89         -0.398310        1.000000        0.00046407        0.00015728        0.00015820        0.00008827
      90         -0.398196        1.000000        0.00055961        0.00013367        0.00012378        0.00014091
      91         -0.395468        1.000000        0.00087975        0.00005568        0.00027787        0.00026579
      92         -0.390100        1.000000        0.00006823        0.00001275        0.00003621        0.00001045
      93         -0.386844        1.000000        0.00019415        0.00005391        0.00014509        0.00003532
      94         -0.323848        1.000000        0.00592731        0.00689019        0.00789977        0.00203871
      95         -0.315952        1.000000        0.00417238        0.02307209        0.05191905        0.01787337
      96         -0.305510        1.000000        0.00105576        0.00853447        0.00861994        0.00275050
      97         -0.303277        1.000000        0.00923589        0.05915229        0.00814067        0.01631189
      98         -0.298797        1.000000        0.00535325        0.10568019        0.00519739        0.02791853
      99         -0.276492        1.000000        0.00562052        0.09287216        0.08043721        0.03397710
     100         -0.273732        1.000000        0.00199463        0.09744720        0.04718129        0.02131577
     101         -0.273066        1.000000        0.00740961        0.07280733        0.03830464        0.02958841
     102         -0.269510        1.000000        0.00240197        0.06692869        0.09096470        0.08503144
     103         -0.268426        1.000000        0.00162455        0.10321628        0.05277415        0.01892855
     104         -0.265559        1.000000        0.00391112        0.03699336        0.04971132        0.11293788
     105         -0.264930        1.000000        0.00101965        0.01696647        0.05668085        0.18080561
     106         -0.264692        1.000000        0.00488892        0.06285706        0.04749120        0.07289300
     107         -0.262922        1.000000        0.00098661        0.06251022        0.09053928        0.07029582
     108         -0.257322        1.000000        0.00191323        0.06443414        0.08245175        0.04290733
     109         -0.256894        1.000000        0.00156702        0.04181857        0.09526770        0.07379761
     110         -0.256130        1.000000        0.00016461        0.06655533        0.10954905        0.04460024
     111         -0.255739        1.000000        0.00066929        0.11096401        0.06552711        0.04405353
     112         -0.254158        1.000000        0.00078195        0.01944324        0.11234945        0.04285233
     113         -0.252575        1.000000        0.00061023        0.04912377        0.01795562        0.01509145
     114         -0.251752        1.000000        0.00123385        0.03755790        0.09224507        0.05858064
     115         -0.250358        1.000000        0.00181473        0.03486386        0.11973421        0.02489502
     116         -0.247144        1.000000        0.00447953        0.03629279        0.09838505        0.02466560
     117         -0.245542        1.000000        0.00705398        0.02759281        0.02617127        0.03462562
     118         -0.244402        1.000000        0.00294759        0.06056713        0.02412015        0.09174288
     119         -0.243420        1.000000        0.00439996        0.04462306        0.05919472        0.07029800
     120         -0.242997        1.000000        0.00606701        0.06485198        0.06129392        0.07715125
     121         -0.239911        1.000000        0.00394540        0.06170348        0.04613455        0.02271486
     122         -0.238443        1.000000        0.00122261        0.01965101        0.03304208        0.01286467
     123         -0.236608        1.000000        0.00449198        0.03764193        0.01485457        0.05638807
     124         -0.236012        1.000000        0.00674444        0.02761087        0.01645409        0.05987097
     125         -0.235208        1.000000        0.00184320        0.06312440        0.06040005        0.01570579
     126         -0.233912        1.000000        0.00452564        0.03385408        0.03349112        0.05513595
     127         -0.232358        1.000000        0.00290194        0.02339172        0.03127316        0.07534254
     128         -0.231975        1.000000        0.00823981        0.01404609        0.05466954        0.01805471
     129         -0.229302        1.000000        0.00271168        0.01470591        0.00424687        0.01328402
     130         -0.227524        1.000000        0.00635641        0.03268557        0.01723133        0.03270316
     131         -0.224407        1.000000        0.00315969        0.00991007        0.00809758        0.01468239
     132         -0.223099        1.000000        0.00650288        0.02554210        0.01671635        0.01546877
     133         -0.221927        1.000000        0.00832474        0.01332714        0.02979866        0.01519522
     134         -0.219921        1.000000        0.00857064        0.02338081        0.00393076        0.02270700
     135         -0.218616        1.000000        0.01189443        0.02374463        0.00745624        0.01709138
     136         -0.217955        1.000000        0.00647239        0.01663230        0.01189902        0.00831067
     137         -0.215980        1.000000        0.00965830        0.01800508        0.00993933        0.01625413
     138         -0.215281        1.000000        0.00850266        0.01486407        0.01691049        0.00520449
     139         -0.214268        1.000000        0.00368046        0.00393372        0.00628693        0.00520670
     140         -0.213955        1.000000        0.00208751        0.00549917        0.00836770        0.00393756
     141         -0.212335        1.000000        0.00745749        0.01211543        0.01195153        0.01002878
     142         -0.211674        1.000000        0.00138889        0.00393352        0.00160797        0.00345117
     143         -0.210759        1.000000        0.00210829        0.00634643        0.00228139        0.00322781
     144         -0.209500        1.000000        0.00327749        0.00416794        0.00764694        0.00208473
     145         -0.207903        1.000000        0.00668530        0.01672719        0.00479310        0.00481903
     146         -0.207805        1.000000        0.01003626        0.00572953        0.00570443        0.00971459
     147         -0.207348        1.000000        0.00428924        0.00469853        0.00271262        0.00154531
     148         -0.206402        1.000000        0.00499508        0.00118177        0.00416489        0.00540334
     149         -0.205587        1.000000        0.00424930        0.00225740        0.00278618        0.00650077
     150         -0.205022        1.000000        0.00612525        0.00675016        0.00396470        0.00999914
     151         -0.204514        1.000000        0.00539704        0.00532786        0.00666065        0.01074061
     152         -0.203628        1.000000        0.00641909        0.00781423        0.00382375        0.00507148
     153         -0.202296        1.000000        0.00608372        0.00230673        0.00338426        0.00570676
     154         -0.201944        1.000000        0.01173616        0.00868495        0.00727552        0.01997117
     155         -0.201718        1.000000        0.00479384        0.00347830        0.00348823        0.00625212
     156         -0.201037        1.000000        0.01123064        0.00965556        0.00474746        0.01115966
     157         -0.200342        1.000000        0.00471778        0.00443850        0.00289791        0.00190833
     158         -0.199337        1.000000        0.01043105        0.00451940        0.00327629        0.01203398
     159         -0.198119        1.000000        0.00946828        0.00282686        0.00372605        0.00710554
     160         -0.197880        1.000000        0.00255658        0.00240564        0.00138975        0.00384394
     161         -0.196968        1.000000        0.00302857        0.00291919        0.00109150        0.00455449
     162         -0.196419        1.000000        0.00622514        0.00171287        0.00205108        0.00137235
     163         -0.195977        1.000000        0.00423020        0.00069520        0.00120395        0.00496858
     164         -0.195765        1.000000        0.00999373        0.00213472        0.00211779        0.00676756
     165         -0.194940        1.000000        0.00113269        0.00043727        0.00089201        0.00146119
     166         -0.194230        1.000000        0.00729246        0.00309811        0.00210138        0.00491098
     167         -0.193668        1.000000        0.00948405        0.00364248        0.00288912        0.00213402
     168         -0.193258        1.000000        0.00116923        0.00060437        0.00033704        0.00078963
     169         -0.193007        1.000000        0.00891706        0.00165892        0.00245740        0.00427310
     170         -0.192642        1.000000        0.01261754        0.00193566        0.00287099        0.00577653
     171         -0.191576        1.000000        0.00436438        0.00176523        0.00277732        0.00166210
     172         -0.190366        1.000000        0.00289970        0.00425897        0.00116129        0.00677741
     173         -0.189997        1.000000        0.00334615        0.00136544        0.00046359        0.00322546
     174         -0.189712        1.000000        0.00316917        0.00283792        0.00068709        0.00290348
     175         -0.188943        1.000000        0.00556605        0.00179416        0.00299317        0.00706353
     176         -0.188648        1.000000        0.00559246        0.00180789        0.00150656        0.00294795
     177         -0.188059        1.000000        0.00520003        0.00162057        0.00068904        0.00364217
     178         -0.187647        1.000000        0.00681327        0.00257218        0.00172734        0.00493489
     179         -0.187375        1.000000        0.00215598        0.00079360        0.00053736        0.00150655
     180         -0.187073        1.000000        0.00429501        0.00192915        0.00083520        0.00175437
     181         -0.186116        1.000000        0.00160919        0.00062960        0.00113404        0.00150791
     182         -0.185476        1.000000        0.00296249        0.00024275        0.00061424        0.00499357
     183         -0.184651        1.000000        0.00078665        0.00097402        0.00028860        0.00081159
     184         -0.183394        1.000000        0.00942744        0.00195941        0.00222454        0.00140769
     185         -0.183104        1.000000        0.01569155        0.00223535        0.00245031        0.00415100
     186         -0.182342        1.000000        0.00145099        0.00020698        0.00032830        0.00208398
     187         -0.182069        1.000000        0.02111703        0.00545763        0.00146471        0.01225453
     188         -0.181586        1.000000        0.00430467        0.00077383        0.00104262        0.00043880
     189         -0.179811        1.000000        0.00623729        0.00190810        0.00123179        0.00176736
     190         -0.176114        1.000000        0.00230208        0.00164863        0.00001983        0.00013428
     191         -0.174275        1.000000        0.00117636        0.00047658        0.00019607        0.00065264
     192         -0.173453        1.000000        0.02297896        0.00694567        0.00242732        0.00070842
     193         -0.172083        1.000000        0.08824679        0.01038126        0.00376614        0.00577979
     194         -0.171332        1.000000        0.00676130        0.00144143        0.00175020        0.00116600
     195         -0.168815        0.000000        0.11761275        0.00366417        0.00336641        0.00337813
     196         -0.167304        0.000000        0.05113248        0.00077429        0.00194782        0.00946727
     197         -0.164426        0.000000        0.09511503        0.00519438        0.00176786        0.00503980
     198         -0.158482        0.000000        0.08125688        0.00309710        0.00036077        0.00417027
     199         -0.155453        0.000000        0.01553411        0.01392639        0.00641276        0.00848265
     200         -0.155031        0.000000        0.05501166        0.00585723        0.00172419        0.00195375
     201         -0.129174        0.000000        0.00008436        0.00014958        0.00006824        0.00012553
     202         -0.074048        0.000000        0.00672761        0.15771348        0.09446492        0.47198147
     203         -0.073755        0.000000        0.00010988        0.05799789        0.00738319        0.66832109
     204         -0.071856        0.000000        0.00061226        0.05923860        0.09845364        0.62302284
     205         -0.062686        0.000000        0.00615239        0.21755627        0.13772390        0.36030881
     206         -0.055405        0.000000        0.01134518        0.16538769        0.10360924        0.44051540
     207         -0.052773        0.000000        0.00501311        0.07030831        0.03778859        0.58762658
     208         -0.049414        0.000000        0.00184160        0.38305777        0.04773409        0.27457290
     209         -0.045621        0.000000        0.00408727        0.13219457        0.14063420        0.42858832
     210         -0.040740        0.000000        0.00285651        0.55361966        0.07946968        0.05118292
     211         -0.040491        0.000000        0.00466513        0.11486555        0.55323014        0.01869132
     212         -0.038394        0.000000        0.00524779        0.09785327        0.28089617        0.30580962
     213         -0.034583        0.000000        0.00297537        0.11297022        0.45267121        0.11630995
     214         -0.033635        0.000000        0.00161118        0.22481088        0.42789873        0.02580757
     215         -0.030205        0.000000        0.00514573        0.25784513        0.36657655        0.06409223
     216         -0.026359        0.000000        0.00061560        0.28469872        0.15619325        0.23796354
     217         -0.023999        0.000000        0.00220193        0.05048906        0.59454051        0.01928366
     218         -0.022548        0.000000        0.00131450        0.39931001        0.19852330        0.08621832
     219         -0.018004        0.000000        0.00159638        0.37924868        0.13144732        0.16870721
     220         -0.017859        0.000000        0.00101230        0.39356273        0.08926053        0.19790885
     221         -0.017675        0.000000        0.00032116        0.20573166        0.09932521        0.37135357
     222         -0.014839        0.000000        0.00011715        0.04045306        0.59911110        0.04479948
     223         -0.013977        0.000000        0.00071151        0.52001591        0.14002662        0.01937535
     224         -0.011662        0.000000        0.00030523        0.57102570        0.02176349        0.07065081
     225         -0.005076        0.000000        0.00017970        0.04267554        0.61222144        0.01098398
     226          0.088309        0.000000        0.00000083        0.00003773        0.00008036        0.00001631
     227          0.098887        0.000000        0.00000177        0.00021344        0.00006107        0.00001346
     228          0.102781        0.000000        0.00000974        0.00015948        0.00003969        0.00005492
     229          0.103763        0.000000        0.00000448        0.00051461        0.00015734        0.00007673
     230          0.103953        0.000000        0.00000047        0.00007446        0.00003274        0.00001432
     231          0.108999        0.000000        0.00000657        0.00008514        0.00007093        0.00017497
     232          0.115315        0.000000        0.00000100        0.00005863        0.00009020        0.00001733
     233          0.283730        0.000000        0.00001517        0.00012057        0.00031201        0.00000317
     234          0.284821        0.000000        0.00000578        0.00009522        0.00004682        0.00000618
     235          0.286039        0.000000        0.00000638        0.00005488        0.00022982        0.00000897
     236          0.290040        0.000000        0.00000525        0.00003243        0.00001930        0.00000052
     237          0.293169        0.000000        0.00000089        0.00004248        0.00005111        0.00012509
     238          0.294703        0.000000        0.00001258        0.00033418        0.00005144        0.00002912
     239          0.295023        0.000000        0.00000694        0.00014950        0.00007222        0.00002172
     240          0.295167        0.000000        0.00000588        0.00006829        0.00015446        0.00006519
     241          0.296596        0.000000        0.00000548        0.00006951        0.00002838        0.00006186
     242          0.298059        0.000000        0.00003582        0.00020106        0.00007196        0.00007039
     243          0.300357        0.000000        0.00000374        0.00007607        0.00002792        0.00013715
     244          0.301918        0.000000        0.00000368        0.00002138        0.00003315        0.00003638
     245          0.307552        0.000000        0.00000178        0.00003526        0.00007174        0.00003623
     246          0.311191        0.000000        0.00000312        0.00003426        0.00003259        0.00002233
     247          0.316564        0.000000        0.00001937        0.00012637        0.00031131        0.00001434
     248          0.327639        0.000000        0.00000364        0.00008543        0.00001153        0.00001171
     249          0.336288        0.000000        0.00002401        0.00016406        0.00013340        0.00016845
     250          0.337493        0.000000        0.00002244        0.00008415        0.00012465        0.00005798
     251          0.337676        0.000000        0.00000512        0.00003660        0.00002445        0.00025669
     252          0.344756        0.000000        0.00000986        0.00008281        0.00007185        0.00004055
     253          0.349263        0.000000        0.00000435        0.00003328        0.00010374        0.00002477
     254          0.454597        0.000000        0.00000021        0.00000284        0.00000117        0.00000035
     255          0.459542        0.000000        0.00000058        0.00000591        0.00001196        0.00000090
     256          0.462974        0.000000        0.00000043        0.00000681        0.00001218        0.00000472
     257          0.464494        0.000000        0.00000471        0.00000585        0.00001051        0.00003336
     258          0.466161        0.000000        0.00000210        0.00000826        0.00000900        0.00001172
     259          0.467274        0.000000        0.00000051        0.00000844        0.00008809        0.00001778