# Projected DOS for atomic kind C at iteration step i = 0, E(Fermi) =    -0.172076 a.u.
#     MO Eigenvalue [a.u.]      Occupation                 s                py                pz                px
       1         -0.952917        1.000000        0.05885718        0.00031022        0.00014617        0.04303117
       2         -0.945306        1.000000        0.05737531        0.00092149        0.00917147        0.03311322
       3         -0.942427        1.000000        0.06245966        0.00029085        0.00017735        0.04383092
       4         -0.940424        1.000000        0.05893688        0.00000357        0.01301828        0.03034152
       5         -0.936657        1.000000        0.06208632        0.00023396        0.00090291        0.04295997
       6         -0.936357        1.000000        0.06020780        0.00021120        0.02000966        0.02369991
       7         -0.926085        1.000000        0.06109418        0.00309078        0.01254452        0.02831779
       8         -0.693812        1.000000        0.44282398        0.00002473        0.00001860        0.00105967
       9         -0.690003        1.000000        0.43787893        0.00004028        0.00000616        0.00180370
      10         -0.684866        1.000000        0.44033148        0.00003877        0.00000307        0.00167487
      11         -0.683701        1.000000        0.44160373        0.00000016        0.00003187        0.00077361
      12         -0.683458        1.000000        0.43989225        0.00001725        0.00035219        0.00069061
      13         -0.680384        1.000000        0.43911576        0.00001579        0.00035860        0.00093551
      14         -0.671851        1.000000        0.44111312        0.00008112        0.00064148        0.00083129
      15         -0.640367        1.000000        0.00080237        0.00072650        0.00004664        0.00003968
      16         -0.631081        1.000000        0.00003193        0.00034238        0.00002140        0.00003794
      17         -0.622812        1.000000        0.00005010        0.00003075        0.00032984        0.00002401
      18         -0.619688        1.000000        0.00016732        0.00004434        0.00065728        0.00007825
      19         -0.615426        1.000000        0.00019416        0.00004988        0.00084704        0.00008537
      20         -0.603535        1.000000        0.00017163        0.00200369        0.00183386        0.00028959
      21         -0.597806        1.000000        0.00012242        0.00105846        0.00210778        0.00082259
      22         -0.594683        1.000000        0.00024945        0.00256386        0.00153861        0.00014499
      23         -0.594373        1.000000        0.00028971        0.00045542        0.00069100        0.00016983
      24         -0.593211        1.000000        0.00022681        0.00144398        0.00081704        0.00010477
      25         -0.591256        1.000000        0.00003284        0.00094301        0.00589159        0.00240956
      26         -0.588245        1.000000        0.00004988        0.01181841        0.00239730        0.00014437
      27         -0.587614        1.000000        0.00016833        0.00629184        0.00063744        0.00027318
      28         -0.586130        1.000000        0.00034297        0.00605713        0.00173434        0.00042120
      29         -0.583927        1.000000        0.00061327        0.00040594        0.00110672        0.00018419
      30         -0.583167        1.000000        0.00015457        0.00167753        0.00578423        0.00019338
      31         -0.582585        1.000000        0.00026935        0.00676158        0.00296083        0.00075701
      32         -0.582336        1.000000        0.00028793        0.00329942        0.00074197        0.00011490
      33         -0.580369        1.000000        0.00015750        0.00186128        0.00242452        0.00054019
      34         -0.580076        1.000000        0.00017132        0.00284295        0.00224310        0.00068699
      35         -0.578438        1.000000        0.00010456        0.00494328        0.00416299        0.00013016
      36         -0.577986        1.000000        0.00018902        0.00333355        0.00962584        0.00101175
      37         -0.577674        1.000000        0.00005114        0.00113006        0.03549959        0.00042013
      38         -0.576142        1.000000        0.00045524        0.00714334        0.00248261        0.00047105
      39         -0.575208        1.000000        0.00011531        0.00354819        0.00173048        0.00036361
      40         -0.574826        1.000000        0.00028670        0.00099587        0.00512477        0.00086375
      41         -0.574316        1.000000        0.00008282        0.00335164        0.00367737        0.00118373
      42         -0.573214        1.000000        0.00020540        0.00355033        0.01347775        0.00373523
      43         -0.572804        1.000000        0.00007532        0.00121300        0.00033500        0.00040035
      44         -0.571373        1.000000        0.00000766        0.00020672        0.00006297        0.00001040
      45         -0.570793        1.000000        0.00019556        0.00383069        0.00340784        0.00053246
      46         -0.570480        1.000000        0.00004995        0.01136846        0.00986304        0.00346793
      47         -0.569815        1.000000        0.00003795        0.00578986        0.00330439        0.00019944
      48         -0.568011        1.000000        0.00001719        0.04364550        0.00619167        0.00007586
      49         -0.566928        1.000000        0.00014797        0.00093153        0.00733968        0.00050963
      50         -0.564172        1.000000        0.00010386        0.00302499        0.04229939        0.00059476
      51         -0.562723        1.000000        0.00000711        0.00814115        0.03053023        0.01303719
      52         -0.561040        1.000000        0.00005633        0.00550885        0.00667930        0.00076525
      53         -0.560387        1.000000        0.00017023        0.01789218        0.00998137        0.00249113
      54         -0.559965        1.000000        0.00014327        0.03062925        0.01234435        0.00213988
      55         -0.559375        1.000000        0.00011475        0.00127780        0.00298831        0.00094413
      56         -0.557587        1.000000        0.00042453        0.01123841        0.02618677        0.01320197
      57         -0.556618        1.000000        0.00050260        0.02886481        0.00256781        0.00176633
      58         -0.554432        1.000000        0.00026739        0.00261347        0.01054580        0.00212052
      59         -0.551156        1.000000        0.00037376        0.03325607        0.02013485        0.00293294
      60         -0.545924        1.000000        0.00018216        0.00058850        0.03453042        0.01795890
      61         -0.544889        1.000000        0.00038411        0.04003361        0.00499035        0.00346139
      62         -0.541933        1.000000        0.00051701        0.03593633        0.00168924        0.00311185
      63         -0.538446        1.000000        0.00018369        0.04274105        0.01359444        0.00176270
      64         -0.538041        1.000000        0.00005313        0.05037037        0.00005516        0.00378666
      65         -0.473952        1.000000        0.02527325        0.00408155        0.00191326        0.33515989
      66         -0.469955        1.000000        0.02227168        0.00272237        0.00233607        0.33478578
      67         -0.465113        1.000000        0.00461265        0.00063547        0.00117907        0.07101521
      68         -0.464752        1.000000        0.01756317        0.00283481        0.00490644        0.26254232
      69         -0.464189        1.000000        0.02299885        0.00064212        0.09030352        0.21876700
      70         -0.463813        1.000000        0.02653863        0.00427024        0.06598089        0.26428031
      71         -0.461699        1.000000        0.01304256        0.00021349        0.07478156        0.10810973
      72         -0.460866        1.000000        0.00300912        0.00048137        0.01802663        0.02391755
      73         -0.459447        1.000000        0.01024343        0.00201741        0.06317192        0.08088854
      74         -0.458485        1.000000        0.00061378        0.00048960        0.00137900        0.00670222
      75         -0.454241        1.000000        0.00363703        0.00221456        0.01433202        0.03622910
      76         -0.451608        1.000000        0.01940319        0.02267907        0.08795856        0.17900388
      77         -0.450243        1.000000        0.00015286        0.00070138        0.00090969        0.00214631
      78         -0.443152        1.000000        0.00036786        0.00152358        0.00216139        0.00632740
      79         -0.439586        1.000000        0.00017917        0.00046174        0.00102365        0.00119685
      80         -0.410742        1.000000        0.00000074        0.52540186        0.00174455        0.00456158
      81         -0.409900        1.000000        0.00001588        0.00170120        0.53658166        0.00245379
      82         -0.407699        1.000000        0.00000632        0.00477843        0.51812510        0.00242695
      83         -0.406292        1.000000        0.00000767        0.50982390        0.00345281        0.00376018
      84         -0.402421        1.000000        0.00003545        0.02708137        0.48514243        0.01130060
      85         -0.401822        1.000000        0.00000473        0.51703576        0.01857595        0.00168523
      86         -0.400759        1.000000        0.00003622        0.41979361        0.08093502        0.02798443
      87         -0.400112        1.000000        0.00001445        0.07696106        0.32692936        0.12986172
      88         -0.398917        1.000000        0.00000630        0.51463060        0.00655370        0.00344321
      89         -0.398314        1.000000        0.00005859        0.01487406        0.38545149        0.13663968
      90         -0.398197        1.000000        0.00004121        0.02974760        0.30875949        0.19442596
      91         -0.395468        1.000000        0.00000344        0.49987671        0.00701240        0.02126187
      92         -0.390102        1.000000        0.00002533        0.12624521        0.33275871        0.07342040
      93         -0.386861        1.000000        0.00000811        0.36577416        0.04465471        0.12108594
      94         -0.323842        1.000000        0.00001582        0.00024872        0.00011604        0.00012572
      95         -0.315921        1.000000        0.00001091        0.00005433        0.00010308        0.00001783
      96         -0.305522        1.000000        0.00003968        0.00005391        0.00035588        0.00005423
      97         -0.303267        1.000000        0.00001571        0.00009343        0.00006385        0.00003912
      98         -0.299332        1.000000        0.00004158        0.00014332        0.00009840        0.00006495
      99         -0.276639        1.000000        0.00005101        0.00006900        0.00027804        0.00031574
     100         -0.273909        1.000000        0.00006512        0.00014134        0.00018796        0.00037322
     101         -0.273376        1.000000        0.00013761        0.00059836        0.00010809        0.00134791
     102         -0.269728        1.000000        0.00010179        0.00023925        0.00007447        0.00012217
     103         -0.268748        1.000000        0.00023200        0.00041933        0.00032018        0.00042397
     104         -0.266653        1.000000        0.00013790        0.00057281        0.00008669        0.00011819
     105         -0.265242        1.000000        0.00009410        0.00022753        0.00020852        0.00020203
     106         -0.264938        1.000000        0.00018823        0.00019675        0.00045540        0.00027400
     107         -0.263328        1.000000        0.00036493        0.00052160        0.00041300        0.00015661
     108         -0.260753        1.000000        0.00009140        0.00037894        0.00009301        0.00023332
     109         -0.257656        1.000000        0.00012439        0.00027006        0.00009616        0.00009706
     110         -0.256437        1.000000        0.00015690        0.00024968        0.00029604        0.00017397
     111         -0.256062        1.000000        0.00020087        0.00046359        0.00013906        0.00020399
     112         -0.254499        1.000000        0.00022829        0.00085183        0.00020532        0.00019867
     113         -0.253894        1.000000        0.00008350        0.00064337        0.00017185        0.00014725
     114         -0.252564        1.000000        0.00041360        0.00032411        0.00075719        0.00066588
     115         -0.251026        1.000000        0.00002504        0.00006604        0.00004686        0.00019774
     116         -0.247308        1.000000        0.00020800        0.00024156        0.00013754        0.00019710
     117         -0.245709        1.000000        0.00022642        0.00037040        0.00049789        0.00032249
     118         -0.244702        1.000000        0.00014669        0.00038374        0.00011971        0.00028287
     119         -0.244475        1.000000        0.00030688        0.00014698        0.00018503        0.00011932
     120         -0.243351        1.000000        0.00007857        0.00034852        0.00027971        0.00018563
     121         -0.240288        1.000000        0.00023927        0.00017885        0.00023962        0.00039324
     122         -0.239086        1.000000        0.00015733        0.00036926        0.00030184        0.00044107
     123         -0.237190        1.000000        0.00029716        0.00041345        0.00063261        0.00014401
     124         -0.236269        1.000000        0.00020167        0.00014070        0.00061721        0.00032558
     125         -0.235699        1.000000        0.00007277        0.00011551        0.00034735        0.00040464
     126         -0.234113        1.000000        0.00010163        0.00016165        0.00054076        0.00064522
     127         -0.233480        1.000000        0.00019514        0.00046654        0.00095870        0.00025438
     128         -0.232405        1.000000        0.00007896        0.00008289        0.00016667        0.00044019
     129         -0.229410        1.000000        0.00027874        0.00085505        0.00014260        0.00024152
     130         -0.227762        1.000000        0.00039877        0.00066759        0.00063920        0.00040623
     131         -0.225413        1.000000        0.00021643        0.00031338        0.00044981        0.00068629
     132         -0.224052        1.000000        0.00025552        0.00041745        0.00099996        0.00276772
     133         -0.222361        1.000000        0.00017713        0.00003552        0.00154963        0.00124036
     134         -0.220691        1.000000        0.00012376        0.00027583        0.00032158        0.00016557
     135         -0.219020        1.000000        0.00016810        0.00062551        0.00057812        0.00022184
     136         -0.218327        1.000000        0.00032208        0.00036314        0.00028795        0.00030514
     137         -0.216233        1.000000        0.00042353        0.00024553        0.00030024        0.00043056
     138         -0.215483        1.000000        0.00012532        0.00049884        0.00145170        0.00078251
     139         -0.214605        1.000000        0.00037449        0.00139211        0.00043308        0.00056875
     140         -0.214368        1.000000        0.00071660        0.00102922        0.00078072        0.00041398
     141         -0.213408        1.000000        0.00006673        0.00043883        0.00034796        0.00013901
     142         -0.211776        1.000000        0.00016182        0.00023745        0.00119492        0.00014988
     143         -0.211150        1.000000        0.00048877        0.00065068        0.00052332        0.00023161
     144         -0.210145        1.000000        0.00018040        0.00048150        0.00068987        0.00030047
     145         -0.208580        1.000000        0.00024457        0.00062567        0.00022460        0.00075288
     146         -0.208428        1.000000        0.00015321        0.00036294        0.00032274        0.00007643
     147         -0.207771        1.000000        0.00016384        0.00063948        0.00110276        0.00015520
     148         -0.207417        1.000000        0.00023875        0.00029327        0.00043505        0.00049028
     149         -0.205793        1.000000        0.00022760        0.00085204        0.00020525        0.00015523
     150         -0.205455        1.000000        0.00022752        0.00037946        0.00024506        0.00043160
     151         -0.205045        1.000000        0.00006024        0.00075161        0.00033970        0.00029159
     152         -0.203876        1.000000        0.00020555        0.00016120        0.00007897        0.00027840
     153         -0.203271        1.000000        0.00019962        0.00020886        0.00014383        0.00012916
     154         -0.202405        1.000000        0.00016228        0.00048851        0.00036165        0.00054345
     155         -0.201917        1.000000        0.00012586        0.00005166        0.00028015        0.00036974
     156         -0.201169        1.000000        0.00008530        0.00011328        0.00014594        0.00015926
     157         -0.200652        1.000000        0.00025816        0.00033409        0.00019796        0.00020281
     158         -0.199565        1.000000        0.00021012        0.00018130        0.00034194        0.00015040
     159         -0.198540        1.000000        0.00011846        0.00016572        0.00021621        0.00007390
     160         -0.197965        1.000000        0.00024586        0.00013883        0.00005359        0.00030052
     161         -0.197009        1.000000        0.00062112        0.00111677        0.00039590        0.00047771
     162         -0.196588        1.000000        0.00010276        0.00219707        0.00028490        0.00007718
     163         -0.196292        1.000000        0.00012451        0.00130682        0.00033550        0.00035689
     164         -0.195928        1.000000        0.00010391        0.00021165        0.00032830        0.00004208
     165         -0.195079        1.000000        0.00004675        0.00032240        0.00031512        0.00007244
     166         -0.194734        1.000000        0.00004823        0.00018194        0.00009801        0.00030741
     167         -0.193767        1.000000        0.00004773        0.00032833        0.00031759        0.00041948
     168         -0.193491        1.000000        0.00001714        0.00017146        0.00024531        0.00003436
     169         -0.193360        1.000000        0.00002605        0.00026114        0.00029112        0.00020842
     170         -0.192849        1.000000        0.00003347        0.00013482        0.00007534        0.00009364
     171         -0.191807        1.000000        0.00006325        0.00061798        0.00016486        0.00018753
     172         -0.191160        1.000000        0.00036644        0.00034525        0.00086285        0.00024395
     173         -0.190215        1.000000        0.00016581        0.00035349        0.00040601        0.00008295
     174         -0.190078        1.000000        0.00015311        0.00059071        0.00013725        0.00025077
     175         -0.189443        1.000000        0.00006827        0.00074505        0.00032062        0.00004476
     176         -0.188827        1.000000        0.00007262        0.00023925        0.00008682        0.00014979
     177         -0.188174        1.000000        0.00009121        0.00025925        0.00007893        0.00004343
     178         -0.187747        1.000000        0.00010541        0.00026837        0.00007236        0.00012182
     179         -0.187688        1.000000        0.00008917        0.00061733        0.00010494        0.00007808
     180         -0.187342        1.000000        0.00002705        0.00007331        0.00005642        0.00006154
     181         -0.186851        1.000000        0.00032224        0.00009541        0.00016738        0.00048684
     182         -0.186471        1.000000        0.00037522        0.00015449        0.00083713        0.00027570
     183         -0.186117        1.000000        0.00005006        0.00003467        0.00010114        0.00003075
     184         -0.184686        1.000000        0.00002370        0.00012979        0.00009324        0.00015235
     185         -0.184080        1.000000        0.00031975        0.00047249        0.00082511        0.00020172
     186         -0.183199        1.000000        0.00011655        0.00017157        0.00085656        0.00000877
     187         -0.182472        1.000000        0.00003891        0.00004258        0.00031586        0.00000304
     188         -0.182395        1.000000        0.00003264        0.00002701        0.00015564        0.00003709
     189         -0.181912        1.000000        0.00006269        0.00018207        0.00056915        0.00005567
     190         -0.178395        1.000000        0.00036133        0.00035968        0.00007400        0.00042223
     191         -0.176336        1.000000        0.00001604        0.00002661        0.00007688        0.00005068
     192         -0.174274        1.000000        0.00000388        0.00000385        0.00000454        0.00005234
     193         -0.174212        1.000000        0.00004535        0.00000790        0.00010105        0.00002850
     194         -0.172600        1.000000        0.00001821        0.00002491        0.00002560        0.00004353
     195         -0.172076        1.000000        0.00000842        0.00000722        0.00002532        0.00002333
     196         -0.168825        0.000000        0.00001458        0.00000803        0.00003231        0.00002406
     197         -0.167272        0.000000        0.00001192        0.00002669        0.00004917        0.00000551
     198         -0.160676        0.000000        0.00001475        0.00003980        0.00001515        0.00000582
     199         -0.155514        0.000000        0.00001448        0.00004437        0.00000755        0.00003903
     200         -0.155092        0.000000        0.00000835        0.00001917        0.00000488        0.00001615
     201         -0.129184        0.000000        0.00000633        0.00001238        0.00001989        0.00000905
     202         -0.074147        0.000000        0.00007203        0.00010881        0.00003566        0.00016666
     203         -0.073774        0.000000        0.00002061        0.00002387        0.00004303        0.00002313
     204         -0.072841        0.000000        0.00005085        0.00000634        0.00004404        0.00003144
     205         -0.062705        0.000000        0.00007780        0.00000898        0.00014747        0.00016572
     206         -0.055851        0.000000        0.00002047        0.00004283        0.00001567        0.00002152
     207         -0.052996        0.000000        0.00005954        0.00000930        0.00006956        0.00002595
     208         -0.049521        0.000000        0.00001319        0.00008969        0.00003015        0.00007799
     209         -0.046687        0.000000        0.00001005        0.00001593        0.00001469        0.00001788
     210         -0.040753        0.000000        0.00001327        0.00003499        0.00003019        0.00003937
     211         -0.040500        0.000000        0.00004538        0.00008271        0.00001000        0.00003979
     212         -0.038560        0.000000        0.00001510        0.00002710        0.00002611        0.00005380
     213         -0.034739        0.000000        0.00001008        0.00001256        0.00001089        0.00000484
     214         -0.033646        0.000000        0.00003052        0.00001007        0.00006882        0.00011368
     215         -0.030607        0.000000        0.00001435        0.00000063        0.00000544        0.00005022
     216         -0.026411        0.000000        0.00001647        0.00000762        0.00000632        0.00001281
     217         -0.024009        0.000000        0.00004980        0.00002100        0.00009820        0.00003071
     218         -0.022597        0.000000        0.00000457        0.00000732        0.00009613        0.00007632
     219         -0.020636        0.000000        0.00005336        0.00003383        0.00003062        0.00004730
     220         -0.017987        0.000000        0.00003408        0.00004404        0.00002540        0.00003063
     221         -0.017747        0.000000        0.00001185        0.00004108        0.00005054        0.00002400
     222         -0.014871        0.000000        0.00001263        0.00000139        0.00002823        0.00013840
     223         -0.014479        0.000000        0.00000942        0.00001128        0.00005248        0.00004806
     224         -0.011895        0.000000        0.00011500        0.00003863        0.00017145        0.00011625
     225         -0.008742        0.000000        0.00004213        0.00003420        0.00002143        0.00010106
     226          0.088306        0.000000        0.07960984        0.00360579        0.00193328        0.55011452
     227          0.098883        0.000000        0.07876398        0.01041014        0.12001644        0.42802814
     228          0.102780        0.000000        0.07880215        0.00357870        0.00547102        0.54034156
     229          0.103763        0.000000        0.07867660        0.00017055        0.16179123        0.39199339
     230          0.103953        0.000000        0.08150470        0.00294226        0.01011220        0.53382865
     231          0.108999        0.000000        0.07916490        0.00249744        0.24597169        0.30407018
     232          0.115315        0.000000        0.08111465        0.03722509        0.15673575        0.35521272
     233          0.283667        0.000000        0.00014046        0.00543373        0.00000810        0.00006921
     234          0.284818        0.000000        0.00000050        0.00005911        0.00588379        0.00000428
     235          0.286037        0.000000        0.00000768        0.00544891        0.00059213        0.00006038
     236          0.290040        0.000000        0.00003687        0.00438215        0.00065677        0.00001986
     237          0.293168        0.000000        0.00003132        0.00044908        0.00329517        0.00179632
     238          0.294703        0.000000        0.00009356        0.00407931        0.00157615        0.00054580
     239          0.295023        0.000000        0.00002151        0.00208520        0.00251760        0.00125676
     240          0.295166        0.000000        0.00005491        0.00516692        0.00085281        0.00008337
     241          0.296596        0.000000        0.00015020        0.00075477        0.00218432        0.00275713
     242          0.298058        0.000000        0.00004156        0.00028107        0.00758489        0.00004225
     243          0.300357        0.000000        0.00000042        0.00541072        0.00063617        0.00017613
     244          0.301917        0.000000        0.00034977        0.00174906        0.00563182        0.00000051
     245          0.307550        0.000000        0.00000064        0.00313590        0.00155092        0.00176838
     246          0.311187        0.000000        0.00000246        0.00332583        0.00336512        0.00049299
     247          0.316486        0.000000        0.00473727        0.00012586        0.00000211        0.00002174
     248          0.327638        0.000000        0.00456737        0.00018114        0.00003902        0.00003366
     249          0.336288        0.000000        0.00533344        0.00001851        0.00007026        0.00029712
     250          0.337491        0.000000        0.00507068        0.00008495        0.00019040        0.00022368
     251          0.337676        0.000000        0.00497224        0.00000853        0.00019736        0.00006715
     252          0.344754        0.000000        0.00488685        0.00088318        0.00011161        0.00009342
     253          0.349257        0.000000        0.00523118        0.00000364        0.00001509        0.00009160
     254          0.454596        0.000000        0.00004770        0.08924607        0.30024298        0.00294083
     255          0.459540        0.000000        0.00002119        0.30249349        0.09074062        0.00096641
     256          0.462974        0.000000        0.00009260        0.36684531        0.02370066        0.00279561
     257          0.464494        0.000000        0.00012648        0.01351716        0.37782218        0.00130041
     258          0.466160        0.000000        0.00003690        0.38251722        0.00789410        0.00340656
     259          0.467274        0.000000        0.00061901        0.01855542        0.36264153        0.00980491