# Projected DOS for atomic kind H at iteration step i = 0, E(Fermi) =    -0.171332 a.u.
#     MO Eigenvalue [a.u.]      Occupation                 s
       1         -0.952920        1.000000        0.28164872
       2         -0.945307        1.000000        0.28346044
       3         -0.942426        1.000000        0.28037361
       4         -0.940424        1.000000        0.28246483
       5         -0.936657        1.000000        0.27978736
       6         -0.936357        1.000000        0.28130530
       7         -0.926086        1.000000        0.28053873
       8         -0.693809        1.000000        0.34285686
       9         -0.690003        1.000000        0.34834164
      10         -0.684866        1.000000        0.34845449
      11         -0.683700        1.000000        0.34081604
      12         -0.683458        1.000000        0.34387062
      13         -0.680384        1.000000        0.34522087
      14         -0.671849        1.000000        0.34655243
      15         -0.640366        1.000000        0.00807859
      16         -0.631104        1.000000        0.00157406
      17         -0.622824        1.000000        0.00079172
      18         -0.619654        1.000000        0.00266315
      19         -0.614883        1.000000        0.00705594
      20         -0.603480        1.000000        0.01525350
      21         -0.597755        1.000000        0.01969661
      22         -0.594222        1.000000        0.00903616
      23         -0.594030        1.000000        0.00998295
      24         -0.592278        1.000000        0.01891607
      25         -0.591212        1.000000        0.06907271
      26         -0.587664        1.000000        0.01602433
      27         -0.586484        1.000000        0.07537971
      28         -0.585399        1.000000        0.10153053
      29         -0.583846        1.000000        0.01518240
      30         -0.582996        1.000000        0.06120234
      31         -0.582420        1.000000        0.06703015
      32         -0.582207        1.000000        0.05034328
      33         -0.580324        1.000000        0.03105368
      34         -0.580056        1.000000        0.03810268
      35         -0.577896        1.000000        0.06763409
      36         -0.577822        1.000000        0.24376269
      37         -0.576940        1.000000        0.06639565
      38         -0.575890        1.000000        0.07361438
      39         -0.574954        1.000000        0.03463449
      40         -0.574743        1.000000        0.04492452
      41         -0.574171        1.000000        0.06738552
      42         -0.573190        1.000000        0.14414251
      43         -0.572511        1.000000        0.00862089
      44         -0.571375        1.000000        0.00198341
      45         -0.570494        1.000000        0.17972827
      46         -0.569633        1.000000        0.07920646
      47         -0.568008        1.000000        0.27988068
      48         -0.567089        1.000000        0.04914131
      49         -0.565593        1.000000        0.02146616
      50         -0.564140        1.000000        0.22882985
      51         -0.562719        1.000000        0.28618090
      52         -0.560392        1.000000        0.18328003
      53         -0.559963        1.000000        0.23683981
      54         -0.559468        1.000000        0.01917185
      55         -0.557586        1.000000        0.25692783
      56         -0.554224        1.000000        0.08100140
      57         -0.553686        1.000000        0.05301355
      58         -0.552342        1.000000        0.06551652
      59         -0.551138        1.000000        0.23646785
      60         -0.545809        1.000000        0.25548290
      61         -0.544885        1.000000        0.18972748
      62         -0.541933        1.000000        0.15061411
      63         -0.538424        1.000000        0.18368812
      64         -0.537834        1.000000        0.22960587
      65         -0.473927        1.000000        0.17609967
      66         -0.469954        1.000000        0.17313798
      67         -0.465117        1.000000        0.03664019
      68         -0.464752        1.000000        0.14047126
      69         -0.464187        1.000000        0.16273862
      70         -0.463806        1.000000        0.17696736
      71         -0.461691        1.000000        0.09904357
      72         -0.460662        1.000000        0.02318400
      73         -0.459417        1.000000        0.07107521
      74         -0.458457        1.000000        0.00472978
      75         -0.454140        1.000000        0.03007207
      76         -0.451579        1.000000        0.14732643
      77         -0.447663        1.000000        0.00092192
      78         -0.443150        1.000000        0.00420842
      79         -0.438489        1.000000        0.00163581
      80         -0.410724        1.000000        0.42172558
      81         -0.409898        1.000000        0.42056431
      82         -0.407698        1.000000        0.42237137
      83         -0.406288        1.000000        0.42135768
      84         -0.402421        1.000000        0.42375478
      85         -0.401818        1.000000        0.42213195
      86         -0.400758        1.000000        0.42096527
      87         -0.400111        1.000000        0.42186769
      88         -0.398916        1.000000        0.41957024
      89         -0.398310        1.000000        0.41774860
      90         -0.398196        1.000000        0.42094039
      91         -0.395468        1.000000        0.41973095
      92         -0.390100        1.000000        0.42458877
      93         -0.386844        1.000000        0.42034045
      94         -0.323848        1.000000        0.00065322
      95         -0.315952        1.000000        0.00011971
      96         -0.305510        1.000000        0.00041016
      97         -0.303277        1.000000        0.00012492
      98         -0.298797        1.000000        0.00018969
      99         -0.276492        1.000000        0.00046294
     100         -0.273732        1.000000        0.00097622
     101         -0.273066        1.000000        0.00133972
     102         -0.269510        1.000000        0.00041773
     103         -0.268426        1.000000        0.00046868
     104         -0.265559        1.000000        0.00058563
     105         -0.264930        1.000000        0.00055390
     106         -0.264692        1.000000        0.00049139
     107         -0.262922        1.000000        0.00047628
     108         -0.257322        1.000000        0.00036953
     109         -0.256894        1.000000        0.00044509
     110         -0.256130        1.000000        0.00049181
     111         -0.255739        1.000000        0.00050667
     112         -0.254158        1.000000        0.00066428
     113         -0.252575        1.000000        0.00084908
     114         -0.251752        1.000000        0.00078423
     115         -0.250358        1.000000        0.00042091
     116         -0.247144        1.000000        0.00045117
     117         -0.245542        1.000000        0.00062925
     118         -0.244402        1.000000        0.00050005
     119         -0.243420        1.000000        0.00063474
     120         -0.242997        1.000000        0.00036249
     121         -0.239911        1.000000        0.00052703
     122         -0.238443        1.000000        0.00032745
     123         -0.236608        1.000000        0.00082716
     124         -0.236012        1.000000        0.00057927
     125         -0.235208        1.000000        0.00063136
     126         -0.233912        1.000000        0.00124884
     127         -0.232358        1.000000        0.00088654
     128         -0.231975        1.000000        0.00050016
     129         -0.229302        1.000000        0.00121066
     130         -0.227524        1.000000        0.00072473
     131         -0.224407        1.000000        0.00268471
     132         -0.223099        1.000000        0.00075956
     133         -0.221927        1.000000        0.00135906
     134         -0.219921        1.000000        0.00052285
     135         -0.218616        1.000000        0.00102742
     136         -0.217955        1.000000        0.00069611
     137         -0.215980        1.000000        0.00075521
     138         -0.215281        1.000000        0.00248287
     139         -0.214268        1.000000        0.00103390
     140         -0.213955        1.000000        0.00173720
     141         -0.212335        1.000000        0.00178081
     142         -0.211674        1.000000        0.00193540
     143         -0.210759        1.000000        0.00103820
     144         -0.209500        1.000000        0.00072898
     145         -0.207903        1.000000        0.00131786
     146         -0.207805        1.000000        0.00054675
     147         -0.207348        1.000000        0.00093837
     148         -0.206402        1.000000        0.00246610
     149         -0.205587        1.000000        0.00127040
     150         -0.205022        1.000000        0.00155482
     151         -0.204514        1.000000        0.00064279
     152         -0.203628        1.000000        0.00081494
     153         -0.202296        1.000000        0.00128658
     154         -0.201944        1.000000        0.00116784
     155         -0.201718        1.000000        0.00129704
     156         -0.201037        1.000000        0.00051143
     157         -0.200342        1.000000        0.00067395
     158         -0.199337        1.000000        0.00058420
     159         -0.198119        1.000000        0.00113215
     160         -0.197880        1.000000        0.00171555
     161         -0.196968        1.000000        0.00080642
     162         -0.196419        1.000000        0.00091411
     163         -0.195977        1.000000        0.00134451
     164         -0.195765        1.000000        0.00127560
     165         -0.194940        1.000000        0.00202416
     166         -0.194230        1.000000        0.00050456
     167         -0.193668        1.000000        0.00120506
     168         -0.193258        1.000000        0.00092977
     169         -0.193007        1.000000        0.00037166
     170         -0.192642        1.000000        0.00045271
     171         -0.191576        1.000000        0.00249976
     172         -0.190366        1.000000        0.00110864
     173         -0.189997        1.000000        0.00358510
     174         -0.189712        1.000000        0.00050797
     175         -0.188943        1.000000        0.00145225
     176         -0.188648        1.000000        0.00068978
     177         -0.188059        1.000000        0.00033080
     178         -0.187647        1.000000        0.00029840
     179         -0.187375        1.000000        0.00013121
     180         -0.187073        1.000000        0.00045015
     181         -0.186116        1.000000        0.00017235
     182         -0.185476        1.000000        0.00038625
     183         -0.184651        1.000000        0.00135344
     184         -0.183394        1.000000        0.00063796
     185         -0.183104        1.000000        0.00041269
     186         -0.182342        1.000000        0.00041981
     187         -0.182069        1.000000        0.00028577
     188         -0.181586        1.000000        0.00049561
     189         -0.179811        1.000000        0.00012822
     190         -0.176114        1.000000        0.00031227
     191         -0.174275        1.000000        0.00014284
     192         -0.173453        1.000000        0.00013347
     193         -0.172083        1.000000        0.00026764
     194         -0.171332        1.000000        0.00002835
     195         -0.168815        0.000000        0.00015487
     196         -0.167304        0.000000        0.00003376
     197         -0.164426        0.000000        0.00013691
     198         -0.158482        0.000000        0.00012085
     199         -0.155453        0.000000        0.00017804
     200         -0.155031        0.000000        0.00008244
     201         -0.129174        0.000000        0.00002651
     202         -0.074048        0.000000        0.00052441
     203         -0.073755        0.000000        0.00006888
     204         -0.071856        0.000000        0.00029379
     205         -0.062686        0.000000        0.00084536
     206         -0.055405        0.000000        0.00027409
     207         -0.052773        0.000000        0.00017753
     208         -0.049414        0.000000        0.00022223
     209         -0.045621        0.000000        0.00017261
     210         -0.040740        0.000000        0.00020851
     211         -0.040491        0.000000        0.00021718
     212         -0.038394        0.000000        0.00045437
     213         -0.034583        0.000000        0.00017303
     214         -0.033635        0.000000        0.00024106
     215         -0.030205        0.000000        0.00045918
     216         -0.026359        0.000000        0.00036889
     217         -0.023999        0.000000        0.00010528
     218         -0.022548        0.000000        0.00079588
     219         -0.018004        0.000000        0.00011280
     220         -0.017859        0.000000        0.00015170
     221         -0.017675        0.000000        0.00017485
     222         -0.014839        0.000000        0.00060788
     223         -0.013977        0.000000        0.00033092
     224         -0.011662        0.000000        0.00023826
     225         -0.005076        0.000000        0.00099836
     226          0.088309        0.000000        0.00337539
     227          0.098887        0.000000        0.00283959
     228          0.102781        0.000000        0.00465490
     229          0.103763        0.000000        0.00423149
     230          0.103953        0.000000        0.00389461
     231          0.108999        0.000000        0.00366259
     232          0.115315        0.000000        0.00335068
     233          0.283730        0.000000        0.66130965
     234          0.284821        0.000000        0.65850598
     235          0.286039        0.000000        0.66705071
     236          0.290040        0.000000        0.66005504
     237          0.293169        0.000000        0.65941260
     238          0.294703        0.000000        0.66297930
     239          0.295023        0.000000        0.66155213
     240          0.295167        0.000000        0.66402368
     241          0.296596        0.000000        0.65848245
     242          0.298059        0.000000        0.66131991
     243          0.300357        0.000000        0.66120015
     244          0.301918        0.000000        0.65710067
     245          0.307552        0.000000        0.66239008
     246          0.311191        0.000000        0.66182834
     247          0.316564        0.000000        0.63482212
     248          0.327639        0.000000        0.63347885
     249          0.336288        0.000000        0.63165772
     250          0.337493        0.000000        0.63144342
     251          0.337676        0.000000        0.63174084
     252          0.344756        0.000000        0.63233089
     253          0.349263        0.000000        0.63129504
     254          0.454597        0.000000        0.58397250
     255          0.459542        0.000000        0.58418721
     256          0.462974        0.000000        0.58143486
     257          0.464494        0.000000        0.57926851
     258          0.466161        0.000000        0.58132883
     259          0.467274        0.000000        0.58173444
     260          0.468492        0.000000        0.58432099
     261          0.470006        0.000000        0.58293175
     262          0.470874        0.000000        0.58511058
     263          0.472370        0.000000        0.58248686
     264          0.473060        0.000000        0.58226371
     265          0.473369        0.000000        0.58366823
     266          0.477104        0.000000        0.58387639
     267          0.479767        0.000000        0.58049219
     268          0.550722        0.000000        0.55418889
     269          0.560088        0.000000        0.55227780
     270          0.563958        0.000000        0.55257745
     271          0.566368        0.000000        0.55376643
     272          0.568050        0.000000        0.55280565
     273          0.571885        0.000000        0.55238847
     274          0.575461        0.000000        0.55317209
