# Projected DOS for atomic kind N at iteration step i = 0, E(Fermi) =    -0.172076 a.u.
#     MO Eigenvalue [a.u.]      Occupation                 s                py                pz                px
       1         -0.952917        1.000000        0.61487035        0.00024074        0.00001485        0.00009702
       2         -0.945306        1.000000        0.61476023        0.00004659        0.00001429        0.00023584
       3         -0.942427        1.000000        0.61147430        0.00014767        0.00000092        0.00004794
       4         -0.940424        1.000000        0.61384835        0.00016796        0.00035802        0.00001422
       5         -0.936657        1.000000        0.61274590        0.00005596        0.00011325        0.00005395
       6         -0.936357        1.000000        0.61321200        0.00000028        0.00003036        0.00037174
       7         -0.926085        1.000000        0.61321566        0.00002461        0.00015370        0.00001552
       8         -0.693812        1.000000        0.01613964        0.00272889        0.00067280        0.19247909
       9         -0.690003        1.000000        0.01758704        0.00182035        0.00077709        0.18813311
      10         -0.684866        1.000000        0.01733111        0.00100554        0.00434498        0.18427472
      11         -0.683701        1.000000        0.01506285        0.00335608        0.03681825        0.15839902
      12         -0.683458        1.000000        0.01524364        0.00042819        0.06127299        0.13524514
      13         -0.680384        1.000000        0.01620032        0.00083012        0.08158091        0.11183354
      14         -0.671851        1.000000        0.01697232        0.01211272        0.05787866        0.12123525
      15         -0.640367        1.000000        0.00052122        0.00707759        0.00035655        0.00015042
      16         -0.631081        1.000000        0.00007255        0.00187649        0.00020817        0.00002237
      17         -0.622812        1.000000        0.00001782        0.00011144        0.00098805        0.00001704
      18         -0.619688        1.000000        0.00002927        0.00004768        0.00379908        0.00010353
      19         -0.615426        1.000000        0.00017235        0.00015449        0.00875062        0.00018602
      20         -0.603535        1.000000        0.00010973        0.00686858        0.01400390        0.00143601
      21         -0.597806        1.000000        0.00028566        0.00845321        0.01450677        0.00523520
      22         -0.594683        1.000000        0.00010305        0.01807680        0.00746495        0.00059521
      23         -0.594373        1.000000        0.00032221        0.00300232        0.00579514        0.00031171
      24         -0.593211        1.000000        0.00002485        0.01211689        0.00536355        0.00191639
      25         -0.591256        1.000000        0.00017519        0.00863705        0.07436286        0.02201296
      26         -0.588245        1.000000        0.00019874        0.12363509        0.02021117        0.00090661
      27         -0.587614        1.000000        0.00023188        0.05293467        0.00586990        0.00065412
      28         -0.586130        1.000000        0.00024921        0.06860915        0.01843469        0.00262564
      29         -0.583927        1.000000        0.00016878        0.00434066        0.00889063        0.00275088
      30         -0.583167        1.000000        0.00005842        0.02172199        0.05048544        0.00205108
      31         -0.582585        1.000000        0.00045934        0.07880598        0.03562834        0.00459465
      32         -0.582336        1.000000        0.00012495        0.03311570        0.00880190        0.00010473
      33         -0.580369        1.000000        0.00010574        0.02094492        0.02356845        0.00497039
      34         -0.580076        1.000000        0.00011871        0.03040447        0.02250287        0.00386148
      35         -0.578438        1.000000        0.00002335        0.05272389        0.04870129        0.00133932
      36         -0.577986        1.000000        0.00018716        0.02918533        0.10517078        0.01049751
      37         -0.577674        1.000000        0.00004410        0.00964670        0.37955983        0.00333919
      38         -0.576142        1.000000        0.00017549        0.08586551        0.01934218        0.00235859
      39         -0.575208        1.000000        0.00007629        0.02820395        0.01696725        0.00394403
      40         -0.574826        1.000000        0.00006714        0.01503840        0.05035816        0.01198945
      41         -0.574316        1.000000        0.00010869        0.03991695        0.05001913        0.01150737
      42         -0.573214        1.000000        0.00025076        0.03875158        0.14956348        0.03717592
      43         -0.572804        1.000000        0.00002306        0.00700405        0.00524902        0.00337695
      44         -0.571373        1.000000        0.00000269        0.00198139        0.00078144        0.00040560
      45         -0.570793        1.000000        0.00021884        0.04684638        0.03359159        0.00606979
      46         -0.570480        1.000000        0.00005904        0.13064445        0.09947812        0.04171899
      47         -0.569815        1.000000        0.00017545        0.05912368        0.02474861        0.00054073
      48         -0.568011        1.000000        0.00024330        0.45620916        0.06267253        0.00039687
      49         -0.566928        1.000000        0.00026510        0.00603464        0.06192471        0.01095537
      50         -0.564172        1.000000        0.00008956        0.03166859        0.38961986        0.00436736
      51         -0.562723        1.000000        0.00029888        0.08409169        0.31608880        0.12925186
      52         -0.561040        1.000000        0.00018273        0.04784529        0.03437893        0.01956833
      53         -0.560387        1.000000        0.00035364        0.16141905        0.09026352        0.02424420
      54         -0.559965        1.000000        0.00045716        0.28122722        0.11134427        0.02555654
      55         -0.559375        1.000000        0.00012716        0.01337399        0.03171877        0.01029482
      56         -0.557587        1.000000        0.00117032        0.11045977        0.21470916        0.15715574
      57         -0.556618        1.000000        0.00118703        0.24798027        0.02243205        0.00097526
      58         -0.554432        1.000000        0.00009985        0.02647695        0.12593248        0.03341034
      59         -0.551156        1.000000        0.00091688        0.27938809        0.17535822        0.00550168
      60         -0.545924        1.000000        0.00050292        0.00415144        0.34270984        0.14235498
      61         -0.544889        1.000000        0.00084382        0.32384292        0.03667129        0.02779483
      62         -0.541933        1.000000        0.00119616        0.29013176        0.01784468        0.01427533
      63         -0.538446        1.000000        0.00053755        0.29681648        0.09303006        0.00681204
      64         -0.538041        1.000000        0.00018053        0.41950982        0.00104919        0.04260274
      65         -0.473952        1.000000        0.00854972        0.00111505        0.00184072        0.43707501
      66         -0.469955        1.000000        0.00866001        0.00230470        0.00281845        0.42526479
      67         -0.465113        1.000000        0.00177456        0.00064178        0.00150909        0.09063273
      68         -0.464752        1.000000        0.00694170        0.00232515        0.00496893        0.33654341
      69         -0.464189        1.000000        0.00882470        0.00125777        0.11806041        0.27735607
      70         -0.463813        1.000000        0.00922090        0.01060435        0.09484872        0.32657965
      71         -0.461699        1.000000        0.00520383        0.00343363        0.09722313        0.13253097
      72         -0.460866        1.000000        0.00108336        0.00035933        0.02396035        0.02972829
      73         -0.459447        1.000000        0.00334385        0.00036762        0.08810841        0.09822726
      74         -0.458485        1.000000        0.00009367        0.00077441        0.00370288        0.00606430
      75         -0.454241        1.000000        0.00161425        0.00756706        0.02084518        0.03883327
      76         -0.451608        1.000000        0.00701017        0.02552520        0.10568705        0.23889618
      77         -0.450243        1.000000        0.00003533        0.00049263        0.00058237        0.00371212
      78         -0.443152        1.000000        0.00001685        0.00139343        0.00381144        0.00762119
      79         -0.439586        1.000000        0.00000647        0.00119206        0.00039770        0.00173128
      80         -0.410742        1.000000        0.00000618        0.03823284        0.00001598        0.00076116
      81         -0.409900        1.000000        0.00000591        0.00024438        0.03371397        0.00025725
      82         -0.407699        1.000000        0.00000749        0.00033105        0.03852909        0.00046038
      83         -0.406292        1.000000        0.00000643        0.04390417        0.00044037        0.00045771
      84         -0.402421        1.000000        0.00001017        0.00378638        0.03863541        0.00088603
      85         -0.401822        1.000000        0.00000050        0.03291074        0.00104316        0.00007784
      86         -0.400759        1.000000        0.00001588        0.03327217        0.00479908        0.00244900
      87         -0.400112        1.000000        0.00001009        0.00578766        0.02185455        0.00893579
      88         -0.398917        1.000000        0.00001735        0.03934250        0.00041202        0.00036537
      89         -0.398314        1.000000        0.00000376        0.00092509        0.02593575        0.00754368
      90         -0.398197        1.000000        0.00001138        0.00203586        0.02145398        0.01271046
      91         -0.395468        1.000000        0.00001126        0.03698853        0.00055051        0.00192134
      92         -0.390102        1.000000        0.00000193        0.00963053        0.02337021        0.00579689
      93         -0.386861        1.000000        0.00000691        0.02695472        0.00292635        0.00949520
      94         -0.323842        1.000000        0.00026085        0.00149429        0.00026911        0.00036954
      95         -0.315921        1.000000        0.00005312        0.00007713        0.00005781        0.00001334
      96         -0.305522        1.000000        0.00003209        0.00003161        0.00009644        0.00001301
      97         -0.303267        1.000000        0.00006135        0.00008573        0.00017266        0.00002515
      98         -0.299332        1.000000        0.00010991        0.00001734        0.00051369        0.00010594
      99         -0.276639        1.000000        0.00042809        0.00147058        0.00022910        0.00040723
     100         -0.273909        1.000000        0.00050151        0.00095741        0.00120528        0.00046488
     101         -0.273376        1.000000        0.00197775        0.00443615        0.00025231        0.00182316
     102         -0.269728        1.000000        0.00025596        0.00031473        0.00024558        0.00012290
     103         -0.268748        1.000000        0.00051818        0.00023675        0.00025604        0.00021728
     104         -0.266653        1.000000        0.00020458        0.00062625        0.00021285        0.00018951
     105         -0.265242        1.000000        0.00028316        0.00077754        0.00078487        0.00009525
     106         -0.264938        1.000000        0.00030041        0.00134657        0.00038227        0.00038037
     107         -0.263328        1.000000        0.00016524        0.00013817        0.00043508        0.00022366
     108         -0.260753        1.000000        0.00050402        0.00139625        0.00064141        0.00047803
     109         -0.257656        1.000000        0.00022748        0.00108480        0.00049266        0.00057736
     110         -0.256437        1.000000        0.00024463        0.00013326        0.00031152        0.00017115
     111         -0.256062        1.000000        0.00021683        0.00017060        0.00051721        0.00014869
     112         -0.254499        1.000000        0.00032742        0.00121856        0.00014438        0.00044646
     113         -0.253894        1.000000        0.00021465        0.00082031        0.00006262        0.00020448
     114         -0.252564        1.000000        0.00087347        0.00021148        0.00037274        0.00045376
     115         -0.251026        1.000000        0.00036547        0.00062404        0.00048577        0.00037098
     116         -0.247308        1.000000        0.00015768        0.00041696        0.00048055        0.00019565
     117         -0.245709        1.000000        0.00046183        0.00038298        0.00037968        0.00030912
     118         -0.244702        1.000000        0.00026257        0.00049379        0.00047582        0.00033903
     119         -0.244475        1.000000        0.00012959        0.00080458        0.00017626        0.00011187
     120         -0.243351        1.000000        0.00028033        0.00066765        0.00031483        0.00023551
     121         -0.240288        1.000000        0.00025279        0.00063604        0.00031706        0.00018660
     122         -0.239086        1.000000        0.00027559        0.00084208        0.00197737        0.00025188
     123         -0.237190        1.000000        0.00054905        0.00027480        0.00135903        0.00031057
     124         -0.236269        1.000000        0.00039659        0.00055454        0.00081049        0.00009136
     125         -0.235699        1.000000        0.00096406        0.00012701        0.00054092        0.00053037
     126         -0.234113        1.000000        0.00165442        0.00066368        0.00234732        0.00094525
     127         -0.233480        1.000000        0.00015076        0.00051165        0.00037211        0.00010102
     128         -0.232405        1.000000        0.00063771        0.00113334        0.00018471        0.00034195
     129         -0.229410        1.000000        0.00084842        0.00033242        0.00224961        0.00027723
     130         -0.227762        1.000000        0.00044724        0.00057864        0.00080897        0.00043784
     131         -0.225413        1.000000        0.00095756        0.00225285        0.00053297        0.00070529
     132         -0.224052        1.000000        0.00299472        0.00432054        0.00117310        0.00145869
     133         -0.222361        1.000000        0.00219910        0.00151390        0.00071317        0.00136703
     134         -0.220691        1.000000        0.00063384        0.00095967        0.00063740        0.00036513
     135         -0.219020        1.000000        0.00067928        0.00092643        0.00236881        0.00021673
     136         -0.218327        1.000000        0.00081370        0.00117275        0.00062381        0.00045199
     137         -0.216233        1.000000        0.00095111        0.00022651        0.00137505        0.00042511
     138         -0.215483        1.000000        0.00265587        0.00335903        0.00233534        0.00131518
     139         -0.214605        1.000000        0.00142215        0.00238522        0.00161466        0.00063675
     140         -0.214368        1.000000        0.00102048        0.00407479        0.00076256        0.00041777
     141         -0.213408        1.000000        0.00124822        0.00096070        0.00464302        0.00027646
     142         -0.211776        1.000000        0.00200132        0.00415884        0.00235566        0.00031116
     143         -0.211150        1.000000        0.00061864        0.00152153        0.00077545        0.00043209
     144         -0.210145        1.000000        0.00069238        0.00190246        0.00197967        0.00041773
     145         -0.208580        1.000000        0.00150458        0.00418297        0.00079177        0.00104004
     146         -0.208428        1.000000        0.00029232        0.00174242        0.00058314        0.00020601
     147         -0.207771        1.000000        0.00090042        0.00330808        0.00074143        0.00028428
     148         -0.207417        1.000000        0.00064378        0.00212710        0.00120814        0.00082580
     149         -0.205793        1.000000        0.00042165        0.00600026        0.00037294        0.00066470
     150         -0.205455        1.000000        0.00082874        0.00140787        0.00076234        0.00062606
     151         -0.205045        1.000000        0.00070786        0.00277071        0.00056292        0.00051342
     152         -0.203876        1.000000        0.00037310        0.00193195        0.00037140        0.00102268
     153         -0.203271        1.000000        0.00038347        0.00110158        0.00076800        0.00058068
     154         -0.202405        1.000000        0.00083116        0.00243705        0.00050687        0.00038437
     155         -0.201917        1.000000        0.00077943        0.00410511        0.00031883        0.00052302
     156         -0.201169        1.000000        0.00030540        0.00164892        0.00017021        0.00024254
     157         -0.200652        1.000000        0.00028699        0.00194862        0.00024193        0.00119151
     158         -0.199565        1.000000        0.00035082        0.00060820        0.00041574        0.00061635
     159         -0.198540        1.000000        0.00046113        0.00153254        0.00044914        0.00065002
     160         -0.197965        1.000000        0.00152080        0.00158901        0.00099870        0.00354640
     161         -0.197009        1.000000        0.00036650        0.00059171        0.00074992        0.00013249
     162         -0.196588        1.000000        0.00016897        0.00021452        0.00055737        0.00004433
     163         -0.196292        1.000000        0.00099209        0.00282531        0.00194970        0.00059503
     164         -0.195928        1.000000        0.00061882        0.00344609        0.00140843        0.00048192
     165         -0.195079        1.000000        0.00134030        0.00381230        0.00137976        0.00042330
     166         -0.194734        1.000000        0.00043228        0.00198591        0.00106375        0.00029681
     167         -0.193767        1.000000        0.00069256        0.00153173        0.00369040        0.00094154
     168         -0.193491        1.000000        0.00035523        0.00191090        0.00069138        0.00012018
     169         -0.193360        1.000000        0.00032446        0.00079637        0.00058969        0.00037537
     170         -0.192849        1.000000        0.00029429        0.00142367        0.00071927        0.00020650
     171         -0.191807        1.000000        0.00132413        0.00569081        0.00255049        0.00117853
     172         -0.191160        1.000000        0.00015189        0.00082836        0.00045172        0.00019908
     173         -0.190215        1.000000        0.00055381        0.00257189        0.00042331        0.00030035
     174         -0.190078        1.000000        0.00213136        0.00990262        0.00090256        0.00151086
     175         -0.189443        1.000000        0.00041057        0.00451313        0.00002669        0.00011176
     176         -0.188827        1.000000        0.00035201        0.00238901        0.00118803        0.00049783
     177         -0.188174        1.000000        0.00011483        0.00061098        0.00035870        0.00012515
     178         -0.187747        1.000000        0.00012079        0.00090251        0.00004185        0.00017927
     179         -0.187688        1.000000        0.00003233        0.00042079        0.00008418        0.00006818
     180         -0.187342        1.000000        0.00013998        0.00045453        0.00021285        0.00006584
     181         -0.186851        1.000000        0.00037899        0.00157418        0.00043731        0.00021120
     182         -0.186471        1.000000        0.00010216        0.00076343        0.00005872        0.00018644
     183         -0.186117        1.000000        0.00003507        0.00033457        0.00013819        0.00002451
     184         -0.184686        1.000000        0.00082895        0.00323765        0.00040963        0.00055370
     185         -0.184080        1.000000        0.00016860        0.00123701        0.00008426        0.00003274
     186         -0.183199        1.000000        0.00032941        0.00106947        0.00026906        0.00004334
     187         -0.182472        1.000000        0.00009978        0.00022123        0.00010709        0.00006858
     188         -0.182395        1.000000        0.00017127        0.00068372        0.00023817        0.00004557
     189         -0.181912        1.000000        0.00013990        0.00046014        0.00013720        0.00001903
     190         -0.178395        1.000000        0.00007019        0.00025944        0.00004485        0.00039797
     191         -0.176336        1.000000        0.00007601        0.00017906        0.00005255        0.00005321
     192         -0.174274        1.000000        0.00000951        0.00014891        0.00006232        0.00001949
     193         -0.174212        1.000000        0.00001147        0.00003827        0.00002089        0.00000483
     194         -0.172600        1.000000        0.00002839        0.00008394        0.00002013        0.00002912
     195         -0.172076        1.000000        0.00008207        0.00016444        0.00009912        0.00010881
     196         -0.168825        0.000000        0.00002540        0.00009981        0.00002559        0.00002367
     197         -0.167272        0.000000        0.00000079        0.00000145        0.00003446        0.00000263
     198         -0.160676        0.000000        0.00003685        0.00006148        0.00003298        0.00002339
     199         -0.155514        0.000000        0.00003450        0.00027048        0.00006412        0.00010522
     200         -0.155092        0.000000        0.00001985        0.00009134        0.00006220        0.00001254
     201         -0.129184        0.000000        0.00000406        0.00000927        0.00000639        0.00000577
     202         -0.074147        0.000000        0.00035314        0.00016974        0.00021844        0.00000767
     203         -0.073774        0.000000        0.00003829        0.00000456        0.00005602        0.00001270
     204         -0.072841        0.000000        0.00003920        0.00007152        0.00032727        0.00004423
     205         -0.062705        0.000000        0.00056770        0.00033853        0.00038080        0.00003920
     206         -0.055851        0.000000        0.00008198        0.00005680        0.00018644        0.00006834
     207         -0.052996        0.000000        0.00004662        0.00010287        0.00003664        0.00002712
     208         -0.049521        0.000000        0.00012430        0.00002864        0.00012636        0.00002228
     209         -0.046687        0.000000        0.00007393        0.00002341        0.00005872        0.00012470
     210         -0.040753        0.000000        0.00012654        0.00002944        0.00010002        0.00002037
     211         -0.040500        0.000000        0.00005789        0.00002544        0.00007727        0.00000612
     212         -0.038560        0.000000        0.00015310        0.00035059        0.00013715        0.00007676
     213         -0.034739        0.000000        0.00003326        0.00014766        0.00006560        0.00003477
     214         -0.033646        0.000000        0.00017206        0.00014608        0.00001465        0.00000899
     215         -0.030607        0.000000        0.00011576        0.00020201        0.00031846        0.00003578
     216         -0.026411        0.000000        0.00008760        0.00027857        0.00015415        0.00004181
     217         -0.024009        0.000000        0.00004580        0.00002239        0.00003831        0.00002873
     218         -0.022597        0.000000        0.00023908        0.00063906        0.00021357        0.00003951
     219         -0.020636        0.000000        0.00005770        0.00008756        0.00003469        0.00003245
     220         -0.017987        0.000000        0.00008101        0.00005542        0.00006122        0.00003831
     221         -0.017747        0.000000        0.00003539        0.00012005        0.00004127        0.00001609
     222         -0.014871        0.000000        0.00028795        0.00043572        0.00008556        0.00003458
     223         -0.014479        0.000000        0.00009459        0.00026301        0.00009931        0.00000997
     224         -0.011895        0.000000        0.00016708        0.00000911        0.00013670        0.00012221
     225         -0.008742        0.000000        0.00029694        0.00067548        0.00007862        0.00005254
     226          0.088306        0.000000        0.09813974        0.00058805        0.00087638        0.26043668
     227          0.098883        0.000000        0.09804652        0.00649374        0.05650827        0.19563833
     228          0.102780        0.000000        0.10460166        0.00152524        0.00283266        0.25567764
     229          0.103763        0.000000        0.10436608        0.00016193        0.07542571        0.17973628
     230          0.103953        0.000000        0.10421469        0.00179088        0.00326923        0.25591338
     231          0.108999        0.000000        0.10277138        0.00205134        0.12060841        0.13530560
     232          0.115315        0.000000        0.10183519        0.01856826        0.07584734        0.16753181
     233          0.283667        0.000000        0.00274896        0.30865579        0.00503216        0.00017261
     234          0.284818        0.000000        0.00000213        0.00607844        0.32421751        0.00126485
     235          0.286037        0.000000        0.00013113        0.27443572        0.03381595        0.00361402
     236          0.290040        0.000000        0.00330864        0.30013606        0.02622483        0.00060759
     237          0.293168        0.000000        0.00233455        0.02436253        0.22677933        0.07940709
     238          0.294703        0.000000        0.00419010        0.18380373        0.09713119        0.02498597
     239          0.295023        0.000000        0.00123663        0.08960530        0.17402756        0.05018365
     240          0.295166        0.000000        0.00147163        0.25709782        0.04544187        0.00648786
     241          0.296596        0.000000        0.00415945        0.03085163        0.12427819        0.16781530
     242          0.298058        0.000000        0.00168697        0.02895866        0.29020607        0.00325936
     243          0.300357        0.000000        0.00014762        0.27707049        0.02759083        0.01077981
     244          0.301917        0.000000        0.01014158        0.07625844        0.24400303        0.00104089
     245          0.307550        0.000000        0.00062561        0.15061745        0.07725625        0.08778702
     246          0.311187        0.000000        0.00019778        0.14145289        0.16013088        0.01836063
     247          0.316486        0.000000        0.24663785        0.00055424        0.00050401        0.09412087
     248          0.327638        0.000000        0.24578917        0.00030418        0.01611386        0.08407325
     249          0.336288        0.000000        0.23992903        0.00050557        0.02168261        0.08411832
     250          0.337491        0.000000        0.23902136        0.00171791        0.00831740        0.09702886
     251          0.337676        0.000000        0.23956072        0.00111737        0.05549363        0.04657249
     252          0.344754        0.000000        0.22789026        0.01372266        0.00092856        0.09417322
     253          0.349257        0.000000        0.24376303        0.00453275        0.02512851        0.07167183
     254          0.454596        0.000000        0.00000019        0.00580224        0.01716559        0.00016869
     255          0.459540        0.000000        0.00000329        0.01526470        0.00528111        0.00001366
     256          0.462974        0.000000        0.00004925        0.02285334        0.00138963        0.00015470
     257          0.464494        0.000000        0.00000641        0.00085436        0.02524658        0.00021630
     258          0.466160        0.000000        0.00004530        0.02268610        0.00048669        0.00020768
     259          0.467274        0.000000        0.00001468        0.00153371        0.02365945        0.00045036