# Projected DOS for atomic kind I at iteration step i = 0, E(Fermi) =    -0.171332 a.u.
#     MO Eigenvalue [a.u.]      Occupation                 s                py                pz                px
       1         -0.952920        1.000000        0.00011658        0.00043150        0.00015728        0.00007580
       2         -0.945307        1.000000        0.00015240        0.00021919        0.00041136        0.00010358
       3         -0.942426        1.000000        0.00018431        0.00050972        0.00028085        0.00021962
       4         -0.940424        1.000000        0.00012824        0.00036853        0.00007856        0.00025133
       5         -0.936657        1.000000        0.00018681        0.00033167        0.00032552        0.00019834
       6         -0.936357        1.000000        0.00017248        0.00047239        0.00026617        0.00002931
       7         -0.926086        1.000000        0.00015941        0.00039954        0.00014814        0.00026089
       8         -0.693809        1.000000        0.00070679        0.00025677        0.00013830        0.00004762
       9         -0.690003        1.000000        0.00219209        0.00060464        0.00054839        0.00021036
      10         -0.684866        1.000000        0.00163097        0.00036945        0.00036217        0.00007720
      11         -0.683700        1.000000        0.00214920        0.00023950        0.00028662        0.00033285
      12         -0.683458        1.000000        0.00165828        0.00056274        0.00015151        0.00033558
      13         -0.680384        1.000000        0.00241344        0.00054767        0.00045932        0.00031853
      14         -0.671849        1.000000        0.00161599        0.00031611        0.00024981        0.00019781
      15         -0.640366        1.000000        0.95254039        0.00117488        0.00684977        0.01711370
      16         -0.631104        1.000000        0.95074435        0.00144029        0.01580315        0.00763703
      17         -0.622824        1.000000        0.94024078        0.00642777        0.00254929        0.00937329
      18         -0.619654        1.000000        0.96012922        0.00659571        0.00183798        0.01686207
      19         -0.614883        1.000000        0.91580737        0.00911923        0.00295270        0.00166016
      20         -0.603480        1.000000        0.87337767        0.00328435        0.00745404        0.01464964
      21         -0.597755        1.000000        0.80466692        0.00442326        0.00555207        0.00641294
      22         -0.594222        1.000000        0.83277703        0.00828758        0.00570540        0.00797694
      23         -0.594030        1.000000        0.84035872        0.00569796        0.00538176        0.00911309
      24         -0.592278        1.000000        0.84922783        0.00364564        0.00379513        0.00384402
      25         -0.591212        1.000000        0.76447217        0.00406969        0.00575497        0.00547803
      26         -0.587664        1.000000        0.84496375        0.00729199        0.00791387        0.01071570
      27         -0.586484        1.000000        0.73302310        0.00551442        0.00339050        0.00415979
      28         -0.585399        1.000000        0.68136188        0.00567892        0.00370085        0.00330112
      29         -0.583846        1.000000        0.88191905        0.00459235        0.00355492        0.01068440
      30         -0.582996        1.000000        0.79577110        0.00235570        0.00701387        0.00610690
      31         -0.582420        1.000000        0.76948741        0.00275354        0.00347758        0.00565038
      32         -0.582207        1.000000        0.82760024        0.00181728        0.00366813        0.00627297
      33         -0.580324        1.000000        0.84995122        0.00279515        0.00473427        0.00424588
      34         -0.580056        1.000000        0.83440703        0.00264636        0.00412373        0.00371872
      35         -0.577896        1.000000        0.75245363        0.00339086        0.00289764        0.00322152
      36         -0.577822        1.000000        0.25904213        0.00134984        0.00175421        0.00139396
      37         -0.576940        1.000000        0.75190766        0.00501645        0.00327852        0.00150234
      38         -0.575890        1.000000        0.77141113        0.00255226        0.00185996        0.00196531
      39         -0.574954        1.000000        0.85216779        0.00284058        0.00249902        0.00207314
      40         -0.574743        1.000000        0.82158905        0.00237191        0.00393883        0.00093511
      41         -0.574171        1.000000        0.77820888        0.00143952        0.00301701        0.00361941
      42         -0.573190        1.000000        0.57660268        0.00313920        0.00340433        0.00198626
      43         -0.572511        1.000000        0.92475572        0.00199404        0.00178412        0.00040971
      44         -0.571375        1.000000        0.96086621        0.00229599        0.00047336        0.00241268
      45         -0.570494        1.000000        0.47172182        0.00580041        0.00203108        0.00172733
      46         -0.569633        1.000000        0.69873636        0.00497449        0.00561166        0.00239766
      47         -0.568008        1.000000        0.14324642        0.00276803        0.00079920        0.00059236
      48         -0.567089        1.000000        0.78580406        0.00198428        0.00135771        0.00446214
      49         -0.565593        1.000000        0.82260598        0.00713655        0.00375270        0.00137687
      50         -0.564140        1.000000        0.28518629        0.00124063        0.00191218        0.00097388
      51         -0.562719        1.000000        0.12054758        0.00061189        0.00054779        0.00086100
      52         -0.560392        1.000000        0.40356779        0.00497373        0.00138377        0.00171411
      53         -0.559963        1.000000        0.25224023        0.00505661        0.00094594        0.00072269
      54         -0.559468        1.000000        0.92619560        0.00256384        0.00109653        0.00637575
      55         -0.557586        1.000000        0.19320571        0.00128478        0.00104956        0.00055847
      56         -0.554224        1.000000        0.68816549        0.00439194        0.00118711        0.00094232
      57         -0.553686        1.000000        0.77550601        0.00120907        0.00207687        0.00035667
      58         -0.552342        1.000000        0.74738811        0.00074558        0.00167481        0.00060837
      59         -0.551138        1.000000        0.20658407        0.00637667        0.00239176        0.00161649
      60         -0.545809        1.000000        0.19318185        0.00133548        0.00166576        0.00108361
      61         -0.544885        1.000000        0.34191092        0.00162579        0.00211146        0.00167914
      62         -0.541933        1.000000        0.46209874        0.00072581        0.00137451        0.00045334
      63         -0.538424        1.000000        0.35186550        0.00100583        0.00097695        0.00105212
      64         -0.537834        1.000000        0.23674215        0.00226194        0.00100732        0.00213955
      65         -0.473927        1.000000        0.00293328        0.00186802        0.00107013        0.00025069
      66         -0.469954        1.000000        0.00502243        0.00357970        0.00327268        0.00143151
      67         -0.465117        1.000000        0.12191792        0.03343774        0.04265388        0.01900744
      68         -0.464752        1.000000        0.03285571        0.01023390        0.01302746        0.00511437
      69         -0.464187        1.000000        0.01471392        0.00680313        0.00425536        0.00542662
      70         -0.463806        1.000000        0.00330518        0.00138661        0.00253651        0.00165574
      71         -0.461691        1.000000        0.08017519        0.02335438        0.02133025        0.01700009
      72         -0.460662        1.000000        0.16215395        0.05216954        0.03847092        0.03134295
      73         -0.459417        1.000000        0.11322515        0.03166851        0.02375666        0.02076143
      74         -0.458457        1.000000        0.13307279        0.03343100        0.04254060        0.02826228
      75         -0.454140        1.000000        0.13435534        0.04057374        0.02815000        0.04222041
      76         -0.451579        1.000000        0.03374226        0.00892285        0.00784434        0.00737821
      77         -0.447663        1.000000        0.14831365        0.03593098        0.03959371        0.04716538
      78         -0.443150        1.000000        0.15028221        0.03619498        0.03901415        0.03593840
      79         -0.438489        1.000000        0.15075106        0.04494466        0.04384628        0.00543720
      80         -0.410724        1.000000        0.00189527        0.00383851        0.00040794        0.00072761
      81         -0.409898        1.000000        0.00081220        0.00065535        0.00220413        0.00073026
      82         -0.407698        1.000000        0.00192097        0.00358595        0.00524054        0.00131363
      83         -0.406288        1.000000        0.00268921        0.00627969        0.00383447        0.00256507
      84         -0.402421        1.000000        0.00193945        0.00164605        0.00403457        0.00096586
      85         -0.401818        1.000000        0.00058822        0.00273005        0.00140221        0.00127208
      86         -0.400758        1.000000        0.00133445        0.00476335        0.00201071        0.00132831
      87         -0.400111        1.000000        0.00134576        0.00189384        0.00071926        0.00306835
      88         -0.398916        1.000000        0.00366900        0.00760034        0.00111025        0.00141955
      89         -0.398310        1.000000        0.00210551        0.00194788        0.00285286        0.00310498
      90         -0.398196        1.000000        0.00191604        0.00181630        0.00363154        0.00149570
      91         -0.395468        1.000000        0.00232033        0.00571193        0.00204832        0.00108235
      92         -0.390100        1.000000        0.00077203        0.00131468        0.00112209        0.00082422
      93         -0.386844        1.000000        0.00174733        0.00373760        0.00053972        0.00227994
      94         -0.323848        1.000000        0.02829489        0.01364255        0.23847472        0.69327921
      95         -0.315952        1.000000        0.02624190        0.05058104        0.52069064        0.30494225
      96         -0.305510        1.000000        0.03183211        0.23374552        0.06521813        0.64715611
      97         -0.303277        1.000000        0.01589528        0.21672941        0.05204606        0.62180785
      98         -0.298797        1.000000        0.01573205        0.73876975        0.06100617        0.03906704
      99         -0.276492        1.000000        0.00915083        0.31878705        0.23521776        0.22008765
     100         -0.273732        1.000000        0.01150105        0.27883268        0.27386797        0.26006468
     101         -0.273066        1.000000        0.00906952        0.55476932        0.09939670        0.17956720
     102         -0.269510        1.000000        0.01622756        0.13626071        0.19721149        0.40311524
     103         -0.268426        1.000000        0.01899185        0.40601786        0.22448440        0.17131689
     104         -0.265559        1.000000        0.01402240        0.37119094        0.17461372        0.23400164
     105         -0.264930        1.000000        0.01955536        0.16619297        0.19702725        0.35779135
     106         -0.264692        1.000000        0.00961042        0.43484582        0.12972730        0.23382673
     107         -0.262922        1.000000        0.02112989        0.35175851        0.27833011        0.12156432
     108         -0.257322        1.000000        0.01704674        0.31820168        0.19458187        0.27481293
     109         -0.256894        1.000000        0.01648995        0.25846460        0.33691912        0.17200668
     110         -0.256130        1.000000        0.01756916        0.20075464        0.33847978        0.21964602
     111         -0.255739        1.000000        0.01742011        0.28857041        0.23237266        0.23812297
     112         -0.254158        1.000000        0.01535692        0.24496980        0.32074970        0.24025557
     113         -0.252575        1.000000        0.00588610        0.51571674        0.30530270        0.08539227
     114         -0.251752        1.000000        0.01372204        0.23232979        0.41949710        0.14014867
     115         -0.250358        1.000000        0.01479087        0.25593697        0.36564367        0.17946608
     116         -0.247144        1.000000        0.01279017        0.16588476        0.41313268        0.24192853
     117         -0.245542        1.000000        0.01003164        0.15113748        0.42501138        0.31498082
     118         -0.244402        1.000000        0.01380613        0.20307875        0.22933939        0.37180435
     119         -0.243420        1.000000        0.01281647        0.19316715        0.36244601        0.25018716
     120         -0.242997        1.000000        0.01369827        0.24682147        0.39876037        0.12820253
     121         -0.239911        1.000000        0.01212372        0.22742209        0.38957498        0.23323881
     122         -0.238443        1.000000        0.00659816        0.21089782        0.52047740        0.19047450
     123         -0.236608        1.000000        0.00796532        0.17601986        0.44349845        0.25378879
     124         -0.236012        1.000000        0.00804160        0.22901237        0.30024110        0.34812240
     125         -0.235208        1.000000        0.01255635        0.28097254        0.43038785        0.13125231
     126         -0.233912        1.000000        0.00719403        0.23666940        0.35826361        0.26338545
     127         -0.232358        1.000000        0.00832475        0.39318583        0.31551901        0.14573058
     128         -0.231975        1.000000        0.00979674        0.27335344        0.48381284        0.13454712
     129         -0.229302        1.000000        0.00952709        0.30952980        0.31676877        0.32270200
     130         -0.227524        1.000000        0.00546114        0.26379360        0.29152219        0.34476033
     131         -0.224407        1.000000        0.00348154        0.42646393        0.41085511        0.10425787
     132         -0.223099        1.000000        0.00490867        0.35648942        0.31871569        0.25071355
     133         -0.221927        1.000000        0.00335671        0.31183228        0.39453722        0.21372382
     134         -0.219921        1.000000        0.00728927        0.42126814        0.20046052        0.30968189
     135         -0.218616        1.000000        0.00451332        0.36756337        0.29932033        0.26142723
     136         -0.217955        1.000000        0.00755166        0.36092652        0.18298439        0.40050055
     137         -0.215980        1.000000        0.00501750        0.26358357        0.25281838        0.41912054
     138         -0.215281        1.000000        0.00343519        0.34442769        0.44097659        0.15060015
     139         -0.214268        1.000000        0.00206105        0.31589013        0.51706430        0.13905072
     140         -0.213955        1.000000        0.00226946        0.25392125        0.55397598        0.15736792
     141         -0.212335        1.000000        0.00540850        0.17421898        0.54813808        0.22026990
     142         -0.211674        1.000000        0.00226383        0.43015302        0.30627622        0.23823976
     143         -0.210759        1.000000        0.00265726        0.38745968        0.40892624        0.18110051
     144         -0.209500        1.000000        0.00226904        0.43743140        0.28515810        0.25253937
     145         -0.207903        1.000000        0.00294667        0.50510568        0.23718634        0.21387787
     146         -0.207805        1.000000        0.00164263        0.33640836        0.26254788        0.36534440
     147         -0.207348        1.000000        0.00159987        0.44721795        0.19441636        0.33700981
     148         -0.206402        1.000000        0.00278855        0.41087713        0.22264294        0.33311458
     149         -0.205587        1.000000        0.00237057        0.47820646        0.20396518        0.28947249
     150         -0.205022        1.000000        0.00319583        0.44942589        0.22257999        0.28910977
     151         -0.204514        1.000000        0.00445939        0.23313210        0.26849142        0.46114887
     152         -0.203628        1.000000        0.00281238        0.31455332        0.17897030        0.47434170
     153         -0.202296        1.000000        0.00417581        0.28802168        0.17061918        0.51306844
     154         -0.201944        1.000000        0.00239263        0.32900760        0.33055021        0.28399323
     155         -0.201718        1.000000        0.00378597        0.32526044        0.30511917        0.34021940
     156         -0.201037        1.000000        0.00259067        0.35431142        0.30550985        0.29706150
     157         -0.200342        1.000000        0.00189290        0.28077402        0.33089079        0.36752520
     158         -0.199337        1.000000        0.00258386        0.26545613        0.31340160        0.38499222
     159         -0.198119        1.000000        0.00215948        0.30938394        0.24448908        0.41377340
     160         -0.197880        1.000000        0.00298261        0.28129619        0.27166133        0.42542728
     161         -0.196968        1.000000        0.00101394        0.43993023        0.35126813        0.19084098
     162         -0.196419        1.000000        0.00107738        0.40255827        0.22660221        0.35216471
     163         -0.195977        1.000000        0.00185285        0.37125944        0.32765809        0.27910529
     164         -0.195765        1.000000        0.00157037        0.32141473        0.26453087        0.38378924
     165         -0.194940        1.000000        0.00214301        0.32114466        0.26008178        0.40094316
     166         -0.194230        1.000000        0.00150716        0.49004779        0.28221176        0.20538984
     167         -0.193668        1.000000        0.00275506        0.44129657        0.39431168        0.13520046
     168         -0.193258        1.000000        0.00123155        0.21886466        0.28683227        0.48465519
     169         -0.193007        1.000000        0.00163328        0.43237857        0.23315919        0.31296140
     170         -0.192642        1.000000        0.00075017        0.35407846        0.16820820        0.45124689
     171         -0.191576        1.000000        0.00239014        0.42111621        0.42375118        0.12798677
     172         -0.190366        1.000000        0.00159780        0.31417917        0.39672360        0.26614859
     173         -0.189997        1.000000        0.00320622        0.44723992        0.18648409        0.33458701
     174         -0.189712        1.000000        0.00101681        0.31613217        0.37932969        0.29109488
     175         -0.188943        1.000000        0.00219805        0.35118177        0.33156064        0.28847199
     176         -0.188648        1.000000        0.00120749        0.32618454        0.39906733        0.25708956
     177         -0.188059        1.000000        0.00105352        0.26131267        0.49862669        0.22576436
     178         -0.187647        1.000000        0.00125452        0.20739166        0.10434323        0.66848468
     179         -0.187375        1.000000        0.00070286        0.25455103        0.38327400        0.35543165
     180         -0.187073        1.000000        0.00079246        0.21040893        0.47176727        0.30564965
     181         -0.186116        1.000000        0.00036995        0.51020263        0.24425832        0.23930203
     182         -0.185476        1.000000        0.00069737        0.19118511        0.13026178        0.66560746
     183         -0.184651        1.000000        0.00098720        0.21045594        0.60738413        0.17152774
     184         -0.183394        1.000000        0.00089215        0.40673818        0.35619773        0.21784763
     185         -0.183104        1.000000        0.00227681        0.23781401        0.45223209        0.28016885
     186         -0.182342        1.000000        0.00053521        0.20044282        0.26314865        0.52993068
     187         -0.182069        1.000000        0.00229108        0.34084623        0.12828344        0.48636987
     188         -0.181586        1.000000        0.00064490        0.17484612        0.36900025        0.44628365
     189         -0.179811        1.000000        0.00093756        0.34019423        0.42833982        0.21810443
     190         -0.176114        1.000000        0.00044852        0.37024103        0.42197673        0.20076990
     191         -0.174275        1.000000        0.00022959        0.25250670        0.12302999        0.62127212
     192         -0.173453        1.000000        0.00086986        0.09037798        0.36160816        0.51340881
     193         -0.172083        1.000000        0.00128737        0.17947949        0.46497253        0.24526324
     194         -0.171332        1.000000        0.00036570        0.14552455        0.12585920        0.71692762
     195         -0.168815        0.000000        0.00122453        0.28367263        0.26429035        0.32238209
     196         -0.167304        0.000000        0.00978810        0.10141318        0.58530547        0.24000156
     197         -0.164426        0.000000        0.00214275        0.32642701        0.39105670        0.17278255
     198         -0.158482        0.000000        0.00314219        0.41751422        0.38667112        0.10340913
     199         -0.155453        0.000000        0.01042273        0.08631214        0.19817464        0.66003900
     200         -0.155031        0.000000        0.00520507        0.20300794        0.10501147        0.62188324
     201         -0.129174        0.000000        0.00792193        0.26566543        0.00403762        0.72184759
     202         -0.074048        0.000000        0.01223957        0.06444788        0.12102980        0.06973264
     203         -0.073755        0.000000        0.01191694        0.10047883        0.05788030        0.09564212
     204         -0.071856        0.000000        0.02673340        0.05479769        0.05018037        0.08603434
     205         -0.062686        0.000000        0.02543202        0.10050641        0.07289551        0.07685494
     206         -0.055405        0.000000        0.01699369        0.11089727        0.07089658        0.07954053
     207         -0.052773        0.000000        0.02038183        0.05567220        0.10627510        0.11637538
     208         -0.049414        0.000000        0.01785093        0.14626101        0.02822552        0.09972462
     209         -0.045621        0.000000        0.01130599        0.08987015        0.04564831        0.14719056
     210         -0.040740        0.000000        0.01945404        0.20480245        0.03167197        0.05634031
     211         -0.040491        0.000000        0.02263213        0.04232094        0.17457043        0.06846215
     212         -0.038394        0.000000        0.02050368        0.05416457        0.14331177        0.09091741
     213         -0.034583        0.000000        0.02094891        0.03755783        0.18284118        0.07323384
     214         -0.033635        0.000000        0.02235240        0.03850469        0.19548078        0.06272859
     215         -0.030205        0.000000        0.01705898        0.10209162        0.14815988        0.03780872
     216         -0.026359        0.000000        0.02472349        0.12885898        0.05315537        0.11283353
     217         -0.023999        0.000000        0.02666775        0.03045508        0.25035566        0.02556688
     218         -0.022548        0.000000        0.01838001        0.14515608        0.05059357        0.09838337
     219         -0.018004        0.000000        0.02186681        0.16663906        0.03889547        0.09118326
     220         -0.017859        0.000000        0.02095967        0.16467592        0.02398430        0.10811222
     221         -0.017675        0.000000        0.02354433        0.10600047        0.03353084        0.15966886
     222         -0.014839        0.000000        0.02376250        0.02052087        0.22967654        0.03988915
     223         -0.013977        0.000000        0.02060343        0.19351336        0.06596045        0.03895609
     224         -0.011662        0.000000        0.02661791        0.21654911        0.02308158        0.06888412
     225         -0.005076        0.000000        0.02676913        0.02686434        0.26546466        0.01238707
     226          0.088309        0.000000        0.00002627        0.00071628        0.00044475        0.00002835
     227          0.098887        0.000000        0.00007986        0.00037832        0.00178166        0.00076855
     228          0.102781        0.000000        0.00011785        0.00050714        0.00113959        0.00049052
     229          0.103763        0.000000        0.00006885        0.00127095        0.00024429        0.00111188
     230          0.103953        0.000000        0.00005673        0.00120997        0.00092046        0.00022192
     231          0.108999        0.000000        0.00013458        0.00112376        0.00133221        0.00096913
     232          0.115315        0.000000        0.00004847        0.00096651        0.00077048        0.00063150
     233          0.283730        0.000000        0.00080892        0.01175155        0.00146001        0.00198385
     234          0.284821        0.000000        0.00010450        0.00087070        0.00262016        0.00029424
     235          0.286039        0.000000        0.00210996        0.00018403        0.00334705        0.00890287
     236          0.290040        0.000000        0.00022233        0.00277847        0.00050487        0.00101037
     237          0.293169        0.000000        0.00005896        0.00027278        0.00022644        0.00135426
     238          0.294703        0.000000        0.00053319        0.01066795        0.00602828        0.00293515
     239          0.295023        0.000000        0.00075777        0.00539970        0.00852548        0.00259724
     240          0.295167        0.000000        0.00071765        0.01248297        0.00195773        0.00387581
     241          0.296596        0.000000        0.00042587        0.00542200        0.00242618        0.00012728
     242          0.298059        0.000000        0.00012558        0.00179192        0.00250000        0.00182288
     243          0.300357        0.000000        0.00082201        0.01025258        0.00541040        0.00025778
     244          0.301918        0.000000        0.00015639        0.00051727        0.00215371        0.00080198
     245          0.307552        0.000000        0.00068688        0.00663138        0.00048322        0.00691947
     246          0.311191        0.000000        0.00048714        0.00803250        0.00083151        0.00142060
     247          0.316564        0.000000        0.00087097        0.01186152        0.00285966        0.00260084
     248          0.327639        0.000000        0.00079057        0.00445094        0.00759325        0.00247402
     249          0.336288        0.000000        0.00101437        0.00811737        0.00162949        0.00513713
     250          0.337493        0.000000        0.00145328        0.00310676        0.00473505        0.00732116
     251          0.337676        0.000000        0.00098006        0.01145397        0.00631178        0.00119851
     252          0.344756        0.000000        0.00034223        0.01798169        0.00395007        0.00250222
     253          0.349263        0.000000        0.00086485        0.00962799        0.00091559        0.00670586
     254          0.454597        0.000000        0.00001011        0.00007651        0.00024906        0.00007358
     255          0.459542        0.000000        0.00004321        0.00050824        0.00018681        0.00027213
     256          0.462974        0.000000        0.00004431        0.00022624        0.00018001        0.00020945
     257          0.464494        0.000000        0.00006311        0.00079563        0.00064001        0.00008911
     258          0.466161        0.000000        0.00005795        0.00051804        0.00049956        0.00028564
     259          0.467274        0.000000        0.00003790        0.00037517        0.00029684        0.00016216