# Projected DOS for atomic kind C at iteration step i = 0, E(Fermi) =    -0.171332 a.u.
#     MO Eigenvalue [a.u.]      Occupation                 s                py                pz                px
       1         -0.952920        1.000000        0.05885648        0.00031018        0.00014619        0.04303121
       2         -0.945307        1.000000        0.05737507        0.00092151        0.00917145        0.03311340
       3         -0.942426        1.000000        0.06246003        0.00029087        0.00017735        0.04383095
       4         -0.940424        1.000000        0.05893687        0.00000357        0.01301827        0.03034154
       5         -0.936657        1.000000        0.06208646        0.00023396        0.00090291        0.04296000
       6         -0.936357        1.000000        0.06020781        0.00021120        0.02000967        0.02369992
       7         -0.926086        1.000000        0.06109338        0.00309083        0.01254450        0.02831768
       8         -0.693809        1.000000        0.44284458        0.00002494        0.00001859        0.00106005
       9         -0.690003        1.000000        0.43788161        0.00004028        0.00000616        0.00180368
      10         -0.684866        1.000000        0.44033243        0.00003877        0.00000306        0.00167490
      11         -0.683700        1.000000        0.44161234        0.00000015        0.00003181        0.00077329
      12         -0.683458        1.000000        0.43989380        0.00001724        0.00035220        0.00069056
      13         -0.680384        1.000000        0.43911617        0.00001579        0.00035860        0.00093549
      14         -0.671849        1.000000        0.44112799        0.00008120        0.00064154        0.00083101
      15         -0.640366        1.000000        0.00080375        0.00072562        0.00004666        0.00003962
      16         -0.631104        1.000000        0.00003186        0.00034090        0.00002137        0.00003794
      17         -0.622824        1.000000        0.00005003        0.00003011        0.00032890        0.00002391
      18         -0.619654        1.000000        0.00016640        0.00004371        0.00064757        0.00007777
      19         -0.614883        1.000000        0.00019225        0.00004659        0.00088309        0.00008628
      20         -0.603480        1.000000        0.00016871        0.00196797        0.00186576        0.00028988
      21         -0.597755        1.000000        0.00012398        0.00099285        0.00204988        0.00084932
      22         -0.594222        1.000000        0.00021617        0.00161472        0.00061083        0.00009691
      23         -0.594030        1.000000        0.00037722        0.00066839        0.00150847        0.00012910
      24         -0.592278        1.000000        0.00017628        0.00162233        0.00178938        0.00034895
      25         -0.591212        1.000000        0.00002864        0.00079423        0.00557446        0.00225959
      26         -0.587664        1.000000        0.00014354        0.00169468        0.00144619        0.00026263
      27         -0.586484        1.000000        0.00030430        0.00856764        0.00206524        0.00039358
      28         -0.585399        1.000000        0.00012592        0.01520398        0.00146280        0.00019218
      29         -0.583846        1.000000        0.00060763        0.00050784        0.00164903        0.00020485
      30         -0.582996        1.000000        0.00016632        0.00398621        0.00478679        0.00033621
      31         -0.582420        1.000000        0.00035170        0.00635529        0.00257391        0.00044500
      32         -0.582207        1.000000        0.00019510        0.00558567        0.00117469        0.00034490
      33         -0.580324        1.000000        0.00016024        0.00177990        0.00239748        0.00049388
      34         -0.580056        1.000000        0.00018353        0.00299993        0.00231858        0.00068809
      35         -0.577896        1.000000        0.00021230        0.00475097        0.00416359        0.00094893
      36         -0.577822        1.000000        0.00004613        0.00314591        0.03761903        0.00045276
      37         -0.576940        1.000000        0.00012699        0.00259614        0.00866974        0.00033465
      38         -0.575890        1.000000        0.00042280        0.00701205        0.00229636        0.00040824
      39         -0.574954        1.000000        0.00003083        0.00450827        0.00145541        0.00012600
      40         -0.574743        1.000000        0.00031742        0.00105661        0.00492278        0.00104594
      41         -0.574171        1.000000        0.00008701        0.00311085        0.00396513        0.00127419
      42         -0.573190        1.000000        0.00022530        0.00357302        0.01350998        0.00380343
      43         -0.572511        1.000000        0.00006016        0.00149316        0.00018465        0.00023998
      44         -0.571375        1.000000        0.00000512        0.00017793        0.00008781        0.00001495
      45         -0.570494        1.000000        0.00003037        0.01210736        0.01069412        0.00369662
      46         -0.569633        1.000000        0.00014882        0.00665653        0.00473759        0.00012082
      47         -0.568008        1.000000        0.00002701        0.04352218        0.00645735        0.00004301
      48         -0.567089        1.000000        0.00018007        0.00109992        0.00778563        0.00069116
      49         -0.565593        1.000000        0.00005746        0.00343854        0.00097866        0.00022287
      50         -0.564140        1.000000        0.00010257        0.00325913        0.04172506        0.00059949
      51         -0.562719        1.000000        0.00000744        0.00813719        0.03051992        0.01301788
      52         -0.560392        1.000000        0.00010887        0.01930758        0.01569282        0.00313369
      53         -0.559963        1.000000        0.00011689        0.03086077        0.01450172        0.00236308
      54         -0.559468        1.000000        0.00010459        0.00086706        0.00231198        0.00048081
      55         -0.557586        1.000000        0.00042416        0.01123367        0.02618981        0.01319765
      56         -0.554224        1.000000        0.00030028        0.00320429        0.00756637        0.00212982
      57         -0.553686        1.000000        0.00021604        0.00904478        0.00296627        0.00113051
      58         -0.552342        1.000000        0.00038860        0.01611243        0.00177106        0.00136322
      59         -0.551138        1.000000        0.00037336        0.03312179        0.02008375        0.00291063
      60         -0.545809        1.000000        0.00019130        0.00052081        0.03384179        0.01796998
      61         -0.544885        1.000000        0.00038343        0.03993771        0.00506024        0.00348037
      62         -0.541933        1.000000        0.00051734        0.03592953        0.00168568        0.00311304
      63         -0.538424        1.000000        0.00018484        0.04274819        0.01356102        0.00175475
      64         -0.537834        1.000000        0.00005692        0.04981798        0.00004905        0.00350156
      65         -0.473927        1.000000        0.02526428        0.00414821        0.00190493        0.33514293
      66         -0.469954        1.000000        0.02227350        0.00272251        0.00233586        0.33480143
      67         -0.465117        1.000000        0.00449462        0.00061867        0.00115136        0.06921121
      68         -0.464752        1.000000        0.01768786        0.00285267        0.00493982        0.26439370
      69         -0.464187        1.000000        0.02300756        0.00063868        0.09037582        0.21883813
      70         -0.463806        1.000000        0.02656504        0.00428227        0.06595141        0.26447271
      71         -0.461691        1.000000        0.01339589        0.00022645        0.07695813        0.11093525
      72         -0.460662        1.000000        0.00312555        0.00055236        0.01887425        0.02477150
      73         -0.459417        1.000000        0.00973065        0.00193340        0.05995217        0.07687053
      74         -0.458457        1.000000        0.00063091        0.00049032        0.00151807        0.00678659
      75         -0.454140        1.000000        0.00392992        0.00249759        0.01538803        0.03863160
      76         -0.451579        1.000000        0.01920599        0.02227744        0.08770602        0.17797267
      77         -0.447663        1.000000        0.00004157        0.00080477        0.00021025        0.00064263
      78         -0.443150        1.000000        0.00036902        0.00152576        0.00216062        0.00633893
      79         -0.438489        1.000000        0.00017411        0.00066134        0.00094394        0.00107334
      80         -0.410724        1.000000        0.00000079        0.52481552        0.00209069        0.00462014
      81         -0.409898        1.000000        0.00001581        0.00203696        0.53623290        0.00241341
      82         -0.407698        1.000000        0.00000631        0.00482523        0.51808273        0.00242370
      83         -0.406288        1.000000        0.00000773        0.50977083        0.00349668        0.00376511
      84         -0.402421        1.000000        0.00003546        0.02711007        0.48511172        0.01130106
      85         -0.401818        1.000000        0.00000472        0.51703453        0.01856239        0.00169063
      86         -0.400758        1.000000        0.00003623        0.41964960        0.08104385        0.02802174
      87         -0.400111        1.000000        0.00001448        0.07706923        0.32685484        0.12982758
      88         -0.398916        1.000000        0.00000628        0.51464030        0.00654942        0.00344069
      89         -0.398310        1.000000        0.00005859        0.01512634        0.38395900        0.13779127
      90         -0.398196        1.000000        0.00004150        0.02948449        0.31027678        0.19325890
      91         -0.395468        1.000000        0.00000344        0.49988057        0.00701112        0.02126029
      92         -0.390100        1.000000        0.00002537        0.12622143        0.33276041        0.07343692
      93         -0.386844        1.000000        0.00000836        0.36579379        0.04463652        0.12110844
      94         -0.323848        1.000000        0.00001581        0.00024827        0.00011597        0.00012581
      95         -0.315952        1.000000        0.00001090        0.00005432        0.00010303        0.00001776
      96         -0.305510        1.000000        0.00003971        0.00005325        0.00035672        0.00005441
      97         -0.303277        1.000000        0.00001579        0.00009305        0.00006474        0.00003903
      98         -0.298797        1.000000        0.00004268        0.00014361        0.00009826        0.00006550
      99         -0.276492        1.000000        0.00005586        0.00006510        0.00028283        0.00031859
     100         -0.273732        1.000000        0.00011775        0.00026940        0.00015412        0.00080969
     101         -0.273066        1.000000        0.00008128        0.00048273        0.00012982        0.00095353
     102         -0.269510        1.000000        0.00009868        0.00024974        0.00006871        0.00011241
     103         -0.268426        1.000000        0.00020792        0.00026416        0.00033587        0.00034224
     104         -0.265559        1.000000        0.00020340        0.00056010        0.00011960        0.00026333
     105         -0.264930        1.000000        0.00014818        0.00019247        0.00056502        0.00025609
     106         -0.264692        1.000000        0.00011650        0.00058520        0.00007839        0.00017967
     107         -0.262922        1.000000        0.00038666        0.00062489        0.00041879        0.00012515
     108         -0.257322        1.000000        0.00014630        0.00030474        0.00007362        0.00010071
     109         -0.256894        1.000000        0.00006122        0.00004701        0.00012751        0.00023408
     110         -0.256130        1.000000        0.00030932        0.00029370        0.00021531        0.00018162
     111         -0.255739        1.000000        0.00006403        0.00043516        0.00021852        0.00017160
     112         -0.254158        1.000000        0.00020674        0.00081035        0.00028205        0.00020612
     113         -0.252575        1.000000        0.00033530        0.00048593        0.00079961        0.00052747
     114         -0.251752        1.000000        0.00012069        0.00046047        0.00006043        0.00026052
     115         -0.250358        1.000000        0.00004428        0.00008884        0.00004824        0.00025875
     116         -0.247144        1.000000        0.00021824        0.00026934        0.00014260        0.00020852
     117         -0.245542        1.000000        0.00027256        0.00042037        0.00051104        0.00025332
     118         -0.244402        1.000000        0.00027955        0.00012385        0.00019363        0.00014775
     119         -0.243420        1.000000        0.00018337        0.00046482        0.00018291        0.00019582
     120         -0.242997        1.000000        0.00001823        0.00025827        0.00024081        0.00030876
     121         -0.239911        1.000000        0.00025968        0.00027848        0.00024827        0.00055422
     122         -0.238443        1.000000        0.00012360        0.00027250        0.00024715        0.00024807
     123         -0.236608        1.000000        0.00023982        0.00042116        0.00059727        0.00017250
     124         -0.236012        1.000000        0.00027318        0.00010174        0.00083329        0.00029625
     125         -0.235208        1.000000        0.00005992        0.00015136        0.00032405        0.00039861
     126         -0.233912        1.000000        0.00014535        0.00017248        0.00041846        0.00060070
     127         -0.232358        1.000000        0.00019734        0.00045181        0.00096557        0.00032702
     128         -0.231975        1.000000        0.00009215        0.00011668        0.00018413        0.00042330
     129         -0.229302        1.000000        0.00029311        0.00089843        0.00015379        0.00024474
     130         -0.227524        1.000000        0.00039222        0.00060052        0.00074484        0.00046912
     131         -0.224407        1.000000        0.00035335        0.00036220        0.00088920        0.00266054
     132         -0.223099        1.000000        0.00011043        0.00027796        0.00075894        0.00091623
     133         -0.221927        1.000000        0.00016012        0.00010308        0.00138475        0.00097845
     134         -0.219921        1.000000        0.00008052        0.00031297        0.00011446        0.00020977
     135         -0.218616        1.000000        0.00017200        0.00060298        0.00058153        0.00021550
     136         -0.217955        1.000000        0.00031166        0.00036075        0.00024598        0.00025924
     137         -0.215980        1.000000        0.00049779        0.00025312        0.00035091        0.00042974
     138         -0.215281        1.000000        0.00008966        0.00061532        0.00139946        0.00077138
     139         -0.214268        1.000000        0.00066848        0.00113770        0.00053691        0.00031338
     140         -0.213955        1.000000        0.00046434        0.00097811        0.00083190        0.00067561
     141         -0.212335        1.000000        0.00006524        0.00048867        0.00037066        0.00019044
     142         -0.211674        1.000000        0.00015159        0.00027303        0.00117447        0.00011560
     143         -0.210759        1.000000        0.00049364        0.00083196        0.00069431        0.00014481
     144         -0.209500        1.000000        0.00027968        0.00072323        0.00075232        0.00027676
     145         -0.207903        1.000000        0.00029854        0.00069825        0.00024719        0.00067853
     146         -0.207805        1.000000        0.00008568        0.00019417        0.00075357        0.00005211
     147         -0.207348        1.000000        0.00020170        0.00039493        0.00034721        0.00045770
     148         -0.206402        1.000000        0.00011762        0.00043866        0.00045773        0.00072754
     149         -0.205587        1.000000        0.00017053        0.00075601        0.00023167        0.00010654
     150         -0.205022        1.000000        0.00023095        0.00043360        0.00017049        0.00038421
     151         -0.204514        1.000000        0.00007046        0.00061763        0.00031704        0.00007904
     152         -0.203628        1.000000        0.00024424        0.00017401        0.00010695        0.00028141
     153         -0.202296        1.000000        0.00015608        0.00038586        0.00027232        0.00057195
     154         -0.201944        1.000000        0.00007329        0.00019257        0.00013497        0.00040684
     155         -0.201718        1.000000        0.00019692        0.00009888        0.00036005        0.00014477
     156         -0.201037        1.000000        0.00011446        0.00010638        0.00015951        0.00017320
     157         -0.200342        1.000000        0.00019457        0.00040975        0.00010375        0.00016193
     158         -0.199337        1.000000        0.00020635        0.00018742        0.00035461        0.00012579
     159         -0.198119        1.000000        0.00012284        0.00011281        0.00014986        0.00011122
     160         -0.197880        1.000000        0.00023696        0.00014498        0.00014445        0.00026536
     161         -0.196968        1.000000        0.00063479        0.00122463        0.00039358        0.00046660
     162         -0.196419        1.000000        0.00006328        0.00286040        0.00027220        0.00010455
     163         -0.195977        1.000000        0.00019938        0.00043844        0.00039609        0.00036888
     164         -0.195765        1.000000        0.00008078        0.00024738        0.00027065        0.00002836
     165         -0.194940        1.000000        0.00004930        0.00030890        0.00036031        0.00016334
     166         -0.194230        1.000000        0.00003385        0.00013681        0.00006567        0.00018970
     167         -0.193668        1.000000        0.00004694        0.00029713        0.00027293        0.00038877
     168         -0.193258        1.000000        0.00002848        0.00039364        0.00046646        0.00026885
     169         -0.193007        1.000000        0.00003032        0.00003524        0.00013034        0.00004126
     170         -0.192642        1.000000        0.00003826        0.00021594        0.00003063        0.00008559
     171         -0.191576        1.000000        0.00007277        0.00070630        0.00013047        0.00018423
     172         -0.190366        1.000000        0.00029822        0.00040918        0.00081014        0.00016925
     173         -0.189997        1.000000        0.00013933        0.00057326        0.00014877        0.00024023
     174         -0.189712        1.000000        0.00025079        0.00060804        0.00079104        0.00005550
     175         -0.188943        1.000000        0.00001710        0.00040086        0.00014789        0.00008660
     176         -0.188648        1.000000        0.00008384        0.00023246        0.00007342        0.00017708
     177         -0.188059        1.000000        0.00008763        0.00021972        0.00007673        0.00002755
     178         -0.187647        1.000000        0.00006347        0.00038088        0.00005653        0.00007071
     179         -0.187375        1.000000        0.00003600        0.00051764        0.00011601        0.00004502
     180         -0.187073        1.000000        0.00002996        0.00012493        0.00012295        0.00007044
     181         -0.186116        1.000000        0.00002584        0.00003624        0.00003481        0.00001781
     182         -0.185476        1.000000        0.00073451        0.00008587        0.00111278        0.00030633
     183         -0.184651        1.000000        0.00003106        0.00013295        0.00010607        0.00015495
     184         -0.183394        1.000000        0.00013600        0.00007494        0.00003752        0.00026249
     185         -0.183104        1.000000        0.00015437        0.00009989        0.00116818        0.00007070
     186         -0.182342        1.000000        0.00001825        0.00002687        0.00011130        0.00003596
     187         -0.182069        1.000000        0.00010708        0.00020298        0.00059928        0.00003227
     188         -0.181586        1.000000        0.00010329        0.00017929        0.00037491        0.00005634
     189         -0.179811        1.000000        0.00013889        0.00025388        0.00019966        0.00025089
     190         -0.176114        1.000000        0.00037962        0.00051381        0.00011208        0.00052358
     191         -0.174275        1.000000        0.00000375        0.00000559        0.00000464        0.00005830
     192         -0.173453        1.000000        0.00005027        0.00005432        0.00003691        0.00012644
     193         -0.172083        1.000000        0.00001019        0.00000365        0.00002246        0.00001808
     194         -0.171332        1.000000        0.00003218        0.00000571        0.00009720        0.00001718
     195         -0.168815        0.000000        0.00001438        0.00000806        0.00003256        0.00002411
     196         -0.167304        0.000000        0.00001254        0.00002760        0.00004951        0.00000546
     197         -0.164426        0.000000        0.00001349        0.00002607        0.00001084        0.00001665
     198         -0.158482        0.000000        0.00000890        0.00004048        0.00000880        0.00000780
     199         -0.155453        0.000000        0.00001515        0.00003997        0.00000784        0.00003369
     200         -0.155031        0.000000        0.00000833        0.00001756        0.00000643        0.00002032
     201         -0.129174        0.000000        0.00000635        0.00001241        0.00001991        0.00000907
     202         -0.074048        0.000000        0.00007060        0.00009213        0.00002510        0.00015421
     203         -0.073755        0.000000        0.00001666        0.00003157        0.00004228        0.00001707
     204         -0.071856        0.000000        0.00005806        0.00001711        0.00005700        0.00005145
     205         -0.062686        0.000000        0.00007754        0.00000914        0.00014697        0.00016486
     206         -0.055405        0.000000        0.00001875        0.00004198        0.00001674        0.00002615
     207         -0.052773        0.000000        0.00006113        0.00000820        0.00006755        0.00002564
     208         -0.049414        0.000000        0.00001283        0.00009069        0.00003041        0.00007669
     209         -0.045621        0.000000        0.00000945        0.00001612        0.00001452        0.00001676
     210         -0.040740        0.000000        0.00001336        0.00003446        0.00003033        0.00003952
     211         -0.040491        0.000000        0.00004520        0.00008332        0.00001004        0.00003989
     212         -0.038394        0.000000        0.00001468        0.00002649        0.00002552        0.00005395
     213         -0.034583        0.000000        0.00000972        0.00001242        0.00001068        0.00000463
     214         -0.033635        0.000000        0.00003040        0.00001012        0.00006900        0.00011327
     215         -0.030205        0.000000        0.00001278        0.00000116        0.00000707        0.00004904
     216         -0.026359        0.000000        0.00001656        0.00000752        0.00000680        0.00001261
     217         -0.023999        0.000000        0.00005115        0.00002007        0.00009974        0.00002859
     218         -0.022548        0.000000        0.00000443        0.00000721        0.00009459        0.00007628
     219         -0.018004        0.000000        0.00004905        0.00004314        0.00002471        0.00002145
     220         -0.017859        0.000000        0.00003980        0.00003346        0.00002549        0.00004982
     221         -0.017675        0.000000        0.00001254        0.00004291        0.00005237        0.00002877
     222         -0.014839        0.000000        0.00001250        0.00000225        0.00002309        0.00013915
     223         -0.013977        0.000000        0.00000626        0.00000944        0.00005750        0.00004925
     224         -0.011662        0.000000        0.00011674        0.00003977        0.00017367        0.00011468
     225         -0.005076        0.000000        0.00004898        0.00003433        0.00002387        0.00012097
     226          0.088309        0.000000        0.07961113        0.00360548        0.00193303        0.55009044
     227          0.098887        0.000000        0.07875541        0.01040992        0.12001675        0.42801415
     228          0.102781        0.000000        0.07880161        0.00357833        0.00547355        0.54033749
     229          0.103763        0.000000        0.07867621        0.00017062        0.16178822        0.39199521
     230          0.103953        0.000000        0.08150408        0.00294228        0.01011244        0.53382764
     231          0.108999        0.000000        0.07916469        0.00249740        0.24597111        0.30407031
     232          0.115315        0.000000        0.08111280        0.03722419        0.15673354        0.35521501
     233          0.283730        0.000000        0.00014439        0.00544723        0.00000701        0.00006969
     234          0.284821        0.000000        0.00000040        0.00005037        0.00588542        0.00000446
     235          0.286039        0.000000        0.00000771        0.00544850        0.00059219        0.00006029
     236          0.290040        0.000000        0.00003689        0.00438182        0.00065667        0.00001987
     237          0.293169        0.000000        0.00003132        0.00044906        0.00329517        0.00179631
     238          0.294703        0.000000        0.00009335        0.00407089        0.00157956        0.00054874
     239          0.295023        0.000000        0.00002165        0.00209590        0.00251098        0.00125306
     240          0.295167        0.000000        0.00005500        0.00516500        0.00085515        0.00008414
     241          0.296596        0.000000        0.00015020        0.00075478        0.00218428        0.00275713
     242          0.298059        0.000000        0.00004154        0.00028048        0.00758602        0.00004223
     243          0.300357        0.000000        0.00000042        0.00541071        0.00063617        0.00017613
     244          0.301918        0.000000        0.00034979        0.00174919        0.00563167        0.00000051
     245          0.307552        0.000000        0.00000063        0.00313078        0.00155397        0.00176962
     246          0.311191        0.000000        0.00000248        0.00333088        0.00336189        0.00049137
     247          0.316564        0.000000        0.00473066        0.00013063        0.00000220        0.00002175
     248          0.327639        0.000000        0.00456700        0.00018109        0.00003903        0.00003366
     249          0.336288        0.000000        0.00533353        0.00001848        0.00007027        0.00029717
     250          0.337493        0.000000        0.00507032        0.00008502        0.00019066        0.00022347
     251          0.337676        0.000000        0.00497225        0.00000856        0.00019709        0.00006730
     252          0.344756        0.000000        0.00488667        0.00088329        0.00011160        0.00009341
     253          0.349263        0.000000        0.00523021        0.00000364        0.00001512        0.00009163
     254          0.454597        0.000000        0.00004771        0.08919002        0.30029802        0.00294052
     255          0.459542        0.000000        0.00002122        0.30254008        0.09068493        0.00096717
     256          0.462974        0.000000        0.00009261        0.36684918        0.02369624        0.00279573
     257          0.464494        0.000000        0.00012648        0.01350838        0.37783019        0.00129982
     258          0.466161        0.000000        0.00003689        0.38249856        0.00790963        0.00340792
     259          0.467274        0.000000        0.00061906        0.01857331        0.36262319        0.00980492