 DBCSR| CPU Multiplication driver                                           XSMM
 DBCSR| Multrec recursion limit                                              512
 DBCSR| Multiplication stack size                                           1000
 DBCSR| Maximum elements for images                                    UNLIMITED
 DBCSR| Multiplicative factor virtual images                                   1
 DBCSR| Use multiplication densification                                       T
 DBCSR| Multiplication size stacks                                             3
 DBCSR| Use memory pool for CPU allocation                                     F
 DBCSR| Number of 3D layers                                               SINGLE
 DBCSR| Use MPI memory allocation                                              F
 DBCSR| Use RMA algorithm                                                      F
 DBCSR| Use Communication thread                                               T
 DBCSR| Communication thread load                                             87
 DBCSR| MPI: My node id                                                        0
 DBCSR| MPI: Number of nodes                                                  24
 DBCSR| OMP: Current number of threads                                         1
 DBCSR| OMP: Max number of threads                                             1
 DBCSR| Split modifier for TAS multiplication algorithm                  1.0E+00


  **** **** ******  **  PROGRAM STARTED AT               2023-12-04 02:06:17.953
 ***** ** ***  *** **   PROGRAM STARTED ON           milan17.int.triton.aalto.fi
 **    ****   ******    PROGRAM STARTED BY                               huangj4
 ***** **    ** ** **   PROGRAM PROCESS ID                                 88265
  **** **  *******  **  PROGRAM STARTED IN /scratch/phys/sin/Jie/Github/cp2kTest
                                           /ab_energy/Cluster_222

 CP2K| version string:                                          CP2K version 8.2
 CP2K| source code revision number:                                  git:310b7ab
 CP2K| cp2kflags: omp libint fftw3 libxc parallel mpi3 scalapack xsmm           
 CP2K| is freely available from                            https://www.cp2k.org/
 CP2K| Program compiled at                          Thu May 12 10:08:29 UTC 2022
 CP2K| Program compiled on                                          80d7174ae3e8
 CP2K| Program compiled for                            linux-centos7-haswell-gcc
 CP2K| Data directory path    /share/apps/spack/envs/fgci-centos7-haswell/softwa
 CP2K| Input file name                                      calEnergy_MAPbI3.inp

 GLOBAL| Force Environment number                                              1
 GLOBAL| Basis set file name                                        BASIS_MOLOPT
 GLOBAL| Potential file name                                      GTH_POTENTIALS
 GLOBAL| MM Potential file name                                     MM_POTENTIAL
 GLOBAL| Coordinate file name                               ./relaxed_MAPbI3.xyz
 GLOBAL| Method name                                                        CP2K
 GLOBAL| Project name                                                  calEnergy
 GLOBAL| Run type                                                   ENERGY_FORCE
 GLOBAL| FFT library                                                       FFTW3
 GLOBAL| Diagonalization library                                       ScaLAPACK
 GLOBAL| Orthonormality check for eigenvectors                          DISABLED
 GLOBAL| Matrix multiplication library                                    SCALAP
 GLOBAL| All-to-all communication in single precision                          F
 GLOBAL| FFTs using library dependent lengths                                  F
 GLOBAL| Grid backend                                                       AUTO
 GLOBAL| Global print level                                                  LOW
 GLOBAL| MPI I/O enabled                                                       T
 GLOBAL| Total number of message passing processes                            24
 GLOBAL| Number of threads for this process                                    1
 GLOBAL| This output is from process                                           0
 GLOBAL| CPU model name                          AMD EPYC 7713 64-Core Processor
 GLOBAL| CPUID                                                              1002

 MEMORY| system memory details [Kb]
 MEMORY|                        rank 0           min           max       average
 MEMORY| MemTotal            528041892     528041892     528041892     528041892
 MEMORY| MemFree             490928664     490928664     490928664     490928664
 MEMORY| Buffers                     0             0             0             0
 MEMORY| Cached                9789104       9789104       9789104       9789104
 MEMORY| Slab                  4896252       4896252       4896252       4896252
 MEMORY| SReclaimable          1228580       1228580       1228580       1228580
 MEMORY| MemLikelyFree       501946348     501946348     501946348     501946348


 GENERATE|  Preliminary Number of Bonds generated:                             0
 GENERATE|  Achieved consistency in connectivity generation.

 *******************************************************************************
 *******************************************************************************
 **                                                                           **
 **     #####                         ##              ##                      **
 **    ##   ##            ##          ##              ##                      **
 **   ##     ##                       ##            ######                    **
 **   ##     ##  ##   ##  ##   #####  ##  ##   ####   ##    #####    #####    **
 **   ##     ##  ##   ##  ##  ##      ## ##   ##      ##   ##   ##  ##   ##   **
 **   ##  ## ##  ##   ##  ##  ##      ####     ###    ##   ######   ######    **
 **    ##  ###   ##   ##  ##  ##      ## ##      ##   ##   ##       ##        **
 **     #######   #####   ##   #####  ##  ##  ####    ##    #####   ##        **
 **           ##                                                    ##        **
 **                                                                           **
 **                                                ... make the atoms dance   **
 **                                                                           **
 **            Copyright (C) by CP2K developers group (2000-2021)             **
 **                      J. Chem. Phys. 152, 194103 (2020)                    **
 **                                                                           **
 *******************************************************************************


 TOTAL NUMBERS AND MAXIMUM NUMBERS

  Total number of            - Atomic kinds:                                   5
                             - Atoms:                                        100
                             - Shell sets:                                   100
                             - Shells:                                       158
                             - Primitive Cartesian functions:                612
                             - Cartesian basis functions:                    274
                             - Spherical basis functions:                    274

  Maximum angular momentum of- Orbital basis functions:                        1
                             - Local part of the GTH pseudopotential:          2
                             - Non-local part of the GTH pseudopotential:      4


 SCF PARAMETERS         Density guess:                                    ATOMIC
                        --------------------------------------------------------
                        max_scf:                                            1000
                        max_scf_history:                                       0
                        max_diis:                                              4
                        --------------------------------------------------------
                        eps_scf:                                        1.00E-06
                        eps_scf_history:                                0.00E+00
                        eps_diis:                                       1.00E-01
                        eps_eigval:                                     1.00E-05
                        --------------------------------------------------------
                        level_shift [a.u.]:                                 0.00
                        --------------------------------------------------------
                        No outer SCF

 Spin 1

 Number of electrons:                                                        195
 Number of occupied orbitals:                                                195
 Number of molecular orbitals:                                               195

 Spin 2

 Number of electrons:                                                        194
 Number of occupied orbitals:                                                194
 Number of molecular orbitals:                                               194

 Number of orbital functions:                                                274
 Number of independent orbital functions:                                    274

 Extrapolation method: initial_guess


 SCF WAVEFUNCTION OPTIMIZATION

  ----------------------------------- OT ---------------------------------------
  Minimizer      : DIIS                : direct inversion
                                         in the iterative subspace
                                         using   7 DIIS vectors
                                         safer DIIS on
  Preconditioner : FULL_KINETIC        : inversion of T + eS
  Precond_solver : DEFAULT
  stepsize       :    0.15000000                  energy_gap     :    0.20000000
  eps_taylor     :   0.10000E-15                  max_taylor     :             4
  ----------------------------------- OT ---------------------------------------

  Step     Update method      Time    Convergence         Total energy    Change
  ------------------------------------------------------------------------------
     1 OT DIIS     0.15E+00    4.2     0.01292930      -558.5238132839 -5.59E+02
     2 OT DIIS     0.15E+00    5.2     0.01147319      -561.0334359831 -2.51E+00
     3 OT DIIS     0.15E+00    5.1     0.00790413      -567.4159763533 -6.38E+00
     4 OT DIIS     0.15E+00    5.1     0.00521489      -571.2915501618 -3.88E+00
     5 OT DIIS     0.15E+00    5.1     0.00355889      -572.9623250148 -1.67E+00
     6 OT DIIS     0.15E+00    5.1     0.00261351      -573.8650794572 -9.03E-01
     7 OT DIIS     0.15E+00    5.1     0.00209682      -574.1448584639 -2.80E-01
     8 OT DIIS     0.15E+00    5.1     0.00162300      -574.4533687741 -3.09E-01
     9 OT DIIS     0.15E+00    5.1     0.00118172      -574.6918887097 -2.39E-01
    10 OT DIIS     0.15E+00    5.1     0.00103042      -574.7756011989 -8.37E-02
    11 OT DIIS     0.15E+00    5.1     0.00067683      -574.9293183481 -1.54E-01
    12 OT DIIS     0.15E+00    5.1     0.00062277      -574.9557079151 -2.64E-02
    13 OT DIIS     0.15E+00    5.1     0.00047867      -575.0139123653 -5.82E-02
    14 OT DIIS     0.15E+00    5.1     0.00044054      -575.0270145127 -1.31E-02
    15 OT DIIS     0.15E+00    5.1     0.00033411      -575.0624898419 -3.55E-02
    16 OT DIIS     0.15E+00    5.1     0.00030822      -575.0734528175 -1.10E-02
    17 OT DIIS     0.15E+00    5.1     0.00027404      -575.0821391078 -8.69E-03
    18 OT DIIS     0.15E+00    5.1     0.00025185      -575.0922510355 -1.01E-02
    19 OT DIIS     0.15E+00    5.1     0.00024132      -575.0970043049 -4.75E-03
    20 OT DIIS     0.15E+00    5.2     0.00021373      -575.1091156008 -1.21E-02
    21 OT DIIS     0.15E+00    5.1     0.00020423      -575.1142773017 -5.16E-03
    22 OT DIIS     0.15E+00    5.2     0.00019646      -575.1185085928 -4.23E-03
    23 OT DIIS     0.15E+00    5.2     0.00018279      -575.1258770082 -7.37E-03
    24 OT DIIS     0.15E+00    5.1     0.00017750      -575.1287565512 -2.88E-03
    25 OT DIIS     0.15E+00    5.1     0.00016235      -575.1366963481 -7.94E-03
    26 OT DIIS     0.15E+00    5.1     0.00015832      -575.1387200266 -2.02E-03
    27 OT DIIS     0.15E+00    5.1     0.00013762      -575.1489710112 -1.03E-02
    28 OT DIIS     0.15E+00    5.1     0.00013227      -575.1520154797 -3.04E-03
    29 OT DIIS     0.15E+00    5.1     0.00012865      -575.1550670513 -3.05E-03
    30 OT DIIS     0.15E+00    5.1     0.00012581      -575.1566538290 -1.59E-03
    31 OT DIIS     0.15E+00    5.2     0.00011710      -575.1624175641 -5.76E-03
    32 OT DIIS     0.15E+00    5.1     0.00011260      -575.1650653931 -2.65E-03
    33 OT DIIS     0.15E+00    5.1     0.00010741      -575.1691046500 -4.04E-03
    34 OT DIIS     0.15E+00    5.2     0.00010241      -575.1740390998 -4.93E-03
    35 OT DIIS     0.15E+00    5.1     0.00010140      -575.1741622141 -1.23E-04
    36 OT DIIS     0.15E+00    5.1     0.00009440      -575.1790135767 -4.85E-03
    37 OT DIIS     0.15E+00    5.1     0.00009490      -575.1813141357 -2.30E-03
    38 OT DIIS     0.15E+00    5.1     0.00008498      -575.1866265882 -5.31E-03
    39 OT DIIS     0.15E+00    5.1     0.00008236      -575.1872165350 -5.90E-04
    40 OT SD       0.15E+00    5.1     0.00007911      -575.1892948190 -2.08E-03
    41 OT DIIS     0.15E+00    5.2     0.00007830      -575.1893943289 -9.95E-05
    42 OT DIIS     0.15E+00    5.1     0.00008807      -575.1899526175 -5.58E-04
    43 OT DIIS     0.15E+00    5.2     0.00007393      -575.1930452459 -3.09E-03
    44 OT DIIS     0.15E+00    5.1     0.00007272      -575.1933423710 -2.97E-04
    45 OT SD       0.15E+00    5.1     0.00006859      -575.1964627790 -3.12E-03
    46 OT DIIS     0.15E+00    5.2     0.00006788      -575.1965375873 -7.48E-05
    47 OT DIIS     0.15E+00    5.1     0.00006284      -575.1990171125 -2.48E-03
    48 OT DIIS     0.15E+00    5.1     0.00006220      -575.1993587873 -3.42E-04
    49 OT DIIS     0.15E+00    5.1     0.00005853      -575.2017199616 -2.36E-03
    50 OT DIIS     0.15E+00    5.1     0.00005802      -575.2022622540 -5.42E-04
    51 OT DIIS     0.15E+00    5.1     0.00005771      -575.2031453965 -8.83E-04
    52 OT DIIS     0.15E+00    5.2     0.00005642      -575.2038893113 -7.44E-04
    53 OT SD       0.15E+00    5.1     0.00005434      -575.2060981673 -2.21E-03
    54 OT DIIS     0.15E+00    5.1     0.00005400      -575.2061452217 -4.71E-05
    55 OT DIIS     0.15E+00    5.2     0.00005169      -575.2080308909 -1.89E-03
    56 OT DIIS     0.15E+00    5.1     0.00005103      -575.2087124948 -6.82E-04
    57 OT SD       0.15E+00    5.1     0.00005031      -575.2098388808 -1.13E-03
    58 OT DIIS     0.15E+00    5.2     0.00005008      -575.2098792509 -4.04E-05
    59 OT DIIS     0.15E+00    5.1     0.00005155      -575.2112539918 -1.37E-03
    60 OT SD       0.15E+00    5.2     0.00004839      -575.2117209913 -4.67E-04
    61 OT DIIS     0.15E+00    5.2     0.00004822      -575.2117583581 -3.74E-05
    62 OT DIIS     0.15E+00    5.1     0.00004618      -575.2137132515 -1.95E-03
    63 OT DIIS     0.15E+00    5.1     0.00004637      -575.2140315301 -3.18E-04
    64 OT DIIS     0.15E+00    5.2     0.00004573      -575.2142345961 -2.03E-04
    65 OT DIIS     0.15E+00    5.1     0.00004520      -575.2153294085 -1.09E-03
    66 OT DIIS     0.15E+00    5.2     0.00004501      -575.2153704467 -4.10E-05
    67 OT SD       0.15E+00    5.2     0.00004512      -575.2154158810 -4.54E-05
    68 OT DIIS     0.15E+00    5.1     0.00004495      -575.2154483683 -3.25E-05
    69 OT SD       0.15E+00    5.2     0.00004587      -575.2161327957 -6.84E-04
    70 OT DIIS     0.15E+00    5.2     0.00004547      -575.2161662730 -3.35E-05
    71 OT DIIS     0.15E+00    5.1     0.00004401      -575.2166850560 -5.19E-04
    72 OT DIIS     0.15E+00    5.2     0.00004377      -575.2171453965 -4.60E-04
    73 OT DIIS     0.15E+00    5.1     0.00004355      -575.2174963978 -3.51E-04
    74 OT DIIS     0.15E+00    5.1     0.00004283      -575.2184458070 -9.49E-04
    75 OT DIIS     0.15E+00    5.2     0.00004263      -575.2189684610 -5.23E-04
    76 OT DIIS     0.15E+00    5.2     0.00004244      -575.2192592842 -2.91E-04
    77 OT DIIS     0.15E+00    5.2     0.00004203      -575.2198293207 -5.70E-04
    78 OT DIIS     0.15E+00    5.2     0.00004224      -575.2202014141 -3.72E-04
    79 OT DIIS     0.15E+00    5.1     0.00004143      -575.2208193187 -6.18E-04
    80 OT SD       0.15E+00    5.1     0.00004433      -575.2222983765 -1.48E-03
    81 OT DIIS     0.15E+00    5.2     0.00004343      -575.2223294536 -3.11E-05
    82 OT SD       0.15E+00    5.2     0.00004043      -575.2231601213 -8.31E-04
    83 OT DIIS     0.15E+00    5.2     0.00004027      -575.2231861950 -2.61E-05
    84 OT DIIS     0.15E+00    5.1     0.00003966      -575.2237229063 -5.37E-04
    85 OT DIIS     0.15E+00    5.1     0.00003960      -575.2238956121 -1.73E-04
    86 OT DIIS     0.15E+00    5.1     0.00003943      -575.2240403206 -1.45E-04
    87 OT SD       0.15E+00    5.2     0.00003847      -575.2257097041 -1.67E-03
    88 OT DIIS     0.15E+00    5.1     0.00003833      -575.2257333197 -2.36E-05
    89 OT SD       0.15E+00    5.1     0.00003732      -575.2268431365 -1.11E-03
    90 OT DIIS     0.15E+00    5.2     0.00003721      -575.2268653710 -2.22E-05
    91 OT SD       0.15E+00    5.1     0.00003867      -575.2275884999 -7.23E-04
    92 OT DIIS     0.15E+00    5.2     0.00003819      -575.2276122536 -2.38E-05
    93 OT SD       0.15E+00    5.2     0.00003604      -575.2287688701 -1.16E-03
    94 OT DIIS     0.15E+00    5.1     0.00003582      -575.2287895673 -2.07E-05
    95 OT DIIS     0.15E+00    5.1     0.00003476      -575.2297029539 -9.13E-04
    96 OT DIIS     0.15E+00    5.1     0.00003432      -575.2300164978 -3.14E-04
    97 OT SD       0.15E+00    5.2     0.00003391      -575.2310680295 -1.05E-03
    98 OT DIIS     0.15E+00    5.2     0.00003369      -575.2310863496 -1.83E-05
    99 OT DIIS     0.15E+00    5.1     0.00004992      -575.2310344236  5.19E-05
   100 OT SD       0.15E+00    5.1     0.00003303      -575.2326104177 -1.58E-03
   101 OT DIIS     0.15E+00    5.2     0.00003267      -575.2326277582 -1.73E-05
   102 OT DIIS     0.15E+00    5.2     0.00004166      -575.2333667438 -7.39E-04
   103 OT SD       0.15E+00    5.2     0.00003086      -575.2338459344 -4.79E-04
   104 OT DIIS     0.15E+00    5.1     0.00003067      -575.2338611082 -1.52E-05
   105 OT SD       0.15E+00    5.2     0.00003208      -575.2349642615 -1.10E-03
   106 OT DIIS     0.15E+00    5.2     0.00003123      -575.2349804818 -1.62E-05
   107 OT SD       0.15E+00    5.2     0.00002914      -575.2359281459 -9.48E-04
   108 OT DIIS     0.15E+00    5.1     0.00002867      -575.2359416029 -1.35E-05
   109 OT DIIS     0.15E+00    5.2     0.00002670      -575.2366930677 -7.51E-04
   110 OT DIIS     0.15E+00    5.1     0.00002662      -575.2368177070 -1.25E-04
   111 OT DIIS     0.15E+00    5.2     0.00002916      -575.2368112012  6.51E-06
   112 OT DIIS     0.15E+00    5.2     0.00002764      -575.2368589694 -4.78E-05
   113 OT DIIS     0.15E+00    5.2     0.00002615      -575.2372256099 -3.67E-04
   114 OT DIIS     0.15E+00    5.1     0.00002563      -575.2373221681 -9.66E-05
   115 OT DIIS     0.15E+00    5.1     0.00002543      -575.2375330405 -2.11E-04
   116 OT DIIS     0.15E+00    5.2     0.00002507      -575.2376992166 -1.66E-04
   117 OT SD       0.15E+00    5.2     0.00002592      -575.2380840590 -3.85E-04
   118 OT DIIS     0.15E+00    5.1     0.00002554      -575.2380947163 -1.07E-05
   119 OT DIIS     0.15E+00    5.2     0.00002371      -575.2383206495 -2.26E-04
   120 OT DIIS     0.15E+00    5.1     0.00002338      -575.2387537835 -4.33E-04
   121 OT DIIS     0.15E+00    5.2     0.00002330      -575.2387554514 -1.67E-06
   122 OT DIIS     0.15E+00    5.2     0.00002308      -575.2389571613 -2.02E-04
   123 OT DIIS     0.15E+00    5.1     0.00002274      -575.2392766077 -3.19E-04
   124 OT SD       0.15E+00    5.1     0.00002258      -575.2396329356 -3.56E-04
   125 OT DIIS     0.15E+00    5.2     0.00002244      -575.2396410623 -8.13E-06
   126 OT SD       0.15E+00    5.1     0.00002140      -575.2402047877 -5.64E-04
   127 OT DIIS     0.15E+00    5.1     0.00002132      -575.2402120970 -7.31E-06
   128 OT SD       0.15E+00    5.2     0.00002050      -575.2406736863 -4.62E-04
   129 OT DIIS     0.15E+00    5.1     0.00002044      -575.2406803939 -6.71E-06
   130 OT DIIS     0.15E+00    5.1     0.00001985      -575.2411496952 -4.69E-04
   131 OT DIIS     0.15E+00    5.1     0.00001965      -575.2413219360 -1.72E-04
   132 OT SD       0.15E+00    5.1     0.00001972      -575.2413672423 -4.53E-05
   133 OT DIIS     0.15E+00    5.2     0.00001959      -575.2413734405 -6.20E-06
   134 OT SD       0.15E+00    5.2     0.00001921      -575.2419457068 -5.72E-04
   135 OT DIIS     0.15E+00    5.1     0.00001902      -575.2419515761 -5.87E-06
   136 OT DIIS     0.15E+00    5.2     0.00001788      -575.2423800368 -4.28E-04
   137 OT DIIS     0.15E+00    5.2     0.00001762      -575.2424776171 -9.76E-05
   138 OT DIIS     0.15E+00    5.1     0.00001680      -575.2429950301 -5.17E-04
   139 OT DIIS     0.15E+00    5.1     0.00001665      -575.2430031258 -8.10E-06
   140 OT SD       0.15E+00    5.2     0.00001668      -575.2430202363 -1.71E-05
   141 OT DIIS     0.15E+00    5.1     0.00001655      -575.2430246668 -4.43E-06
   142 OT DIIS     0.15E+00    5.1     0.00001693      -575.2431845109 -1.60E-04
   143 OT DIIS     0.15E+00    5.1     0.00001827      -575.2432562575 -7.17E-05
   144 OT DIIS     0.15E+00    5.0     0.00001594      -575.2433280314 -7.18E-05
   145 OT DIIS     0.15E+00    5.1     0.00001570      -575.2433343396 -6.31E-06
   146 OT DIIS     0.15E+00    5.1     0.00001558      -575.2433538722 -1.95E-05
   147 OT DIIS     0.15E+00    5.1     0.00001539      -575.2434330894 -7.92E-05
   148 OT DIIS     0.15E+00    5.1     0.00001524      -575.2435483002 -1.15E-04
   149 OT DIIS     0.15E+00    5.1     0.00001494      -575.2437424817 -1.94E-04
   150 OT DIIS     0.15E+00    5.0     0.00001461      -575.2438327712 -9.03E-05
   151 OT DIIS     0.15E+00    5.1     0.00001440      -575.2440674404 -2.35E-04
   152 OT DIIS     0.15E+00    5.2     0.00001422      -575.2441061488 -3.87E-05
   153 OT SD       0.15E+00    5.1     0.00001541      -575.2442686492 -1.63E-04
   154 OT SD       0.15E+00    5.2     0.00001502      -575.2442723939 -3.74E-06
   155 OT DIIS     0.15E+00    5.1     0.00001473      -575.2442759659 -3.57E-06
   156 OT DIIS     0.15E+00    5.1     0.00001398      -575.2444880207 -2.12E-04
   157 OT DIIS     0.15E+00    5.1     0.00001344      -575.2445318683 -4.38E-05
   158 OT DIIS     0.15E+00    5.2     0.00001335      -575.2445558772 -2.40E-05
   159 OT DIIS     0.15E+00    5.1     0.00001329      -575.2445857557 -2.99E-05
   160 OT DIIS     0.15E+00    5.2     0.00001296      -575.2447472385 -1.61E-04
   161 OT DIIS     0.15E+00    5.2     0.00001289      -575.2447996596 -5.24E-05
   162 OT DIIS     0.15E+00    5.1     0.00001357      -575.2449848777 -1.85E-04
   163 OT SD       0.15E+00    5.2     0.00001249      -575.2451083322 -1.23E-04
   164 OT DIIS     0.15E+00    5.1     0.00001243      -575.2451108194 -2.49E-06
   165 OT DIIS     0.15E+00    5.1     0.00001208      -575.2453108478 -2.00E-04
   166 OT DIIS     0.15E+00    5.1     0.00001183      -575.2453582376 -4.74E-05
   167 OT SD       0.15E+00    5.2     0.00001169      -575.2455197242 -1.61E-04
   168 OT DIIS     0.15E+00    5.1     0.00001162      -575.2455219003 -2.18E-06
   169 OT DIIS     0.15E+00    5.2     0.00001146      -575.2456212360 -9.93E-05
   170 OT DIIS     0.15E+00    5.2     0.00001118      -575.2456553246 -3.41E-05
   171 OT DIIS     0.15E+00    5.1     0.00001113      -575.2456623671 -7.04E-06
   172 OT DIIS     0.15E+00    5.2     0.00001105      -575.2457291365 -6.68E-05
   173 OT DIIS     0.15E+00    5.2     0.00001092      -575.2458223641 -9.32E-05
   174 OT DIIS     0.15E+00    5.1     0.00001082      -575.2458458904 -2.35E-05
   175 OT SD       0.15E+00    5.2     0.00001051      -575.2459490877 -1.03E-04
   176 OT DIIS     0.15E+00    5.2     0.00001047      -575.2459508501 -1.76E-06
   177 OT SD       0.15E+00    5.2     0.00001025      -575.2461658389 -2.15E-04
   178 OT DIIS     0.15E+00    5.1     0.00001019      -575.2461675151 -1.68E-06
   179 OT DIIS     0.15E+00    5.2     0.00000982      -575.2463421210 -1.75E-04
   180 OT DIIS     0.15E+00    5.2     0.00001120      -575.2463373698  4.75E-06
   181 OT DIIS     0.15E+00    5.2     0.00001020      -575.2464094090 -7.20E-05
   182 OT SD       0.15E+00    5.2     0.00000935      -575.2465144176 -1.05E-04
   183 OT DIIS     0.15E+00    5.2     0.00000931      -575.2465158114 -1.39E-06
   184 OT SD       0.15E+00    5.2     0.00000934      -575.2466080548 -9.22E-05
   185 OT SD       0.15E+00    5.2     0.00000924      -575.2466094428 -1.39E-06
   186 OT DIIS     0.15E+00    5.2     0.00000917      -575.2466108033 -1.36E-06
   187 OT DIIS     0.15E+00    5.2     0.00000880      -575.2466645759 -5.38E-05
   188 OT SD       0.15E+00    5.1     0.00000869      -575.2467499662 -8.54E-05
   189 OT DIIS     0.15E+00    5.1     0.00000865      -575.2467511714 -1.21E-06
   190 OT SD       0.15E+00    5.1     0.00000844      -575.2468743823 -1.23E-04
   191 OT DIIS     0.15E+00    5.2     0.00000840      -575.2468755189 -1.14E-06
   192 OT SD       0.15E+00    5.2     0.00000811      -575.2470117995 -1.36E-04
   193 OT DIIS     0.15E+00    5.2     0.00000807      -575.2470128480 -1.05E-06
   194 OT DIIS     0.15E+00    5.1     0.00000778      -575.2471232784 -1.10E-04
   195 OT DIIS     0.15E+00    5.2     0.00000788      -575.2471252608 -1.98E-06
   196 OT DIIS     0.15E+00    5.2     0.00000789      -575.2471449721 -1.97E-05
   197 OT DIIS     0.15E+00    5.2     0.00000755      -575.2472093242 -6.44E-05
   198 OT SD       0.15E+00    5.2     0.00000988      -575.2473565926 -1.47E-04
   199 OT DIIS     0.15E+00    5.1     0.00000941      -575.2473581154 -1.52E-06
   200 OT SD       0.15E+00    5.2     0.00000738      -575.2473618567 -3.74E-06
   201 OT DIIS     0.15E+00    5.2     0.00000732      -575.2473627232 -8.67E-07
   202 OT DIIS     0.15E+00    5.1     0.00000758      -575.2473644005 -1.68E-06
   203 OT DIIS     0.15E+00    5.2     0.00000706      -575.2474462443 -8.18E-05
   204 OT DIIS     0.15E+00    5.2     0.00000714      -575.2474466349 -3.91E-07
   205 OT DIIS     0.15E+00    5.2     0.00000690      -575.2474944349 -4.78E-05
   206 OT DIIS     0.15E+00    5.2     0.00000686      -575.2475224941 -2.81E-05
   207 OT DIIS     0.15E+00    5.2     0.00000682      -575.2475351439 -1.26E-05
   208 OT DIIS     0.15E+00    5.2     0.00000665      -575.2476179505 -8.28E-05
   209 OT DIIS     0.15E+00    5.1     0.00000662      -575.2476269424 -8.99E-06
   210 OT DIIS     0.15E+00    5.2     0.00000649      -575.2477075664 -8.06E-05
   211 OT DIIS     0.15E+00    5.1     0.00000644      -575.2477215555 -1.40E-05
   212 OT SD       0.15E+00    5.2     0.00000786      -575.2477659109 -4.44E-05
   213 OT DIIS     0.15E+00    5.2     0.00000755      -575.2477668780 -9.67E-07
   214 OT DIIS     0.15E+00    5.1     0.00000626      -575.2478004022 -3.35E-05
   215 OT DIIS     0.15E+00    5.2     0.00000623      -575.2478044876 -4.09E-06
   216 OT DIIS     0.15E+00    5.2     0.00000611      -575.2478798719 -7.54E-05
   217 OT DIIS     0.15E+00    5.1     0.00000609      -575.2478893448 -9.47E-06
   218 OT DIIS     0.15E+00    5.2     0.00000601      -575.2479503097 -6.10E-05
   219 OT DIIS     0.15E+00    5.2     0.00000596      -575.2479611958 -1.09E-05
   220 OT SD       0.15E+00    5.1     0.00000627      -575.2479839104 -2.27E-05
   221 OT DIIS     0.15E+00    5.2     0.00000619      -575.2479845350 -6.25E-07
   222 OT DIIS     0.15E+00    5.2     0.00000588      -575.2480065475 -2.20E-05
   223 OT DIIS     0.15E+00    5.2     0.00000587      -575.2480216917 -1.51E-05
   224 OT DIIS     0.15E+00    5.2     0.00000586      -575.2480298976 -8.21E-06
   225 OT SD       0.15E+00    5.2     0.00000582      -575.2481177232 -8.78E-05
   226 OT DIIS     0.15E+00    5.2     0.00000580      -575.2481182632 -5.40E-07
   227 OT DIIS     0.15E+00    5.2     0.00000570      -575.2481588685 -4.06E-05
   228 OT DIIS     0.15E+00    5.1     0.00000569      -575.2481633246 -4.46E-06
   229 OT DIIS     0.15E+00    5.1     0.00000567      -575.2481725656 -9.24E-06
   230 OT SD       0.15E+00    5.2     0.00000610      -575.2482089219 -3.64E-05
   231 OT DIIS     0.15E+00    5.2     0.00000599      -575.2482095113 -5.89E-07
   232 OT SD       0.15E+00    5.2     0.00000557      -575.2482337413 -2.42E-05
   233 OT DIIS     0.15E+00    5.2     0.00000556      -575.2482342367 -4.95E-07
   234 OT DIIS     0.15E+00    5.2     0.00000551      -575.2482774972 -4.33E-05
   235 OT DIIS     0.15E+00    5.1     0.00000550      -575.2482849835 -7.49E-06
   236 OT DIIS     0.15E+00    5.1     0.00000548      -575.2482995904 -1.46E-05
   237 OT SD       0.15E+00    5.2     0.00000548      -575.2483219087 -2.23E-05
   238 OT DIIS     0.15E+00    5.2     0.00000547      -575.2483223889 -4.80E-07
   239 OT DIIS     0.15E+00    5.2     0.00000542      -575.2483400395 -1.77E-05
   240 OT DIIS     0.15E+00    5.1     0.00000542      -575.2483409629 -9.23E-07
   241 OT DIIS     0.15E+00    5.2     0.00000541      -575.2483533487 -1.24E-05
   242 OT DIIS     0.15E+00    5.2     0.00000539      -575.2483722701 -1.89E-05
   243 OT DIIS     0.15E+00    5.2     0.00000538      -575.2483749788 -2.71E-06
   244 OT DIIS     0.15E+00    5.2     0.00000537      -575.2483899124 -1.49E-05
   245 OT SD       0.15E+00    5.2     0.00000537      -575.2484070707 -1.72E-05
   246 OT DIIS     0.15E+00    5.2     0.00000537      -575.2484075318 -4.61E-07
   247 OT DIIS     0.15E+00    5.1     0.00000534      -575.2484292869 -2.18E-05
   248 OT DIIS     0.15E+00    5.2     0.00000534      -575.2484319424 -2.66E-06
   249 OT DIIS     0.15E+00    5.1     0.00000533      -575.2484512233 -1.93E-05
   250 OT DIIS     0.15E+00    5.1     0.00000532      -575.2484703615 -1.91E-05
   251 OT DIIS     0.15E+00    5.2     0.00000531      -575.2484757622 -5.40E-06
   252 OT DIIS     0.15E+00    5.2     0.00000530      -575.2484980024 -2.22E-05
   253 OT SD       0.15E+00    5.2     0.00000531      -575.2485186588 -2.07E-05
   254 OT DIIS     0.15E+00    5.2     0.00000530      -575.2485191096 -4.51E-07
   255 OT SD       0.15E+00    5.1     0.00000527      -575.2485658832 -4.68E-05
   256 OT DIIS     0.15E+00    5.1     0.00000526      -575.2485663269 -4.44E-07
   257 OT DIIS     0.15E+00    5.2     0.00000523      -575.2486181824 -5.19E-05
   258 OT DIIS     0.15E+00    5.2     0.00000522      -575.2486277277 -9.55E-06
   259 OT DIIS     0.15E+00    5.2     0.00000522      -575.2486309189 -3.19E-06
   260 OT DIIS     0.15E+00    5.1     0.00000521      -575.2486469262 -1.60E-05
   261 OT DIIS     0.15E+00    5.1     0.00000521      -575.2486517227 -4.80E-06
   262 OT DIIS     0.15E+00    5.2     0.00000520      -575.2486594721 -7.75E-06
   263 OT DIIS     0.15E+00    5.2     0.00000516      -575.2486923945 -3.29E-05
   264 OT DIIS     0.15E+00    5.1     0.00000514      -575.2487034133 -1.10E-05
   265 OT SD       0.15E+00    5.2     0.00000513      -575.2487632487 -5.98E-05
   266 OT DIIS     0.15E+00    5.2     0.00000511      -575.2487636684 -4.20E-07
   267 OT DIIS     0.15E+00    5.1     0.00000505      -575.2488033982 -3.97E-05
   268 OT DIIS     0.15E+00    5.2     0.00000506      -575.2488245269 -2.11E-05
   269 OT DIIS     0.15E+00    5.2     0.00000499      -575.2488255492 -1.02E-06
   270 OT SD       0.15E+00    5.1     0.00000499      -575.2488296702 -4.12E-06
   271 OT DIIS     0.15E+00    5.2     0.00000498      -575.2488300672 -3.97E-07
   272 OT SD       0.15E+00    5.1     0.00000498      -575.2488975108 -6.74E-05
   273 OT DIIS     0.15E+00    5.1     0.00000495      -575.2488979057 -3.95E-07
   274 OT SD       0.15E+00    5.2     0.00000486      -575.2489634181 -6.55E-05
   275 OT DIIS     0.15E+00    5.2     0.00000483      -575.2489637943 -3.76E-07
   276 OT SD       0.15E+00    5.2     0.00000561      -575.2489786067 -1.48E-05
   277 OT DIIS     0.15E+00    5.2     0.00000542      -575.2489791005 -4.94E-07
   278 OT DIIS     0.15E+00    5.2     0.00000482      -575.2490336163 -5.45E-05
   279 OT SD       0.15E+00    5.2     0.00000535      -575.2490714012 -3.78E-05
   280 OT DIIS     0.15E+00    5.2     0.00000518      -575.2490718516 -4.50E-07
   281 OT DIIS     0.15E+00    5.2     0.00000449      -575.2490947806 -2.29E-05
   282 OT SD       0.15E+00    5.1     0.00000460      -575.2491120429 -1.73E-05
   283 OT DIIS     0.15E+00    5.2     0.00000456      -575.2491123793 -3.36E-07
   284 OT DIIS     0.15E+00    5.2     0.00000440      -575.2491187288 -6.35E-06
   285 OT DIIS     0.15E+00    5.1     0.00000445      -575.2491379049 -1.92E-05
   286 OT DIIS     0.15E+00    5.2     0.00000428      -575.2491476592 -9.75E-06
   287 OT SD       0.15E+00    5.1     0.00000427      -575.2491811398 -3.35E-05
   288 OT DIIS     0.15E+00    5.2     0.00000425      -575.2491814310 -2.91E-07
   289 OT SD       0.15E+00    5.2     0.00000417      -575.2492158956 -3.45E-05
   290 OT DIIS     0.15E+00    5.1     0.00000416      -575.2492161731 -2.78E-07
   291 OT SD       0.15E+00    5.2     0.00000403      -575.2492484684 -3.23E-05
   292 OT DIIS     0.15E+00    5.2     0.00000401      -575.2492487272 -2.59E-07
   293 OT SD       0.15E+00    5.1     0.00000412      -575.2492769659 -2.82E-05
   294 OT DIIS     0.15E+00    5.2     0.00000406      -575.2492772352 -2.69E-07
   295 OT SD       0.15E+00    5.2     0.00000390      -575.2493088023 -3.16E-05
   296 OT DIIS     0.15E+00    5.1     0.00000386      -575.2493090445 -2.42E-07
   297 OT SD       0.15E+00    5.2     0.00000370      -575.2493289934 -1.99E-05
   298 OT DIIS     0.15E+00    5.2     0.00000368      -575.2493292114 -2.18E-07
   299 OT DIIS     0.15E+00    5.1     0.00000363      -575.2493443715 -1.52E-05
   300 OT DIIS     0.15E+00    5.2     0.00000356      -575.2493514971 -7.13E-06
   301 OT DIIS     0.15E+00    5.2     0.00000354      -575.2493577512 -6.25E-06
   302 OT DIIS     0.15E+00    5.1     0.00000351      -575.2493631531 -5.40E-06
   303 OT DIIS     0.15E+00    5.2     0.00000344      -575.2493868116 -2.37E-05
   304 OT DIIS     0.15E+00    5.2     0.00000342      -575.2493893543 -2.54E-06
   305 OT SD       0.15E+00    5.1     0.00000344      -575.2494056236 -1.63E-05
   306 OT DIIS     0.15E+00    5.2     0.00000341      -575.2494058120 -1.88E-07
   307 OT SD       0.15E+00    5.1     0.00000331      -575.2494111187 -5.31E-06
   308 OT DIIS     0.15E+00    5.1     0.00000330      -575.2494112938 -1.75E-07
   309 OT DIIS     0.15E+00    5.2     0.00000324      -575.2494318119 -2.05E-05
   310 OT DIIS     0.15E+00    5.2     0.00000322      -575.2494371406 -5.33E-06
   311 OT DIIS     0.15E+00    5.2     0.00000321      -575.2494515958 -1.45E-05
   312 OT DIIS     0.15E+00    5.2     0.00000318      -575.2494520358 -4.40E-07
   313 OT DIIS     0.15E+00    5.2     0.00000315      -575.2494598639 -7.83E-06
   314 OT DIIS     0.15E+00    5.1     0.00000311      -575.2494730090 -1.31E-05
   315 OT DIIS     0.15E+00    5.2     0.00000309      -575.2494759077 -2.90E-06
   316 OT SD       0.15E+00    5.2     0.00000309      -575.2494969014 -2.10E-05
   317 OT DIIS     0.15E+00    5.1     0.00000308      -575.2494970540 -1.53E-07
   318 OT SD       0.15E+00    5.1     0.00000300      -575.2495154412 -1.84E-05
   319 OT DIIS     0.15E+00    5.2     0.00000299      -575.2495155845 -1.43E-07
   320 OT DIIS     0.15E+00    5.2     0.00000295      -575.2495322380 -1.67E-05
   321 OT DIIS     0.15E+00    5.2     0.00000293      -575.2495325241 -2.86E-07
   322 OT DIIS     0.15E+00    5.2     0.00000292      -575.2495401374 -7.61E-06
   323 OT SD       0.15E+00    5.1     0.00000309      -575.2495623439 -2.22E-05
   324 OT SD       0.15E+00    5.2     0.00000305      -575.2495624959 -1.52E-07
   325 OT DIIS     0.15E+00    5.1     0.00000302      -575.2495626440 -1.48E-07
   326 OT DIIS     0.15E+00    5.1     0.00000284      -575.2495777739 -1.51E-05
   327 OT DIIS     0.15E+00    5.2     0.00000302      -575.2495788448 -1.07E-06
   328 OT SD       0.15E+00    5.1     0.00000295      -575.2495803029 -1.46E-06
   329 OT DIIS     0.15E+00    5.1     0.00000292      -575.2495804409 -1.38E-07
   330 OT DIIS     0.15E+00    5.1     0.00000278      -575.2495979586 -1.75E-05
   331 OT DIIS     0.15E+00    5.1     0.00000277      -575.2495988024 -8.44E-07
   332 OT DIIS     0.15E+00    5.2     0.00000274      -575.2496143451 -1.55E-05
   333 OT DIIS     0.15E+00    5.2     0.00000295      -575.2496216458 -7.30E-06
   334 OT DIIS     0.15E+00    5.1     0.00000271      -575.2496268511 -5.21E-06
   335 OT SD       0.15E+00    5.1     0.00000275      -575.2496346695 -7.82E-06
   336 OT SD       0.15E+00    5.2     0.00000273      -575.2496347900 -1.21E-07
   337 OT DIIS     0.15E+00    5.1     0.00000272      -575.2496349089 -1.19E-07
   338 OT SD       0.15E+00    5.1     0.00000265      -575.2496491673 -1.43E-05
   339 OT DIIS     0.15E+00    5.1     0.00000264      -575.2496492794 -1.12E-07
   340 OT DIIS     0.15E+00    5.1     0.00000262      -575.2496635999 -1.43E-05
   341 OT DIIS     0.15E+00    5.1     0.00000261      -575.2496646945 -1.09E-06
   342 OT DIIS     0.15E+00    5.1     0.00000261      -575.2496668926 -2.20E-06
   343 OT DIIS     0.15E+00    5.0     0.00000260      -575.2496679553 -1.06E-06
   344 OT DIIS     0.15E+00    5.1     0.00000259      -575.2496693726 -1.42E-06
   345 OT DIIS     0.15E+00    5.1     0.00000259      -575.2496741951 -4.82E-06
   346 OT DIIS     0.15E+00    5.0     0.00000258      -575.2496757131 -1.52E-06
   347 OT DIIS     0.15E+00    5.1     0.00000258      -575.2496800027 -4.29E-06
   348 OT DIIS     0.15E+00    5.1     0.00000257      -575.2496837997 -3.80E-06
   349 OT DIIS     0.15E+00    5.1     0.00000257      -575.2496903277 -6.53E-06
   350 OT SD       0.15E+00    5.1     0.00000256      -575.2496997749 -9.45E-06
   351 OT DIIS     0.15E+00    5.1     0.00000256      -575.2496998799 -1.05E-07
   352 OT DIIS     0.15E+00    5.0     0.00000254      -575.2497089692 -9.09E-06
   353 OT DIIS     0.15E+00    5.1     0.00000253      -575.2497095802 -6.11E-07
   354 OT DIIS     0.15E+00    5.0     0.00000253      -575.2497113642 -1.78E-06
   355 OT DIIS     0.15E+00    5.0     0.00000253      -575.2497133094 -1.95E-06
   356 OT DIIS     0.15E+00    5.0     0.00000252      -575.2497151522 -1.84E-06
   357 OT DIIS     0.15E+00    5.0     0.00000251      -575.2497234056 -8.25E-06
   358 OT DIIS     0.15E+00    5.0     0.00000251      -575.2497252228 -1.82E-06
   359 OT SD       0.15E+00    5.0     0.00000250      -575.2497369230 -1.17E-05
   360 OT DIIS     0.15E+00    5.0     0.00000250      -575.2497370230 -1.00E-07
   361 OT SD       0.15E+00    5.1     0.00000248      -575.2497548453 -1.78E-05
   362 OT DIIS     0.15E+00    5.2     0.00000248      -575.2497549436 -9.83E-08
   363 OT DIIS     0.15E+00    5.0     0.00000249      -575.2497727116 -1.78E-05
   364 OT SD       0.15E+00    5.0     0.00000249      -575.2497728796 -1.68E-07
   365 OT DIIS     0.15E+00    5.1     0.00000248      -575.2497729785 -9.89E-08
   366 OT SD       0.15E+00    5.0     0.00000245      -575.2497837115 -1.07E-05
   367 OT DIIS     0.15E+00    5.1     0.00000245      -575.2497838074 -9.59E-08
   368 OT SD       0.15E+00    5.2     0.00000244      -575.2497988642 -1.51E-05
   369 OT DIIS     0.15E+00    5.1     0.00000243      -575.2497989590 -9.48E-08
   370 OT DIIS     0.15E+00    5.2     0.00000243      -575.2498186009 -1.96E-05
   371 OT SD       0.15E+00    5.2     0.00000244      -575.2498190591 -4.58E-07
   372 OT DIIS     0.15E+00    5.1     0.00000243      -575.2498191541 -9.50E-08
   373 OT DIIS     0.15E+00    5.2     0.00000240      -575.2498247418 -5.59E-06
   374 OT DIIS     0.15E+00    5.1     0.00000240      -575.2498269732 -2.23E-06
   375 OT DIIS     0.15E+00    5.1     0.00000240      -575.2498314654 -4.49E-06
   376 OT DIIS     0.15E+00    5.0     0.00000240      -575.2498375534 -6.09E-06
   377 OT DIIS     0.15E+00    5.0     0.00000239      -575.2498424184 -4.87E-06
   378 OT DIIS     0.15E+00    5.0     0.00000249      -575.2498431417 -7.23E-07
   379 OT SD       0.15E+00    5.0     0.00000246      -575.2498474698 -4.33E-06
   380 OT DIIS     0.15E+00    5.0     0.00000244      -575.2498475663 -9.65E-08
   381 OT DIIS     0.15E+00    5.0     0.00000238      -575.2498521790 -4.61E-06
   382 OT DIIS     0.15E+00    5.1     0.00000237      -575.2498524986 -3.20E-07
   383 OT DIIS     0.15E+00    5.1     0.00000238      -575.2498607476 -8.25E-06
   384 OT SD       0.15E+00    5.0     0.00000236      -575.2498731961 -1.24E-05
   385 OT DIIS     0.15E+00    5.2     0.00000236      -575.2498732854 -8.93E-08
   386 OT SD       0.15E+00    5.2     0.00000238      -575.2498939143 -2.06E-05
   387 OT DIIS     0.15E+00    5.0     0.00000237      -575.2498940048 -9.04E-08
   388 OT SD       0.15E+00    5.2     0.00000239      -575.2498970092 -3.00E-06
   389 OT DIIS     0.15E+00    5.1     0.00000238      -575.2498971004 -9.12E-08
   390 OT SD       0.15E+00    5.0     0.00000239      -575.2499189138 -2.18E-05
   391 OT DIIS     0.15E+00    5.2     0.00000238      -575.2499190052 -9.14E-08
   392 OT DIIS     0.15E+00    5.1     0.00000252      -575.2499213321 -2.33E-06
   393 OT SD       0.15E+00    5.1     0.00000233      -575.2499293862 -8.05E-06
   394 OT DIIS     0.15E+00    5.2     0.00000233      -575.2499294732 -8.71E-08
   395 OT DIIS     0.15E+00    5.1     0.00000232      -575.2499362677 -6.79E-06
   396 OT DIIS     0.15E+00    5.1     0.00000232      -575.2499364238 -1.56E-07
   397 OT DIIS     0.15E+00    5.1     0.00000231      -575.2499395342 -3.11E-06
   398 OT DIIS     0.15E+00    5.1     0.00000231      -575.2499482445 -8.71E-06
   399 OT DIIS     0.15E+00    5.0     0.00000230      -575.2499579369 -9.69E-06
   400 OT DIIS     0.15E+00    5.0     0.00000235      -575.2499598496 -1.91E-06
   401 OT DIIS     0.15E+00    5.0     0.00000230      -575.2499609234 -1.07E-06
   402 OT DIIS     0.15E+00    5.0     0.00000229      -575.2499658109 -4.89E-06
   403 OT DIIS     0.15E+00    5.0     0.00000229      -575.2499668358 -1.02E-06
   404 OT DIIS     0.15E+00    5.0     0.00000229      -575.2499686511 -1.82E-06
   405 OT DIIS     0.15E+00    5.0     0.00000228      -575.2499749014 -6.25E-06
   406 OT DIIS     0.15E+00    5.1     0.00000228      -575.2499822309 -7.33E-06
   407 OT SD       0.15E+00    5.0     0.00000230      -575.2500002199 -1.80E-05
   408 OT DIIS     0.15E+00    5.1     0.00000229      -575.2500003041 -8.41E-08
   409 OT DIIS     0.15E+00    5.2     0.00000227      -575.2500115405 -1.12E-05
   410 OT SD       0.15E+00    5.0     0.00000227      -575.2500118499 -3.09E-07
   411 OT DIIS     0.15E+00    5.1     0.00000226      -575.2500119319 -8.21E-08
   412 OT SD       0.15E+00    5.2     0.00000228      -575.2500333704 -2.14E-05
   413 OT DIIS     0.15E+00    5.0     0.00000227      -575.2500334534 -8.30E-08
   414 OT SD       0.15E+00    5.1     0.00000225      -575.2500383895 -4.94E-06
   415 OT DIIS     0.15E+00    5.2     0.00000225      -575.2500384706 -8.11E-08
   416 OT SD       0.15E+00    5.0     0.00000225      -575.2500563406 -1.79E-05
   417 OT DIIS     0.15E+00    5.1     0.00000225      -575.2500564217 -8.11E-08
   418 OT DIIS     0.15E+00    5.1     0.00000224      -575.2500650967 -8.67E-06
   419 OT DIIS     0.15E+00    5.2     0.00000225      -575.2500711521 -6.06E-06
   420 OT SD       0.15E+00    5.1     0.00000234      -575.2500738487 -2.70E-06
   421 OT SD       0.15E+00    5.0     0.00000232      -575.2500739358 -8.71E-08
   422 OT DIIS     0.15E+00    5.0     0.00000230      -575.2500740214 -8.56E-08
   423 OT DIIS     0.15E+00    5.0     0.00000222      -575.2500752133 -1.19E-06
   424 OT DIIS     0.15E+00    5.0     0.00000222      -575.2500845310 -9.32E-06
   425 OT SD       0.15E+00    5.0     0.00000248      -575.2501026623 -1.81E-05
   426 OT SD       0.15E+00    5.0     0.00000242      -575.2501027592 -9.69E-08
   427 OT SD       0.15E+00    5.0     0.00000238      -575.2501028523 -9.31E-08
   428 OT DIIS     0.15E+00    5.1     0.00000235      -575.2501029424 -9.01E-08
   429 OT DIIS     0.15E+00    5.1     0.00000224      -575.2501161687 -1.32E-05
   430 OT DIIS     0.15E+00    5.0     0.00000220      -575.2501170698 -9.01E-07
   431 OT SD       0.15E+00    5.1     0.00000221      -575.2501247635 -7.69E-06
   432 OT DIIS     0.15E+00    5.2     0.00000220      -575.2501248412 -7.77E-08
   433 OT SD       0.15E+00    5.1     0.00000219      -575.2501305445 -5.70E-06
   434 OT DIIS     0.15E+00    5.1     0.00000219      -575.2501306209 -7.65E-08
   435 OT DIIS     0.15E+00    5.2     0.00000218      -575.2501388762 -8.26E-06
   436 OT DIIS     0.15E+00    5.1     0.00000218      -575.2501396643 -7.88E-07
   437 OT DIIS     0.15E+00    5.1     0.00000222      -575.2501523843 -1.27E-05
   438 OT SD       0.15E+00    5.2     0.00000226      -575.2501650303 -1.26E-05
   439 OT SD       0.15E+00    5.0     0.00000224      -575.2501651115 -8.12E-08
   440 OT SD       0.15E+00    5.2     0.00000223      -575.2501651915 -8.00E-08
   441 OT DIIS     0.15E+00    5.2     0.00000222      -575.2501652706 -7.91E-08
   442 OT SD       0.15E+00    5.1     0.00000217      -575.2501835611 -1.83E-05
   443 OT DIIS     0.15E+00    5.1     0.00000216      -575.2501836360 -7.49E-08
   444 OT DIIS     0.15E+00    5.0     0.00000217      -575.2501894399 -5.80E-06
   445 OT SD       0.15E+00    5.0     0.00000216      -575.2501974237 -7.98E-06
   446 OT DIIS     0.15E+00   24.3     0.00000216      -575.2501974982 -7.45E-08
   447 OT DIIS     0.15E+00    9.1     0.00000218      -575.2502076829 -1.02E-05
   448 OT SD       0.15E+00    5.1     0.00000216      -575.2502081117 -4.29E-07
   449 OT DIIS     0.15E+00    5.1     0.00000216      -575.2502081864 -7.47E-08
   450 OT DIIS     0.15E+00    5.3     0.00000215      -575.2502104383 -2.25E-06
   451 OT DIIS     0.15E+00    5.1     0.00000215      -575.2502181444 -7.71E-06
   452 OT SD       0.15E+00    5.0     0.00000215      -575.2502202302 -2.09E-06
   453 OT DIIS     0.15E+00    5.2     0.00000215      -575.2502203039 -7.37E-08
   454 OT DIIS     0.15E+00    5.1     0.00000214      -575.2502304807 -1.02E-05
   455 OT DIIS     0.15E+00    5.1     0.00000214      -575.2502311987 -7.18E-07
   456 OT DIIS     0.15E+00    5.2     0.00000214      -575.2502321241 -9.25E-07
   457 OT DIIS     0.15E+00    5.1     0.00000214      -575.2502341356 -2.01E-06
   458 OT DIIS     0.15E+00    5.1     0.00000214      -575.2502362541 -2.12E-06
   459 OT DIIS     0.15E+00    5.2     0.00000214      -575.2502367838 -5.30E-07
   460 OT SD       0.15E+00    5.2     0.00000214      -575.2502413484 -4.56E-06
   461 OT DIIS     0.15E+00    5.2     0.00000214      -575.2502414214 -7.30E-08
   462 OT DIIS     0.15E+00    5.1     0.00000214      -575.2502457799 -4.36E-06
   463 OT SD       0.15E+00    5.2     0.00000214      -575.2502467495 -9.70E-07
   464 OT DIIS     0.15E+00    5.1     0.00000214      -575.2502468225 -7.29E-08
   465 OT DIIS     0.15E+00    5.1     0.00000213      -575.2502494668 -2.64E-06
   466 OT DIIS     0.15E+00    5.1     0.00000213      -575.2502497789 -3.12E-07
   467 OT DIIS     0.15E+00    5.1     0.00000213      -575.2502512085 -1.43E-06
   468 OT DIIS     0.15E+00    5.0     0.00000213      -575.2502521879 -9.79E-07
   469 OT SD       0.15E+00    5.1     0.00000213      -575.2502563605 -4.17E-06
   470 OT DIIS     0.15E+00    5.1     0.00000213      -575.2502564333 -7.28E-08
   471 OT DIIS     0.15E+00    5.1     0.00000213      -575.2502576815 -1.25E-06
   472 OT DIIS     0.15E+00    5.1     0.00000213      -575.2502576943 -1.28E-08
   473 OT DIIS     0.15E+00    5.1     0.00000213      -575.2502585796 -8.85E-07
   474 OT SD       0.15E+00    5.1     0.00000213      -575.2502615126 -2.93E-06
   475 OT DIIS     0.15E+00    5.1     0.00000213      -575.2502615853 -7.27E-08
   476 OT DIIS     0.15E+00    5.1     0.00000213      -575.2502616578 -7.25E-08
   477 OT SD       0.15E+00    5.1     0.00000213      -575.2502623918 -7.34E-07
   478 OT DIIS     0.15E+00    5.0     0.00000213      -575.2502624645 -7.27E-08
   479 OT DIIS     0.15E+00    5.1     0.00000213      -575.2502632550 -7.90E-07
   480 OT DIIS     0.15E+00    5.0     0.00000213      -575.2502635176 -2.63E-07
   481 OT DIIS     0.15E+00    5.0     0.00000213      -575.2502643446 -8.27E-07
   482 OT DIIS     0.15E+00    5.1     0.00000213      -575.2502651775 -8.33E-07
   483 OT DIIS     0.15E+00    5.1     0.00000213      -575.2502654912 -3.14E-07
   484 OT SD       0.15E+00    5.1     0.00000213      -575.2502661203 -6.29E-07
   485 OT DIIS     0.15E+00    5.1     0.00000213      -575.2502661929 -7.27E-08
   486 OT SD       0.15E+00    5.1     0.00000213      -575.2502664063 -2.13E-07
   487 OT SD       0.15E+00   17.0     0.00000213      -575.2502664790 -7.27E-08
   488 OT SD       0.15E+00   22.2     0.00000213      -575.2502665517 -7.27E-08
   489 OT SD       0.15E+00   22.3     0.00000213      -575.2502666244 -7.27E-08
   490 OT SD       0.15E+00   22.2     0.00000213      -575.2502666970 -7.27E-08
   491 OT SD       0.15E+00   22.2     0.00000213      -575.2502667697 -7.27E-08
   492 OT SD       0.15E+00    5.2     0.00000213      -575.2502668424 -7.27E-08
 Singular DIIS matrix
   493 OT SD       0.15E+00    5.1     0.00000213      -575.2502669151 -7.27E-08
   494 OT SD       0.15E+00    5.0     0.00000213      -575.2502669878 -7.27E-08
   495 OT SD       0.15E+00    5.1     0.00000213      -575.2502670604 -7.27E-08
   496 OT SD       0.15E+00   17.6     0.00000213      -575.2502671331 -7.27E-08
   497 OT SD       0.15E+00   22.2     0.00000213      -575.2502672058 -7.27E-08
   498 OT SD       0.15E+00   22.2     0.00000213      -575.2502672785 -7.27E-08
   499 OT SD       0.15E+00   22.2     0.00000213      -575.2502673512 -7.27E-08
   500 OT SD       0.15E+00   22.3     0.00000213      -575.2502674238 -7.27E-08
   501 OT SD       0.15E+00   22.2     0.00000213      -575.2502674965 -7.27E-08
   502 OT SD       0.15E+00   22.2     0.00000213      -575.2502675692 -7.27E-08
   503 OT SD       0.15E+00   15.5     0.00000213      -575.2502676419 -7.27E-08
   504 OT SD       0.15E+00    5.1     0.00000213      -575.2502677146 -7.27E-08
   505 OT SD       0.15E+00    5.0     0.00000213      -575.2502677872 -7.27E-08
   506 OT SD       0.15E+00    5.0     0.00000213      -575.2502678599 -7.27E-08
   507 OT SD       0.15E+00    5.0     0.00000213      -575.2502679326 -7.27E-08
   508 OT SD       0.15E+00    5.0     0.00000213      -575.2502680053 -7.27E-08
   509 OT SD       0.15E+00    5.0     0.00000213      -575.2502680780 -7.27E-08
   510 OT SD       0.15E+00    5.0     0.00000213      -575.2502681506 -7.27E-08
   511 OT SD       0.15E+00    5.1     0.00000213      -575.2502682233 -7.27E-08
   512 OT SD       0.15E+00    5.0     0.00000213      -575.2502682960 -7.27E-08
   513 OT SD       0.15E+00    5.0     0.00000213      -575.2502683687 -7.27E-08
 Singular DIIS matrix
   514 OT SD       0.15E+00    5.1     0.00000213      -575.2502684414 -7.27E-08
   515 OT SD       0.15E+00    5.0     0.00000213      -575.2502685141 -7.27E-08
   516 OT SD       0.15E+00    5.1     0.00000213      -575.2502685867 -7.27E-08
   517 OT SD       0.15E+00    5.1     0.00000213      -575.2502686594 -7.27E-08
   518 OT SD       0.15E+00    5.1     0.00000213      -575.2502687321 -7.27E-08
   519 OT SD       0.15E+00    5.1     0.00000213      -575.2502688048 -7.27E-08
   520 OT SD       0.15E+00    5.1     0.00000213      -575.2502688775 -7.27E-08
   521 OT SD       0.15E+00    5.1     0.00000213      -575.2502689501 -7.27E-08
   522 OT SD       0.15E+00    5.0     0.00000213      -575.2502690228 -7.27E-08
   523 OT SD       0.15E+00   20.9     0.00000213      -575.2502690955 -7.27E-08
   524 OT SD       0.15E+00    6.6     0.00000213      -575.2502691682 -7.27E-08
   525 OT SD       0.15E+00    5.0     0.00000213      -575.2502692409 -7.27E-08
   526 OT SD       0.15E+00    5.1     0.00000213      -575.2502693136 -7.27E-08
   527 OT SD       0.15E+00    5.1     0.00000213      -575.2502693862 -7.27E-08
   528 OT SD       0.15E+00    5.0     0.00000213      -575.2502694589 -7.27E-08
   529 OT SD       0.15E+00    5.1     0.00000213      -575.2502695316 -7.27E-08
   530 OT SD       0.15E+00    5.1     0.00000213      -575.2502696043 -7.27E-08
   531 OT SD       0.15E+00    5.0     0.00000213      -575.2502696770 -7.27E-08
   532 OT SD       0.15E+00    5.0     0.00000213      -575.2502697497 -7.27E-08
   533 OT SD       0.15E+00    5.0     0.00000213      -575.2502698223 -7.27E-08
   534 OT SD       0.15E+00    5.0     0.00000213      -575.2502698950 -7.27E-08
   535 OT SD       0.15E+00    5.1     0.00000213      -575.2502699677 -7.27E-08
   536 OT SD       0.15E+00    5.1     0.00000213      -575.2502700404 -7.27E-08
   537 OT SD       0.15E+00    5.0     0.00000213      -575.2502701131 -7.27E-08
   538 OT SD       0.15E+00    5.0     0.00000213      -575.2502701858 -7.27E-08
   539 OT SD       0.15E+00    5.0     0.00000213      -575.2502702584 -7.27E-08
   540 OT SD       0.15E+00    5.1     0.00000213      -575.2502703311 -7.27E-08
   541 OT SD       0.15E+00   17.4     0.00000213      -575.2502704038 -7.27E-08
   542 OT SD       0.15E+00   22.3     0.00000213      -575.2502704765 -7.27E-08
   543 OT SD       0.15E+00   22.2     0.00000213      -575.2502705492 -7.27E-08
   544 OT SD       0.15E+00   22.3     0.00000213      -575.2502706219 -7.27E-08
   545 OT SD       0.15E+00   22.2     0.00000213      -575.2502706946 -7.27E-08
   546 OT SD       0.15E+00   22.3     0.00000213      -575.2502707672 -7.27E-08
   547 OT SD       0.15E+00   22.3     0.00000213      -575.2502708399 -7.27E-08
   548 OT SD       0.15E+00   11.6     0.00000213      -575.2502709126 -7.27E-08
   549 OT SD       0.15E+00    5.1     0.00000213      -575.2502709853 -7.27E-08
   550 OT SD       0.15E+00    5.2     0.00000213      -575.2502710580 -7.27E-08
   551 OT DIIS     0.15E+00    5.1     0.00000213      -575.2502711307 -7.27E-08
   552 OT SD       0.15E+00    5.2     0.00000341      -575.2502890582 -1.79E-05
   553 OT SD       0.15E+00    5.1     0.00000322      -575.2502892391 -1.81E-07
   554 OT SD       0.15E+00    5.1     0.00000306      -575.2502894007 -1.62E-07
   555 OT SD       0.15E+00    5.1     0.00000293      -575.2502895470 -1.46E-07
   556 OT SD       0.15E+00    5.1     0.00000281      -575.2502896811 -1.34E-07
   557 OT SD       0.15E+00    5.1     0.00000272      -575.2502898053 -1.24E-07
   558 OT DIIS     0.15E+00    5.1     0.00000264      -575.2502899214 -1.16E-07
   559 OT DIIS     0.15E+00    5.2     0.00000215      -575.2502944123 -4.49E-06
   560 OT DIIS     0.15E+00    5.1     0.00000215      -575.2502948124 -4.00E-07
   561 OT DIIS     0.15E+00    5.2     0.00000215      -575.2502953496 -5.37E-07
   562 OT DIIS     0.15E+00    5.2     0.00000214      -575.2502962024 -8.53E-07
   563 OT DIIS     0.15E+00    5.2     0.00000214      -575.2502968171 -6.15E-07
   564 OT DIIS     0.15E+00    5.2     0.00000214      -575.2502977413 -9.24E-07
   565 OT DIIS     0.15E+00    5.2     0.00000214      -575.2502981050 -3.64E-07
   566 OT DIIS     0.15E+00    5.1     0.00000214      -575.2502995728 -1.47E-06
   567 OT DIIS     0.15E+00    5.1     0.00000214      -575.2502998649 -2.92E-07
   568 OT DIIS     0.15E+00    5.1     0.00000214      -575.2503010321 -1.17E-06
   569 OT DIIS     0.15E+00    5.1     0.00000214      -575.2503013976 -3.66E-07
   570 OT DIIS     0.15E+00    5.1     0.00000214      -575.2503017972 -4.00E-07
   571 OT DIIS     0.15E+00    5.1     0.00000214      -575.2503035171 -1.72E-06
   572 OT DIIS     0.15E+00    5.1     0.00000214      -575.2503035986 -8.15E-08
   573 OT DIIS     0.15E+00    5.1     0.00000214      -575.2503041940 -5.95E-07
   574 OT DIIS     0.15E+00    5.2     0.00000214      -575.2503063854 -2.19E-06
   575 OT SD       0.15E+00    5.1     0.00000214      -575.2503078673 -1.48E-06
   576 OT SD       0.15E+00    5.2     0.00000214      -575.2503079407 -7.34E-08
   577 OT SD       0.15E+00    5.1     0.00000214      -575.2503080141 -7.34E-08
   578 OT SD       0.15E+00    5.1     0.00000214      -575.2503080874 -7.34E-08
   579 OT SD       0.15E+00    5.1     0.00000214      -575.2503081608 -7.34E-08
   580 OT SD       0.15E+00    5.1     0.00000214      -575.2503082342 -7.34E-08
   581 OT SD       0.15E+00    5.1     0.00000214      -575.2503083075 -7.34E-08
   582 OT SD       0.15E+00    5.1     0.00000214      -575.2503083809 -7.34E-08
   583 OT SD       0.15E+00    5.1     0.00000214      -575.2503084543 -7.34E-08
   584 OT SD       0.15E+00    5.2     0.00000214      -575.2503085276 -7.34E-08
   585 OT SD       0.15E+00    5.2     0.00000214      -575.2503086010 -7.34E-08
   586 OT DIIS     0.15E+00    5.1     0.00000214      -575.2503086744 -7.34E-08
   587 OT SD       0.15E+00    5.1     0.00000215      -575.2503272736 -1.86E-05
   588 OT SD       0.15E+00    5.1     0.00000215      -575.2503273474 -7.38E-08
   589 OT SD       0.15E+00    5.1     0.00000215      -575.2503274211 -7.37E-08
   590 OT SD       0.15E+00    5.1     0.00000215      -575.2503274948 -7.37E-08
   591 OT SD       0.15E+00    5.1     0.00000215      -575.2503275685 -7.36E-08
   592 OT SD       0.15E+00    5.2     0.00000215      -575.2503276421 -7.36E-08
   593 OT DIIS     0.15E+00    5.1     0.00000215      -575.2503277157 -7.36E-08
   594 OT SD       0.15E+00    5.1     0.00000214      -575.2503297796 -2.06E-06
   595 OT SD       0.15E+00    5.1     0.00000214      -575.2503298531 -7.35E-08
   596 OT SD       0.15E+00    5.2     0.00000214      -575.2503299266 -7.35E-08
   597 OT SD       0.15E+00    5.2     0.00000214      -575.2503300000 -7.35E-08
   598 OT SD       0.15E+00    5.2     0.00000214      -575.2503300735 -7.35E-08
   599 OT SD       0.15E+00    5.1     0.00000214      -575.2503301470 -7.35E-08
   600 OT SD       0.15E+00    5.1     0.00000214      -575.2503302205 -7.35E-08
   601 OT SD       0.15E+00    5.1     0.00000214      -575.2503302939 -7.35E-08
   602 OT SD       0.15E+00    5.1     0.00000214      -575.2503303674 -7.35E-08
   603 OT SD       0.15E+00    5.1     0.00000214      -575.2503304409 -7.35E-08
   604 OT SD       0.15E+00    5.1     0.00000214      -575.2503305144 -7.35E-08
   605 OT SD       0.15E+00    5.1     0.00000214      -575.2503305879 -7.35E-08
   606 OT SD       0.15E+00    5.2     0.00000214      -575.2503306613 -7.35E-08
   607 OT SD       0.15E+00    5.2     0.00000214      -575.2503307348 -7.35E-08
   608 OT SD       0.15E+00    5.1     0.00000214      -575.2503308083 -7.35E-08
   609 OT SD       0.15E+00    5.2     0.00000214      -575.2503308818 -7.35E-08
   610 OT SD       0.15E+00    5.2     0.00000214      -575.2503309553 -7.35E-08
   611 OT SD       0.15E+00    5.1     0.00000214      -575.2503310287 -7.35E-08
   612 OT SD       0.15E+00    5.1     0.00000214      -575.2503311022 -7.35E-08
   613 OT SD       0.15E+00    5.1     0.00000214      -575.2503311757 -7.35E-08
   614 OT SD       0.15E+00    5.1     0.00000214      -575.2503312492 -7.35E-08
   615 OT SD       0.15E+00    5.2     0.00000214      -575.2503313227 -7.35E-08
   616 OT SD       0.15E+00    5.1     0.00000214      -575.2503313962 -7.35E-08
   617 OT SD       0.15E+00    5.2     0.00000214      -575.2503314697 -7.35E-08
   618 OT SD       0.15E+00    5.2     0.00000214      -575.2503315431 -7.35E-08
 Singular DIIS matrix
   619 OT SD       0.15E+00    5.1     0.00000214      -575.2503316166 -7.35E-08
   620 OT SD       0.15E+00    5.2     0.00000214      -575.2503316901 -7.35E-08
   621 OT SD       0.15E+00    5.2     0.00000214      -575.2503317636 -7.35E-08
   622 OT SD       0.15E+00    5.1     0.00000214      -575.2503318371 -7.35E-08
   623 OT SD       0.15E+00    5.1     0.00000214      -575.2503319106 -7.35E-08
   624 OT SD       0.15E+00    5.1     0.00000214      -575.2503319841 -7.35E-08
   625 OT SD       0.15E+00    5.1     0.00000214      -575.2503320576 -7.35E-08
   626 OT SD       0.15E+00    5.1     0.00000214      -575.2503321310 -7.35E-08
   627 OT SD       0.15E+00    5.1     0.00000214      -575.2503322045 -7.35E-08
 Singular DIIS matrix
   628 OT SD       0.15E+00    5.2     0.00000214      -575.2503322780 -7.35E-08
 Singular DIIS matrix
   629 OT SD       0.15E+00    5.1     0.00000214      -575.2503323515 -7.35E-08
   630 OT SD       0.15E+00    5.2     0.00000214      -575.2503324250 -7.35E-08
   631 OT SD       0.15E+00    5.1     0.00000214      -575.2503324985 -7.35E-08
   632 OT SD       0.15E+00    5.1     0.00000214      -575.2503325720 -7.35E-08
   633 OT SD       0.15E+00    5.1     0.00000214      -575.2503326455 -7.35E-08
   634 OT SD       0.15E+00    5.1     0.00000214      -575.2503327190 -7.35E-08
   635 OT SD       0.15E+00    5.2     0.00000214      -575.2503327925 -7.35E-08
   636 OT SD       0.15E+00    5.1     0.00000214      -575.2503328660 -7.35E-08
   637 OT SD       0.15E+00    5.2     0.00000214      -575.2503329395 -7.35E-08
   638 OT SD       0.15E+00    5.1     0.00000214      -575.2503330130 -7.35E-08
   639 OT SD       0.15E+00    5.2     0.00000214      -575.2503330864 -7.35E-08
   640 OT SD       0.15E+00    5.2     0.00000214      -575.2503331599 -7.35E-08
   641 OT SD       0.15E+00    5.1     0.00000214      -575.2503332334 -7.35E-08
   642 OT SD       0.15E+00    5.1     0.00000214      -575.2503333069 -7.35E-08
   643 OT SD       0.15E+00    5.2     0.00000214      -575.2503333804 -7.35E-08
   644 OT SD       0.15E+00    5.1     0.00000214      -575.2503334539 -7.35E-08
   645 OT SD       0.15E+00    5.1     0.00000214      -575.2503335274 -7.35E-08
   646 OT SD       0.15E+00    5.2     0.00000214      -575.2503336009 -7.35E-08
   647 OT SD       0.15E+00    5.1     0.00000214      -575.2503336744 -7.35E-08
   648 OT SD       0.15E+00    5.2     0.00000214      -575.2503337479 -7.35E-08
   649 OT SD       0.15E+00    5.1     0.00000214      -575.2503338214 -7.35E-08
   650 OT SD       0.15E+00    5.1     0.00000214      -575.2503338949 -7.35E-08
   651 OT SD       0.15E+00    5.1     0.00000214      -575.2503339684 -7.35E-08
   652 OT SD       0.15E+00    5.2     0.00000214      -575.2503340419 -7.35E-08
 Singular DIIS matrix
   653 OT SD       0.15E+00    5.1     0.00000214      -575.2503341154 -7.35E-08
   654 OT SD       0.15E+00    5.1     0.00000214      -575.2503341890 -7.35E-08
   655 OT SD       0.15E+00    5.2     0.00000214      -575.2503342625 -7.35E-08
   656 OT SD       0.15E+00    5.2     0.00000214      -575.2503343360 -7.35E-08
   657 OT SD       0.15E+00    5.1     0.00000214      -575.2503344095 -7.35E-08
   658 OT SD       0.15E+00    5.2     0.00000214      -575.2503344830 -7.35E-08
   659 OT SD       0.15E+00    5.1     0.00000214      -575.2503345565 -7.35E-08
   660 OT SD       0.15E+00    5.1     0.00000214      -575.2503346300 -7.35E-08
   661 OT SD       0.15E+00    5.1     0.00000214      -575.2503347035 -7.35E-08
   662 OT SD       0.15E+00    5.2     0.00000214      -575.2503347770 -7.35E-08
   663 OT SD       0.15E+00    5.1     0.00000214      -575.2503348505 -7.35E-08
   664 OT SD       0.15E+00    5.1     0.00000214      -575.2503349240 -7.35E-08
   665 OT SD       0.15E+00    5.1     0.00000214      -575.2503349975 -7.35E-08
   666 OT SD       0.15E+00    5.2     0.00000214      -575.2503350710 -7.35E-08
 Singular DIIS matrix
   667 OT SD       0.15E+00    5.2     0.00000214      -575.2503351446 -7.35E-08
   668 OT SD       0.15E+00    5.2     0.00000214      -575.2503352181 -7.35E-08
   669 OT SD       0.15E+00    5.1     0.00000214      -575.2503352916 -7.35E-08
   670 OT SD       0.15E+00    5.1     0.00000214      -575.2503353651 -7.35E-08
   671 OT SD       0.15E+00    5.1     0.00000214      -575.2503354386 -7.35E-08
   672 OT SD       0.15E+00    5.1     0.00000214      -575.2503355121 -7.35E-08
   673 OT SD       0.15E+00    5.1     0.00000214      -575.2503355856 -7.35E-08
   674 OT SD       0.15E+00    5.2     0.00000214      -575.2503356591 -7.35E-08
   675 OT SD       0.15E+00    5.1     0.00000214      -575.2503357327 -7.35E-08
   676 OT SD       0.15E+00    5.1     0.00000214      -575.2503358062 -7.35E-08
   677 OT SD       0.15E+00    5.2     0.00000214      -575.2503358797 -7.35E-08
   678 OT SD       0.15E+00    5.2     0.00000214      -575.2503359532 -7.35E-08
   679 OT SD       0.15E+00    5.1     0.00000214      -575.2503360267 -7.35E-08
 Singular DIIS matrix
   680 OT SD       0.15E+00    5.2     0.00000214      -575.2503361002 -7.35E-08
   681 OT SD       0.15E+00    5.2     0.00000214      -575.2503361738 -7.35E-08
   682 OT SD       0.15E+00    5.2     0.00000214      -575.2503362473 -7.35E-08
   683 OT SD       0.15E+00    5.1     0.00000214      -575.2503363208 -7.35E-08
   684 OT SD       0.15E+00    5.1     0.00000214      -575.2503363943 -7.35E-08
   685 OT SD       0.15E+00    5.1     0.00000214      -575.2503364678 -7.35E-08
   686 OT SD       0.15E+00    5.1     0.00000214      -575.2503365414 -7.35E-08
   687 OT SD       0.15E+00    5.1     0.00000214      -575.2503366149 -7.35E-08
   688 OT DIIS     0.15E+00    5.1     0.00000214      -575.2503366884 -7.35E-08
   689 OT DIIS     0.15E+00    5.1     0.00005881      -575.2500579287  2.79E-04
 Singular DIIS matrix
   690 OT SD       0.15E+00    5.2     0.00000245      -575.2502904972 -2.33E-04
   691 OT DIIS     0.15E+00    5.2     0.00000240      -575.2502905923 -9.51E-08
   692 OT SD       0.15E+00    5.2     0.00000816      -575.2503077824 -1.72E-05
   693 OT SD       0.15E+00    5.2     0.00000740      -575.2503087957 -1.01E-06
   694 OT SD       0.15E+00    5.1     0.00000674      -575.2503096310 -8.35E-07
   695 OT DIIS     0.15E+00    5.2     0.00000618      -575.2503103267 -6.96E-07
   696 OT DIIS     0.15E+00    5.1     0.00000216      -575.2503695823 -5.93E-05
   697 OT DIIS     0.15E+00    5.2     0.00000247      -575.2503875419 -1.80E-05
   698 OT DIIS     0.15E+00    5.1     0.00000561      -575.2503972321 -9.69E-06
   699 OT DIIS     0.15E+00    5.1     0.00002134      -575.2505121617 -1.15E-04
   700 OT DIIS     0.15E+00    5.2     0.00000671      -575.2503306725  1.81E-04
   701 OT SD       0.15E+00    5.1     0.00000504      -575.2503485279 -1.79E-05
   702 OT SD       0.15E+00    5.1     0.00000465      -575.2503489181 -3.90E-07
   703 OT DIIS     0.15E+00    5.1     0.00000432      -575.2503492513 -3.33E-07
   704 OT SD       0.15E+00    5.2     0.00000692      -575.2504606995 -1.11E-04
   705 OT SD       0.15E+00    5.2     0.00000633      -575.2504614325 -7.33E-07
   706 OT SD       0.15E+00    5.2     0.00000581      -575.2504620462 -6.14E-07
   707 OT SD       0.15E+00    5.1     0.00000537      -575.2504625656 -5.19E-07
   708 OT SD       0.15E+00    5.2     0.00000498      -575.2504630096 -4.44E-07
   709 OT SD       0.15E+00    5.1     0.00000465      -575.2504633931 -3.83E-07
   710 OT DIIS     0.15E+00    5.1     0.00000436      -575.2504637275 -3.34E-07
   711 OT SD       0.15E+00    5.1     0.00000223      -575.2504706742 -6.95E-06
   712 OT DIIS     0.15E+00    5.1     0.00000222      -575.2504707533 -7.91E-08
   713 OT DIIS     0.15E+00    5.2     0.00000221      -575.2504712983 -5.45E-07
   714 OT DIIS     0.15E+00    5.2     0.00000221      -575.2504729138 -1.62E-06
   715 OT DIIS     0.15E+00    5.2     0.00000221      -575.2504738150 -9.01E-07
   716 OT DIIS     0.15E+00    5.2     0.00000220      -575.2504744144 -5.99E-07
   717 OT DIIS     0.15E+00    5.1     0.00000220      -575.2504757625 -1.35E-06
   718 OT DIIS     0.15E+00    5.2     0.00000220      -575.2504761222 -3.60E-07
   719 OT DIIS     0.15E+00    5.1     0.00000219      -575.2504798030 -3.68E-06
   720 OT DIIS     0.15E+00    5.1     0.00000219      -575.2504822544 -2.45E-06
   721 OT DIIS     0.15E+00    5.4     0.00000219      -575.2504847385 -2.48E-06
   722 OT DIIS     0.15E+00    5.1     0.00000219      -575.2504858254 -1.09E-06
   723 OT DIIS     0.15E+00    5.1     0.00000219      -575.2504871393 -1.31E-06
   724 OT DIIS     0.15E+00    5.1     0.00000219      -575.2504890660 -1.93E-06
   725 OT DIIS     0.15E+00    5.2     0.00000218      -575.2504904809 -1.41E-06
   726 OT SD       0.15E+00    5.1     0.00000218      -575.2504923805 -1.90E-06
   727 OT DIIS     0.15E+00    5.1     0.00000218      -575.2504924567 -7.62E-08
   728 OT DIIS     0.15E+00    5.2     0.00000218      -575.2504965720 -4.12E-06
   729 OT DIIS     0.15E+00    5.1     0.00000218      -575.2504972917 -7.20E-07
   730 OT DIIS     0.15E+00    5.2     0.00000218      -575.2504985040 -1.21E-06
   731 OT DIIS     0.15E+00    5.1     0.00000218      -575.2504992283 -7.24E-07
   732 OT SD       0.15E+00    5.1     0.00000218      -575.2505022781 -3.05E-06
   733 OT DIIS     0.15E+00    5.1     0.00000218      -575.2505023541 -7.60E-08
   734 OT DIIS     0.15E+00    5.1     0.00000218      -575.2505073864 -5.03E-06
   735 OT DIIS     0.15E+00    5.2     0.00000218      -575.2505080616 -6.75E-07
   736 OT DIIS     0.15E+00    5.1     0.00000218      -575.2505169577 -8.90E-06
   737 OT DIIS     0.15E+00    5.1     0.00000218      -575.2505177623 -8.05E-07
   738 OT DIIS     0.15E+00    5.2     0.00000218      -575.2505190345 -1.27E-06
   739 OT DIIS     0.15E+00    5.1     0.00000218      -575.2505201653 -1.13E-06
   740 OT DIIS     0.15E+00    5.2     0.00000218      -575.2505204465 -2.81E-07
   741 OT SD       0.15E+00    5.1     0.00000218      -575.2505280452 -7.60E-06
   742 OT DIIS     0.15E+00    5.1     0.00000218      -575.2505281212 -7.60E-08
   743 OT DIIS     0.15E+00    5.1     0.00000217      -575.2505354906 -7.37E-06
   744 OT SD       0.15E+00    5.2     0.00000217      -575.2505359265 -4.36E-07
   745 OT DIIS     0.15E+00    5.1     0.00000217      -575.2505360021 -7.56E-08
   746 OT DIIS     0.15E+00    5.2     0.00000218      -575.2505382035 -2.20E-06
   747 OT DIIS     0.15E+00    5.1     0.00000217      -575.2505455536 -7.35E-06
   748 OT SD       0.15E+00    5.1     0.00000218      -575.2505477962 -2.24E-06
   749 OT DIIS     0.15E+00    5.1     0.00000218      -575.2505478719 -7.57E-08
   750 OT DIIS     0.15E+00    5.1     0.00000217      -575.2505574702 -9.60E-06
   751 OT SD       0.15E+00    5.2     0.00000217      -575.2505602153 -2.75E-06
   752 OT DIIS     0.15E+00    5.1     0.00000217      -575.2505602906 -7.53E-08
   753 OT SD       0.15E+00    5.1     0.00000221      -575.2505859559 -2.57E-05
   754 OT SD       0.15E+00    5.1     0.00000220      -575.2505860339 -7.80E-08
   755 OT DIIS     0.15E+00    5.1     0.00000219      -575.2505861113 -7.74E-08
   756 OT DIIS     0.15E+00    5.2     0.00000216      -575.2505918412 -5.73E-06
   757 OT DIIS     0.15E+00    5.1     0.00000218      -575.2505927167 -8.76E-07
   758 OT SD       0.15E+00    5.1     0.00000217      -575.2505978931 -5.18E-06
   759 OT DIIS     0.15E+00    5.2     0.00000216      -575.2505979680 -7.49E-08
   760 OT SD       0.15E+00    5.2     0.00000247      -575.2506352432 -3.73E-05
   761 OT SD       0.15E+00    5.1     0.00000241      -575.2506353394 -9.63E-08
   762 OT DIIS     0.15E+00    5.2     0.00000237      -575.2506354315 -9.21E-08
   763 OT SD       0.15E+00    5.2     0.00000218      -575.2506471665 -1.17E-05
   764 OT SD       0.15E+00    5.1     0.00000217      -575.2506472420 -7.55E-08
   765 OT DIIS     0.15E+00    5.2     0.00000216      -575.2506473171 -7.51E-08
   766 OT DIIS     0.15E+00    5.1     0.00000215      -575.2506605079 -1.32E-05
   767 OT SD       0.15E+00    5.1     0.00000228      -575.2506940437 -3.35E-05
   768 OT DIIS     0.15E+00    5.1     0.00000225      -575.2506941262 -8.25E-08
   769 OT SD       0.15E+00    5.2     0.00000250      -575.2507204639 -2.63E-05
   770 OT SD       0.15E+00    5.2     0.00000243      -575.2507205621 -9.82E-08
   771 OT SD       0.15E+00    5.2     0.00000238      -575.2507206555 -9.34E-08
   772 OT DIIS     0.15E+00    5.1     0.00000233      -575.2507207450 -8.95E-08
   773 OT DIIS     0.15E+00    5.2     0.00000329      -575.2507370897 -1.63E-05
   774 OT SD       0.15E+00    5.1     0.00000257      -575.2507594302 -2.23E-05
   775 OT DIIS     0.15E+00    5.1     0.00000248      -575.2507595336 -1.03E-07
   776 OT SD       0.15E+00    5.1     0.00000217      -575.2507780600 -1.85E-05
   777 OT DIIS     0.15E+00    5.1     0.00000215      -575.2507781348 -7.48E-08
   778 OT DIIS     0.15E+00    5.1     0.00000203      -575.2507901491 -1.20E-05
   779 OT DIIS     0.15E+00    5.1     0.00000205      -575.2508017524 -1.16E-05
   780 OT DIIS     0.15E+00    5.1     0.00000204      -575.2508094247 -7.67E-06
   781 OT SD       0.15E+00    5.2     0.00000223      -575.2508175595 -8.13E-06
   782 OT DIIS     0.15E+00    5.1     0.00000219      -575.2508176383 -7.89E-08
   783 OT DIIS     0.15E+00    5.1     0.00000218      -575.2508262883 -8.65E-06
   784 OT DIIS     0.15E+00    5.1     0.00000199      -575.2508266431 -3.55E-07
   785 OT DIIS     0.15E+00    5.2     0.00000199      -575.2508277540 -1.11E-06
   786 OT DIIS     0.15E+00    5.2     0.00000197      -575.2508443898 -1.66E-05
   787 OT SD       0.15E+00    5.1     0.00000259      -575.2508530153 -8.63E-06
   788 OT DIIS     0.15E+00    5.1     0.00000248      -575.2508531205 -1.05E-07
   789 OT SD       0.15E+00    5.1     0.00000200      -575.2508623998 -9.28E-06
   790 OT SD       0.15E+00    5.1     0.00000198      -575.2508624633 -6.35E-08
   791 OT DIIS     0.15E+00    5.2     0.00000196      -575.2508625257 -6.24E-08
   792 OT SD       0.15E+00    5.2     0.00000190      -575.2508748753 -1.23E-05
   793 OT DIIS     0.15E+00    5.2     0.00000190      -575.2508749332 -5.78E-08
   794 OT SD       0.15E+00    5.1     0.00000188      -575.2508898925 -1.50E-05
   795 OT DIIS     0.15E+00    5.2     0.00000187      -575.2508899489 -5.64E-08
   796 OT DIIS     0.15E+00    5.2     0.00000184      -575.2509003356 -1.04E-05
   797 OT DIIS     0.15E+00    5.1     0.00000184      -575.2509010037 -6.68E-07
   798 OT DIIS     0.15E+00    5.2     0.00000182      -575.2509072915 -6.29E-06
   799 OT DIIS     0.15E+00    5.2     0.00000200      -575.2509141039 -6.81E-06
   800 OT DIIS     0.15E+00    5.1     0.00000191      -575.2509193215 -5.22E-06
   801 OT SD       0.15E+00    5.1     0.00000183      -575.2509350551 -1.57E-05
   802 OT DIIS     0.15E+00    5.1     0.00000181      -575.2509351082 -5.31E-08
   803 OT SD       0.15E+00    5.1     0.00000178      -575.2509507362 -1.56E-05
   804 OT DIIS     0.15E+00    5.1     0.00000176      -575.2509507865 -5.02E-08
   805 OT DIIS     0.15E+00    5.2     0.00000171      -575.2509596770 -8.89E-06
   806 OT SD       0.15E+00    5.2     0.00000168      -575.2509634739 -3.80E-06
   807 OT DIIS     0.15E+00    5.1     0.00000168      -575.2509635191 -4.53E-08
   808 OT SD       0.15E+00    5.1     0.00000165      -575.2509765346 -1.30E-05
   809 OT DIIS     0.15E+00    5.1     0.00000165      -575.2509765782 -4.36E-08
   810 OT DIIS     0.15E+00    5.1     0.00000163      -575.2509862126 -9.63E-06
   811 OT SD       0.15E+00    5.1     0.00000171      -575.2509932566 -7.04E-06
   812 OT DIIS     0.15E+00    5.2     0.00000169      -575.2509933030 -4.64E-08
   813 OT DIIS     0.15E+00    5.1     0.00000158      -575.2509951906 -1.89E-06
   814 OT DIIS     0.15E+00    5.1     0.00000157      -575.2509974786 -2.29E-06
   815 OT SD       0.15E+00    5.2     0.00000155      -575.2510093718 -1.19E-05
   816 OT DIIS     0.15E+00    5.2     0.00000154      -575.2510094100 -3.82E-08
   817 OT SD       0.15E+00    5.2     0.00000150      -575.2510214608 -1.21E-05
   818 OT DIIS     0.15E+00    5.1     0.00000149      -575.2510214966 -3.59E-08
   819 OT SD       0.15E+00    5.2     0.00000160      -575.2510364093 -1.49E-05
   820 OT DIIS     0.15E+00    5.1     0.00000156      -575.2510364496 -4.03E-08
   821 OT SD       0.15E+00    5.2     0.00000167      -575.2510430754 -6.63E-06
   822 OT SD       0.15E+00    5.2     0.00000163      -575.2510431194 -4.39E-08
   823 OT DIIS     0.15E+00    5.1     0.00000159      -575.2510431612 -4.18E-08
   824 OT DIIS     0.15E+00    5.1     0.00000142      -575.2510496031 -6.44E-06
   825 OT DIIS     0.15E+00    5.1     0.00000137      -575.2510526608 -3.06E-06
   826 OT DIIS     0.15E+00    5.1     0.00000136      -575.2510564472 -3.79E-06
   827 OT DIIS     0.15E+00    5.1     0.00000135      -575.2510589580 -2.51E-06
   828 OT DIIS     0.15E+00    5.1     0.00000134      -575.2510595940 -6.36E-07
   829 OT DIIS     0.15E+00    5.2     0.00000132      -575.2510678576 -8.26E-06
   830 OT DIIS     0.15E+00    5.2     0.00000133      -575.2510697375 -1.88E-06
   831 OT SD       0.15E+00    5.2     0.00000129      -575.2510716065 -1.87E-06
   832 OT DIIS     0.15E+00    5.1     0.00000129      -575.2510716331 -2.66E-08
   833 OT DIIS     0.15E+00    5.2     0.00000147      -575.2510722380 -6.05E-07
   834 OT SD       0.15E+00    5.1     0.00000144      -575.2510754567 -3.22E-06
   835 OT DIIS     0.15E+00    5.1     0.00000140      -575.2510754895 -3.28E-08
   836 OT DIIS     0.15E+00    5.2     0.00000125      -575.2510762597 -7.70E-07
   837 OT DIIS     0.15E+00    5.1     0.00000123      -575.2510784331 -2.17E-06
   838 OT DIIS     0.15E+00    5.2     0.00000122      -575.2510793268 -8.94E-07
   839 OT DIIS     0.15E+00    5.1     0.00000121      -575.2510824506 -3.12E-06
   840 OT DIIS     0.15E+00    5.1     0.00000121      -575.2510827131 -2.63E-07
   841 OT DIIS     0.15E+00    5.2     0.00000120      -575.2510852771 -2.56E-06
   842 OT DIIS     0.15E+00    5.2     0.00000118      -575.2510881695 -2.89E-06
   843 OT DIIS     0.15E+00    5.1     0.00000119      -575.2510897331 -1.56E-06
   844 OT DIIS     0.15E+00    5.1     0.00000118      -575.2510903988 -6.66E-07
   845 OT DIIS     0.15E+00    5.2     0.00000117      -575.2510908837 -4.85E-07
   846 OT DIIS     0.15E+00    5.1     0.00000118      -575.2510971568 -6.27E-06
   847 OT DIIS     0.15E+00    5.2     0.00000115      -575.2510988265 -1.67E-06
   848 OT SD       0.15E+00    5.2     0.00000121      -575.2511037577 -4.93E-06
   849 OT DIIS     0.15E+00    5.2     0.00000119      -575.2511037810 -2.32E-08
   850 OT DIIS     0.15E+00    5.2     0.00000120      -575.2511052633 -1.48E-06
   851 OT DIIS     0.15E+00    5.2     0.00000116      -575.2511063375 -1.07E-06
   852 OT SD       0.15E+00    5.2     0.00000114      -575.2511124519 -6.11E-06
   853 OT DIIS     0.15E+00    5.2     0.00000113      -575.2511124724 -2.06E-08
   854 OT DIIS     0.15E+00    5.2     0.00000109      -575.2511169186 -4.45E-06
   855 OT DIIS     0.15E+00    5.2     0.00000109      -575.2511173463 -4.28E-07
   856 OT DIIS     0.15E+00    5.2     0.00000122      -575.2511219827 -4.64E-06
   857 OT SD       0.15E+00    5.2     0.00000126      -575.2511230101 -1.03E-06
[...]
 flops    64 x    34 x    21            635905536       0.0%    100.0%      0.0%
 flops    64 x    32 x     2            641515520       0.0%    100.0%      0.0%
 flops    64 x    35 x    21            654608640       0.0%    100.0%      0.0%
 flops    34 x    32 x    21            794881920       0.0%    100.0%      0.0%
 flops    35 x    32 x    21            818260800       0.0%    100.0%      0.0%
 flops    64 x    32 x     3            962273280       0.0%    100.0%      0.0%
 flops    64 x    34 x    22           1332373504       0.0%    100.0%      0.0%
 flops    64 x    35 x    22           1371560960       0.0%    100.0%      0.0%
 flops    32 x    34 x    23           1392935936       0.0%    100.0%      0.0%
 flops    32 x    35 x    23           1433904640       0.0%    100.0%      0.0%
 flops    34 x    34 x    23           1479994432       0.0%    100.0%      0.0%
 flops    68 x    34 x    23           1482121472       0.0%    100.0%      0.0%
 flops    32 x    32 x    21           1496248320       0.0%    100.0%      0.0%
 flops    69 x    34 x    23           1503917376       0.0%    100.0%      0.0%
 flops    68 x    35 x    23           1525713280       0.0%    100.0%      0.0%
 flops    69 x    35 x    23           1548150240       0.0%    100.0%      0.0%
 flops    35 x    35 x    23           1568333200       0.0%    100.0%      0.0%
 flops    68 x    32 x    21           1592048640       0.0%    100.0%      0.0%
 flops    69 x    32 x    21           1615461120       0.0%    100.0%      0.0%
 flops    34 x    32 x    22           1665466880       0.0%    100.0%      0.0%
 flops     1 x    32 x     1           1675680000       0.0%    100.0%      0.0%
 flops    35 x    32 x    22           1714451200       0.0%    100.0%      0.0%
 flops     1 x     4 x    32           2397511680       0.0%    100.0%      0.0%
 flops     4 x     1 x    32           2429657088       0.0%    100.0%      0.0%
 flops    32 x    32 x    22           3134996480       0.0%    100.0%      0.0%
 flops    32 x    34 x    32           3271729152       0.0%    100.0%      0.0%
 flops    68 x    32 x    22           3335720960       0.0%    100.0%      0.0%
 flops    32 x    35 x    32           3367956480       0.0%    100.0%      0.0%
 flops    69 x    32 x    22           3384775680       0.0%    100.0%      0.0%
 flops    34 x    34 x    32           3476212224       0.0%    100.0%      0.0%
 flops    35 x    35 x    32           3683702400       0.0%    100.0%      0.0%
 flops    64 x    34 x    23           5571743744       0.0%    100.0%      0.0%
 flops    64 x    35 x    23           5735618560       0.0%    100.0%      0.0%
 flops    64 x    32 x    21           5984993280       0.0%    100.0%      0.0%
 flops    34 x    32 x    23           6964679680       0.0%    100.0%      0.0%
 flops    35 x    32 x    23           7169523200       0.0%    100.0%      0.0%
 flops    68 x    34 x    32           7720378368       0.0%    100.0%      0.0%
 flops    69 x    34 x    32           7833913344       0.0%    100.0%      0.0%
 flops    68 x    35 x    32           7947448320       0.0%    100.0%      0.0%
 flops    69 x    35 x    32           8064322560       0.0%    100.0%      0.0%
 flops     1 x    32 x     4           9662641152       0.0%    100.0%      0.0%
 flops     4 x    32 x     1           9662641152       0.0%    100.0%      0.0%
 flops    64 x    32 x    22          12539985920       0.0%    100.0%      0.0%
 flops    64 x    34 x    32          13086916608       0.0%    100.0%      0.0%
 flops    32 x    32 x    23          13109985280       0.0%    100.0%      0.0%
 flops    64 x    35 x    32          13471825920       0.0%    100.0%      0.0%
 flops    68 x    32 x    23          13949378560       0.0%    100.0%      0.0%
 flops    69 x    32 x    23          14154516480       0.0%    100.0%      0.0%
 flops     4 x     4 x    32          14444003328       0.0%    100.0%      0.0%
 flops    34 x    32 x    32          16358645760       0.0%    100.0%      0.0%
 flops    35 x    32 x    32          16839782400       0.0%    100.0%      0.0%
 flops    32 x    32 x    32          30792744960       0.0%    100.0%      0.0%
 flops    64 x    32 x    23          52439941120       0.0%    100.0%      0.0%
 flops     4 x    32 x     4          56581681152       0.0%    100.0%      0.0%
 flops    68 x    32 x    32          72662384640       0.0%    100.0%      0.0%
 flops    69 x    32 x    32          73730949120       0.0%    100.0%      0.0%
 flops    64 x    32 x    32         123170979840       0.0%    100.0%      0.0%
 flops inhomo. stacks                 17803051250     100.0%      0.0%      0.0%
 flops total                       704.445130E+09       2.5%     97.5%      0.0%
 flops max/rank                     36.534325E+09       2.7%     97.3%      0.0%
 matmuls inhomo. stacks                    208800     100.0%      0.0%      0.0%
 matmuls total                          236022716       0.1%     99.9%      0.0%
 number of processed stacks              12461728       1.7%     98.3%      0.0%
 average stack size                                     1.0      19.2       0.0
 marketing flops                   758.968156E+09
 -------------------------------------------------------------------------------
 # multiplications                          38297
 max memory usage/rank             996.175872E+06
 # max total images/rank                        3
 # max 3D layers                                1
 # MPI messages exchanged                17463432
 MPI messages size (bytes):
  total size                       114.045633E+09
  min size                           0.000000E+00
  max size                          17.664000E+03
  average size                       6.530540E+03
 MPI breakdown and total messages size (bytes):
             size <=      128             4960888                      312
       128 < size <=     8192             7174613              43789292944
      8192 < size <=    32768             5327931              70254517936
     32768 < size <=   131072                   0                        0
    131072 < size <=  4194304                   0                        0
   4194304 < size <= 16777216                   0                        0
  16777216 < size                               0                        0
 -------------------------------------------------------------------------------

 *** WARNING in dbcsr_mm.F:294 :: Using a non-square number of MPI ranks ***
 *** might lead to poor performance. Used ranks: 24 Suggested: 25 49     ***

 -------------------------------------------------------------------------------
 -                                                                             -
 -                      DBCSR MESSAGE PASSING PERFORMANCE                      -
 -                                                                             -
 -------------------------------------------------------------------------------
 ROUTINE             CALLS      AVE VOLUME [Bytes]
 MP_Bcast              115                     12.
 MP_Allreduce       207296                      8.
 MP_Alltoall        123236                   4996.
 MP_ISend          1740726                   3679.
 MP_IRecv          1719844                   3322.
 -------------------------------------------------------------------------------

 -------------------------------------------------------------------------------
 -                                                                             -
 -                                GRID STATISTICS                              -
 -                                                                             -
 -------------------------------------------------------------------------------
 LP    KERNEL             BACKEND                              COUNT     PERCENT
 1     collocate ortho    REF                               40694862      23.57%
 1     integrate ortho    REF                               40668700      23.55%
 2     integrate ortho    REF                               27737082      16.07%
 2     collocate ortho    REF                               27722188      16.06%
 0     collocate ortho    REF                               17907760      10.37%
 0     integrate ortho    REF                               17887200      10.36%
 3     integrate ortho    REF                                  31828       0.02%
 0     collocate general  REF                                   2400       0.00%
 1     integrate general  REF                                   2400       0.00%
 -------------------------------------------------------------------------------

 MEMORY| Estimated peak process memory [MiB]                                 951

 -------------------------------------------------------------------------------
 -                                                                             -
 -                         MESSAGE PASSING PERFORMANCE                         -
 -                                                                             -
 -------------------------------------------------------------------------------

 ROUTINE             CALLS      AVE VOLUME [Bytes]
 MP_Group                4
 MP_Bcast           114142                   9470.
 MP_Allreduce       291883                    209.
 MP_Sync              3480
 MP_Alltoall         32244               51332947.
 MP_SendRecv            92                   1864.
 MP_ISendRecv       160264                 279360.
 MP_Wait            376334
 MP_comm_split        1738
 MP_ISend           195160                 856802.
 MP_IRecv           195160                 856802.
 MP_Recv               528                  70144.
 -------------------------------------------------------------------------------


 -------------------------------------------------------------------------------
 -                                                                             -
 -                           R E F E R E N C E S                               -
 -                                                                             -
 -------------------------------------------------------------------------------
 
 CP2K version 8.2, the CP2K developers group (2021).
 CP2K is freely available from https://www.cp2k.org/ .

 Kuehne,Thomas D.; Iannuzzi,Marcella; Del Ben,Mauro;
 Rybkin,Vladimir V.; Seewald,Patrick; Stein,Frederick; Laino,Teodoro;
 Khaliullin,Rustam Z.; Schuett,Ole; Schiffmann,Florian; Golze,Dorothea;
 Wilhelm,Jan; Chulkov,Sergey; Bani-Hashemian,Mohammad Hossein;
 Weber,Valery; Borstnik,Urban; Taillefumier,Mathieu;
 Jakobovits,Alice Shoshana; Lazzaro,Alfio; Pabst,Hans; Mueller,Tiziano;
 Schade,Robert; Guidon,Manuel; Andermatt,Samuel; Holmberg,Nico;
 Schenter,Gregory K.; Hehn,Anna; Bussy,Augustin; Belleflamme,Fabian;
 Tabacchi,Gloria; Gloess,Andreas; Lass,Michael; Bethune,Iain;
 Mundy,Christopher J.; Plessl,Christian; Watkins,Matt;
 VandeVondele,Joost; Krack,Matthias; Hutter,Juerg. 
 The Journal of Chemical Physics, 152 (19), (2020). 
 CP2K: An electronic structure and molecular dynamics software package -
 Quickstep: Efficient and accurate electronic structure calculations.
 https://doi.org/10.1063/5.0007045

 Goerigk, Lars; Hansen, Andreas; Bauer, Christoph; Ehrlich, Stephan;
 Najibi, Asim; Grimme, Stefan. , 19 (48), (2017). 
 A look at the density functional theory zoo with the advanced GMTKN55 database
 for general main group thermochemistry, kinetics and noncovalent interactions.
 https://doi.org/10.1039/C7CP04913G

 Schuett, Ole; Messmer, Peter; Hutter, Juerg; VandeVondele, Joost. 
 Electronic Structure Calculations on Graphics Processing Units, John
 Wiley & Sons, Ltd, 173-190 (2016). 
 GPU-Accelerated Sparse Matrix-Matrix Multiplication for
 Linear Scaling Density Functional Theory.
 https://doi.org/10.1002/9781118670712.ch8

 Heinecke, A; Henry, G; Hutchinson, M; Pabst, H. 
 Proceedings of Intl. Supercomputing Conference, 981-991 (2016). 
 LIBXSMM: Accelerating Small Matrix Multiplications
 by Runtime Code Generation.
 https://doi.org/10.1109/SC.2016.83

 Borstnik, U; VandeVondele, J; Weber, V; Hutter, J. 
 PARALLEL COMPUTING, 40 (5-6), 47-58 (2014). 
 Sparse matrix multiplication: The distributed block-compressed sparse
 row library.
 https://doi.org/10.1016/j.parco.2014.03.012

 Hutter, J; Iannuzzi, M; Schiffmann, F; VandeVondele, J. 
 WIREs Comput Mol Sci., 4 (1), 15-25 (2014). 
 CP2K: atomistic simulations of condensed matter systems.
 https://doi.org/10.1002/wcms.1159

 Grimme, S; Ehrlich, S; Goerigk, L. 
 JOURNAL OF COMPUTATIONAL CHEMISTRY, 32, 1456 (2011). 
 Effect of the damping function in dispersion corrected density functional theory.
 https://doi.org/10.1002/jcc.21759

 Grimme, S; Antony, J; Ehrlich, S; Krieg, H. 
 JOURNAL OF CHEMICAL PHYSICS, 132 (15), 154104 (2010). 
 A consistent and accurate ab initio parametrization of density
 functional dispersion correction (DFT-D) for the 94 elements H-Pu.
 https://doi.org/10.1063/1.3382344

 VandeVondele, J; Hutter, J. 
 JOURNAL OF CHEMICAL PHYSICS, 127 (11), 114105 (2007). 
 Gaussian basis sets for accurate calculations on molecular systems in
 gas and condensed phases.
 https://doi.org/10.1063/1.2770708

 Krack, M. 
 THEORETICAL CHEMISTRY ACCOUNTS, 114 (1-3), 145-152 (2005). 
 Pseudopotentials for H to Kr optimized for gradient-corrected
 exchange-correlation functionals.
 https://doi.org/10.1007/s00214-005-0655-y

 VandeVondele, J; Krack, M; Mohamed, F; Parrinello, M; Chassaing, T;
 Hutter, J. COMPUTER PHYSICS COMMUNICATIONS, 167 (2), 103-128 (2005). 
 QUICKSTEP: Fast and accurate density functional calculations using a
 mixed Gaussian and plane waves approach.
 https://doi.org/10.1016/j.cpc.2004.12.014

 Frigo, M; Johnson, SG. 
 PROCEEDINGS OF THE IEEE, 93 (2), 216-231 (2005). 
 The design and implementation of FFTW3.
 https://doi.org/10.1109/JPROC.2004.840301

 VandeVondele, J; Hutter, J. 
 JOURNAL OF CHEMICAL PHYSICS, 118 (10), 4365-4369 (2003). 
 An efficient orbital transformation method for electronic structure
 calculations.
 https://doi.org/10.1063/1.1543154

 Hartwigsen, C; Goedecker, S; Hutter, J. 
 PHYSICAL REVIEW B, 58 (7), 3641-3662 (1998). 
 Relativistic separable dual-space Gaussian pseudopotentials from H to Rn.
 https://doi.org/10.1103/PhysRevB.58.3641

 Lippert, G; Hutter, J; Parrinello, M. 
 MOLECULAR PHYSICS, 92 (3), 477-487 (1997). 
 A hybrid Gaussian and plane wave density functional scheme.
 https://doi.org/10.1080/002689797170220

 Perdew, JP; Burke, K; Ernzerhof, M. 
 PHYSICAL REVIEW LETTERS, 77 (18), 3865-3868 (1996). 
 Generalized gradient approximation made simple.
 https://doi.org/10.1103/PhysRevLett.77.3865

 Goedecker, S; Teter, M; Hutter, J. 
 PHYSICAL REVIEW B, 54 (3), 1703-1710 (1996). 
 Separable dual-space Gaussian pseudopotentials.
 https://doi.org/10.1103/PhysRevB.54.1703


 -------------------------------------------------------------------------------
 -                                                                             -
 -                                T I M I N G                                  -
 -                                                                             -
 -------------------------------------------------------------------------------
 SUBROUTINE                       CALLS  ASD         SELF TIME        TOTAL TIME
                                MAXIMUM       AVERAGE  MAXIMUM  AVERAGE  MAXIMUM
 CP2K                                 1  1.0    0.137    0.205 4841.988 4841.994
 qs_forces                            1  2.0    0.000    0.000 4841.078 4841.085
 qs_energies                          1  3.0    0.000    0.000 4836.849 4836.856
 scf_env_do_scf                       1  4.0    0.001    0.002 4835.376 4835.383
 scf_env_do_scf_inner_loop          870  5.0    0.037    0.577 4831.268 4831.275
 rebuild_ks_matrix                  871  7.0    0.002    0.003 3573.624 3573.817
 qs_ks_build_kohn_sham_matrix       871  8.0    0.119    0.149 3573.621 3573.815
 qs_ks_update_qs_env                871  6.0    0.008    0.010 3571.019 3571.286
 pw_transfer                      30486 10.7    1.979    2.639 3159.350 3448.700
 fft_wrap_pw1pw2                  28744 11.8    0.309    0.458 3145.785 3441.693
 fft_wrap_pw1pw2_140              18292 12.9  135.536  186.373 2958.578 3237.894
 fft3d_ps                         28744 13.8  902.474 1110.892 2228.907 2714.385
 qs_vxc_create                      871  9.0    0.017    0.027 2639.466 2652.475
 xc_vxc_pw_create                   871 10.0   67.048   72.168 2639.449 2652.464
 mp_alltoall_z22v                 28744 15.8 1041.761 1760.125 1041.761 1760.125
 xc_rho_set_and_dset_create         871 11.0   17.425   21.990 1185.120 1418.134
 yz_to_x                          13937 14.1  138.773  176.740  766.254 1213.643
 qs_rho_update_rho                  871  6.0    0.006    0.008  941.990  942.113
 calculate_rho_elec                1742  7.0   11.214   11.919  941.983  942.108
 density_rs2pw                     1742  8.0    0.083    0.107  800.932  834.922
 x_to_yz                          14807 15.3  145.395  219.630  559.675  735.195
 sum_up_and_integrate               871  9.0    6.342    9.011  724.675  724.764
 integrate_v_rspace                1742 10.0    0.054    0.080  718.328  721.550
 potential_pw2rs                   1742 11.0    0.615    0.826  594.815  598.962
 pw_gather_p                      13937 13.1  438.214  569.097  438.214  569.097
 xc_functional_eval                 871 12.0    0.009    0.015  284.205  520.786
 pbe_lsd_eval                       871 13.0  284.196  520.779  284.196  520.779
 rs_pw_transfer                   13938 10.5    0.196    0.333  445.018  476.824
 pw_scatter_p                     14807 14.3  338.764  359.672  338.764  359.672
 qs_scf_new_mos                     870  6.0    0.004    0.006  321.170  321.465
 qs_scf_loop_do_ot                  870  7.0    0.004    0.006  321.165  321.460
 ot_scf_mini                        870  8.0    0.014    0.016  311.351  311.595
 mp_waitany                      195160 12.5  178.811  258.070  178.811  258.070
 dbcsr_multiply_generic           38297 11.1    0.918    0.946  201.203  203.669
 grid_collocate_task_list          1742  8.0  100.344  196.120  100.344  196.120
 fft_wrap_pw1pw2_50                3484 12.5    3.255    4.625  148.294  193.979
 mp_waitall_1                   2325806 15.1  122.980  161.732  122.980  161.732
 rs_pw_transfer_RS2PW_140          1743 10.0   33.905   52.111  129.853  159.069
 pw_derive                        10452 11.5   97.881  149.127   97.881  149.127
 ot_mini                            870  9.0    0.005    0.006  145.434  145.830
 qs_ot_get_p                       1742  9.0    0.005    0.006  139.602  139.849
 rs_pw_transfer_PW2RS_140          1743 13.0   54.077   86.706  117.598  137.998
 qs_ot_get_derivative              1740 10.0    0.008    0.008  128.233  128.548
 mp_sum_d                         86481 12.4   73.411  127.645   73.411  127.645
 grid_integrate_task_list          1742 11.0   63.585  119.535   63.585  119.535
 mp_alltoall_d11v                 25056 13.6   77.148  102.660   77.148  102.660
 qs_ot_get_derivative_diag         1736 11.0    0.023    0.024  100.741  101.080
 -------------------------------------------------------------------------------

 The number of warnings for this run is : 1
 
 -------------------------------------------------------------------------------
  **** **** ******  **  PROGRAM ENDED AT                 2023-12-04 03:27:00.510
 ***** ** ***  *** **   PROGRAM RAN ON               milan17.int.triton.aalto.fi
 **    ****   ******    PROGRAM RAN BY                                   huangj4
 ***** **    ** ** **   PROGRAM PROCESS ID                                 88265
  **** **  *******  **  PROGRAM STOPPED IN /scratch/phys/sin/Jie/Github/cp2kTest
                                           /ab_energy/Cluster_222
