 DBCSR| CPU Multiplication driver                                           XSMM
 DBCSR| Multrec recursion limit                                              512
 DBCSR| Multiplication stack size                                           1000
 DBCSR| Maximum elements for images                                    UNLIMITED
 DBCSR| Multiplicative factor virtual images                                   1
 DBCSR| Use multiplication densification                                       T
 DBCSR| Multiplication size stacks                                             3
 DBCSR| Use memory pool for CPU allocation                                     F
 DBCSR| Number of 3D layers                                               SINGLE
 DBCSR| Use MPI memory allocation                                              F
 DBCSR| Use RMA algorithm                                                      F
 DBCSR| Use Communication thread                                               T
 DBCSR| Communication thread load                                             87
 DBCSR| MPI: My node id                                                        0
 DBCSR| MPI: Number of nodes                                                  24
 DBCSR| OMP: Current number of threads                                         1
 DBCSR| OMP: Max number of threads                                             1
 DBCSR| Split modifier for TAS multiplication algorithm                  1.0E+00


  **** **** ******  **  PROGRAM STARTED AT               2023-12-04 03:27:01.012
 ***** ** ***  *** **   PROGRAM STARTED ON           milan17.int.triton.aalto.fi
 **    ****   ******    PROGRAM STARTED BY                               huangj4
 ***** **    ** ** **   PROGRAM PROCESS ID                                101176
  **** **  *******  **  PROGRAM STARTED IN /scratch/phys/sin/Jie/Github/cp2kTest
                                           /ab_energy/Cluster_222

 CP2K| version string:                                          CP2K version 8.2
 CP2K| source code revision number:                                  git:310b7ab
 CP2K| cp2kflags: omp libint fftw3 libxc parallel mpi3 scalapack xsmm           
 CP2K| is freely available from                            https://www.cp2k.org/
 CP2K| Program compiled at                          Thu May 12 10:08:29 UTC 2022
 CP2K| Program compiled on                                          80d7174ae3e8
 CP2K| Program compiled for                            linux-centos7-haswell-gcc
 CP2K| Data directory path    /share/apps/spack/envs/fgci-centos7-haswell/softwa
 CP2K| Input file name                                       calEnergy_Water.inp

 GLOBAL| Force Environment number                                              1
 GLOBAL| Basis set file name                                        BASIS_MOLOPT
 GLOBAL| Potential file name                                      GTH_POTENTIALS
 GLOBAL| MM Potential file name                                     MM_POTENTIAL
 GLOBAL| Coordinate file name                                ./relaxed_Water.xyz
 GLOBAL| Method name                                                        CP2K
 GLOBAL| Project name                                                  calEnergy
 GLOBAL| Run type                                                   ENERGY_FORCE
 GLOBAL| FFT library                                                       FFTW3
 GLOBAL| Diagonalization library                                       ScaLAPACK
 GLOBAL| Orthonormality check for eigenvectors                          DISABLED
 GLOBAL| Matrix multiplication library                                    SCALAP
 GLOBAL| All-to-all communication in single precision                          F
 GLOBAL| FFTs using library dependent lengths                                  F
 GLOBAL| Grid backend                                                       AUTO
 GLOBAL| Global print level                                                  LOW
 GLOBAL| MPI I/O enabled                                                       T
 GLOBAL| Total number of message passing processes                            24
 GLOBAL| Number of threads for this process                                    1
 GLOBAL| This output is from process                                           0
 GLOBAL| CPU model name                          AMD EPYC 7713 64-Core Processor
 GLOBAL| CPUID                                                              1002

 MEMORY| system memory details [Kb]
 MEMORY|                        rank 0           min           max       average
 MEMORY| MemTotal            528041892     528041892     528041892     528041892
 MEMORY| MemFree             490320580     490320580     490320580     490320580
 MEMORY| Buffers                     0             0             0             0
 MEMORY| Cached               10007348      10007348      10007348      10007348
 MEMORY| Slab                  4912852       4912852       4912852       4912852
 MEMORY| SReclaimable          1226500       1226500       1226500       1226500
 MEMORY| MemLikelyFree       501554428     501554428     501554428     501554428


 GENERATE|  Preliminary Number of Bonds generated:                             0
 GENERATE|  Achieved consistency in connectivity generation.

 *******************************************************************************
 *******************************************************************************
 **                                                                           **
 **     #####                         ##              ##                      **
 **    ##   ##            ##          ##              ##                      **
 **   ##     ##                       ##            ######                    **
 **   ##     ##  ##   ##  ##   #####  ##  ##   ####   ##    #####    #####    **
 **   ##     ##  ##   ##  ##  ##      ## ##   ##      ##   ##   ##  ##   ##   **
 **   ##  ## ##  ##   ##  ##  ##      ####     ###    ##   ######   ######    **
 **    ##  ###   ##   ##  ##  ##      ## ##      ##   ##   ##       ##        **
 **     #######   #####   ##   #####  ##  ##  ####    ##    #####   ##        **
 **           ##                                                    ##        **
 **                                                                           **
 **                                                ... make the atoms dance   **
 **                                                                           **
 **            Copyright (C) by CP2K developers group (2000-2021)             **
 **                      J. Chem. Phys. 152, 194103 (2020)                    **
 **                                                                           **
 *******************************************************************************


 TOTAL NUMBERS AND MAXIMUM NUMBERS

  Total number of            - Atomic kinds:                                   2
                             - Atoms:                                        468
                             - Shell sets:                                   468
                             - Shells:                                       624
                             - Primitive Cartesian functions:               3276
                             - Cartesian basis functions:                    936
                             - Spherical basis functions:                    936

  Maximum angular momentum of- Orbital basis functions:                        1
                             - Local part of the GTH pseudopotential:          2
                             - Non-local part of the GTH pseudopotential:      0


 SCF PARAMETERS         Density guess:                                    ATOMIC
                        --------------------------------------------------------
                        max_scf:                                            1000
                        max_scf_history:                                       0
                        max_diis:                                              4
                        --------------------------------------------------------
                        eps_scf:                                        1.00E-06
                        eps_scf_history:                                0.00E+00
                        eps_diis:                                       1.00E-01
                        eps_eigval:                                     1.00E-05
                        --------------------------------------------------------
                        level_shift [a.u.]:                                 0.00
                        --------------------------------------------------------
                        No outer SCF

 Spin 1

 Number of electrons:                                                        624
 Number of occupied orbitals:                                                624
 Number of molecular orbitals:                                               624

 Spin 2

 Number of electrons:                                                        624
 Number of occupied orbitals:                                                624
 Number of molecular orbitals:                                               624

 Number of orbital functions:                                                936
 Number of independent orbital functions:                                    936

 Extrapolation method: initial_guess


 SCF WAVEFUNCTION OPTIMIZATION

  ----------------------------------- OT ---------------------------------------
  Minimizer      : DIIS                : direct inversion
                                         in the iterative subspace
                                         using   7 DIIS vectors
                                         safer DIIS on
  Preconditioner : FULL_KINETIC        : inversion of T + eS
  Precond_solver : DEFAULT
  stepsize       :    0.15000000                  energy_gap     :    0.20000000
  eps_taylor     :   0.10000E-15                  max_taylor     :             4
  ----------------------------------- OT ---------------------------------------

  Step     Update method      Time    Convergence         Total energy    Change
  ------------------------------------------------------------------------------
     1 OT DIIS     0.15E+00    4.9     0.00793676     -2573.1783423210 -2.57E+03
     2 OT DIIS     0.15E+00    6.4     0.00727052     -2583.7192042382 -1.05E+01
     3 OT DIIS     0.15E+00    6.4     0.00523826     -2617.8691950937 -3.41E+01
     4 OT DIIS     0.15E+00    6.3     0.00413659     -2637.4949870107 -1.96E+01
     5 OT DIIS     0.15E+00    6.4     0.00296700     -2655.0807160061 -1.76E+01
     6 OT DIIS     0.15E+00    6.3     0.00233813     -2663.1782508270 -8.10E+00
     7 OT SD       0.15E+00    6.3     0.00241493     -2663.9509153778 -7.73E-01
     8 OT DIIS     0.15E+00    6.3     0.00232285     -2664.9531017187 -1.00E+00
     9 OT SD       0.15E+00    6.4     0.00207596     -2668.1677076728 -3.21E+00
    10 OT DIIS     0.15E+00    6.4     0.00198776     -2668.9067187142 -7.39E-01
    11 OT DIIS     0.15E+00    6.4     0.00200253     -2669.8267578262 -9.20E-01
    12 OT DIIS     0.15E+00    6.4     0.00159069     -2670.2805824806 -4.54E-01
    13 OT DIIS     0.15E+00    6.4     0.00145738     -2671.2775494568 -9.97E-01
    14 OT DIIS     0.15E+00    6.3     0.00130028     -2672.1460103992 -8.68E-01
    15 OT SD       0.15E+00    6.3     0.00109417     -2672.9733963303 -8.27E-01
    16 OT DIIS     0.15E+00    6.3     0.00105480     -2673.1792997203 -2.06E-01
    17 OT DIIS     0.15E+00    6.3     0.00078751     -2674.5211840859 -1.34E+00
    18 OT DIIS     0.15E+00    6.3     0.00073486     -2674.7264571329 -2.05E-01
    19 OT DIIS     0.15E+00    6.4     0.00058753     -2675.4218758075 -6.95E-01
    20 OT DIIS     0.15E+00    6.3     0.00056955     -2675.5540483927 -1.32E-01
    21 OT DIIS     0.15E+00    6.4     0.00045423     -2676.2062858022 -6.52E-01
    22 OT DIIS     0.15E+00    6.4     0.00044351     -2676.2496956642 -4.34E-02
    23 OT DIIS     0.15E+00    6.3     0.00042648     -2676.3644298570 -1.15E-01
    24 OT DIIS     0.15E+00    6.2     0.00038870     -2676.5118739705 -1.47E-01
    25 OT SD       0.15E+00    6.3     0.00036803     -2676.6456921616 -1.34E-01
    26 OT DIIS     0.15E+00    6.3     0.00036322     -2676.6692644067 -2.36E-02
    27 OT DIIS     0.15E+00    6.2     0.00034679     -2676.7843471335 -1.15E-01
    28 OT DIIS     0.15E+00    6.3     0.00031240     -2676.9157001192 -1.31E-01
    29 OT SD       0.15E+00    6.2     0.00031898     -2676.9615073136 -4.58E-02
    30 OT DIIS     0.15E+00    6.2     0.00031433     -2676.9792000101 -1.77E-02
    31 OT DIIS     0.15E+00    6.2     0.00029526     -2677.1281977715 -1.49E-01
    32 OT DIIS     0.15E+00    6.3     0.00028394     -2677.1505346865 -2.23E-02
    33 OT DIIS     0.15E+00    6.2     0.00027061     -2677.1989610598 -4.84E-02
    34 OT DIIS     0.15E+00    6.2     0.00026660     -2677.2801414506 -8.12E-02
    35 OT DIIS     0.15E+00    6.3     0.00025169     -2677.3028894962 -2.27E-02
    36 OT DIIS     0.15E+00    6.3     0.00024996     -2677.3135738255 -1.07E-02
    37 OT DIIS     0.15E+00    6.2     0.00022371     -2677.4355125282 -1.22E-01
    38 OT DIIS     0.15E+00    6.2     0.00025178     -2677.4405468443 -5.03E-03
    39 OT DIIS     0.15E+00    6.2     0.00020308     -2677.5206981713 -8.02E-02
    40 OT DIIS     0.15E+00    6.3     0.00019526     -2677.5240230810 -3.32E-03
    41 OT DIIS     0.15E+00    6.2     0.00019190     -2677.5361885788 -1.22E-02
    42 OT DIIS     0.15E+00    6.3     0.00017574     -2677.5976569642 -6.15E-02
    43 OT DIIS     0.15E+00    6.4     0.00016744     -2677.6296185881 -3.20E-02
    44 OT DIIS     0.15E+00    6.4     0.00013779     -2677.7225751460 -9.30E-02
    45 OT DIIS     0.15E+00    6.3     0.00012804     -2677.7482605552 -2.57E-02
    46 OT DIIS     0.15E+00    6.2     0.00011944     -2677.7592878521 -1.10E-02
    47 OT DIIS     0.15E+00    6.4     0.00010403     -2677.8058093041 -4.65E-02
    48 OT DIIS     0.15E+00    6.4     0.00010043     -2677.8134574541 -7.65E-03
    49 OT DIIS     0.15E+00    6.3     0.00009871     -2677.8166649997 -3.21E-03
    50 OT DIIS     0.15E+00    6.2     0.00008979     -2677.8394606393 -2.28E-02
    51 OT DIIS     0.15E+00    6.3     0.00007470     -2677.8680199287 -2.86E-02
    52 OT DIIS     0.15E+00    6.4     0.00007281     -2677.8720685933 -4.05E-03
    53 OT DIIS     0.15E+00    6.4     0.00007020     -2677.8795171628 -7.45E-03
    54 OT DIIS     0.15E+00    6.2     0.00006824     -2677.8834229237 -3.91E-03
    55 OT DIIS     0.15E+00    6.3     0.00006319     -2677.8931562362 -9.73E-03
    56 OT DIIS     0.15E+00    6.4     0.00006112     -2677.8938752535 -7.19E-04
    57 OT DIIS     0.15E+00    6.4     0.00005929     -2677.8968950526 -3.02E-03
    58 OT DIIS     0.15E+00    6.3     0.00005116     -2677.9159983659 -1.91E-02
    59 OT DIIS     0.15E+00    6.2     0.00005033     -2677.9176740704 -1.68E-03
    60 OT SD       0.15E+00    6.3     0.00004606     -2677.9274944017 -9.82E-03
    61 OT DIIS     0.15E+00    6.4     0.00004525     -2677.9278627573 -3.68E-04
    62 OT SD       0.15E+00    6.4     0.00004211     -2677.9382885428 -1.04E-02
    63 OT DIIS     0.15E+00    6.3     0.00004140     -2677.9385965463 -3.08E-04
    64 OT SD       0.15E+00    6.2     0.00003573     -2677.9478325172 -9.24E-03
    65 OT DIIS     0.15E+00    6.4     0.00003520     -2677.9480544966 -2.22E-04
    66 OT DIIS     0.15E+00    6.4     0.00003061     -2677.9570886659 -9.03E-03
    67 OT DIIS     0.15E+00    6.3     0.00003013     -2677.9570768607  1.18E-05
    68 OT DIIS     0.15E+00    6.2     0.00002848     -2677.9641919539 -7.12E-03
    69 OT DIIS     0.15E+00    6.3     0.00002680     -2677.9642537310 -6.18E-05
    70 OT DIIS     0.15E+00    6.4     0.00002637     -2677.9651393545 -8.86E-04
    71 OT DIIS     0.15E+00    6.4     0.00002377     -2677.9711708630 -6.03E-03
    72 OT DIIS     0.15E+00    6.2     0.00002314     -2677.9721507352 -9.80E-04
    73 OT DIIS     0.15E+00    6.3     0.00002250     -2677.9729056650 -7.55E-04
    74 OT DIIS     0.15E+00    6.4     0.00002279     -2677.9740037497 -1.10E-03
    75 OT DIIS     0.15E+00    6.4     0.00002180     -2677.9744211747 -4.17E-04
    76 OT DIIS     0.15E+00    6.2     0.00002124     -2677.9755551992 -1.13E-03
    77 OT SD       0.15E+00    6.3     0.00001968     -2677.9798364792 -4.28E-03
    78 OT DIIS     0.15E+00    6.4     0.00001944     -2677.9799039035 -6.74E-05
    79 OT SD       0.15E+00    6.4     0.00001737     -2677.9838479319 -3.94E-03
    80 OT DIIS     0.15E+00    6.3     0.00001720     -2677.9839005181 -5.26E-05
    81 OT DIIS     0.15E+00    6.2     0.00001542     -2677.9864071845 -2.51E-03
    82 OT DIIS     0.15E+00    6.3     0.00001520     -2677.9868139785 -4.07E-04
    83 OT DIIS     0.15E+00    6.4     0.00001441     -2677.9881974930 -1.38E-03
    84 OT DIIS     0.15E+00    6.4     0.00001424     -2677.9886810749 -4.84E-04
    85 OT SD       0.15E+00    6.4     0.00001399     -2677.9895024006 -8.21E-04
    86 OT DIIS     0.15E+00    6.4     0.00001384     -2677.9895364917 -3.41E-05
    87 OT DIIS     0.15E+00    6.4     0.00001298     -2677.9917878437 -2.25E-03
    88 OT SD       0.15E+00    6.4     0.00001290     -2677.9916968899  9.10E-05
    89 OT DIIS     0.15E+00    6.3     0.00001272     -2677.9917258384 -2.89E-05
    90 OT DIIS     0.15E+00    6.4     0.00001334     -2677.9920967159 -3.71E-04
    91 OT DIIS     0.15E+00    6.4     0.00001179     -2677.9931121759 -1.02E-03
    92 OT SD       0.15E+00    6.4     0.00001175     -2677.9931671402 -5.50E-05
    93 OT DIIS     0.15E+00    6.4     0.00001168     -2677.9931912688 -2.41E-05
    94 OT DIIS     0.15E+00    6.4     0.00001103     -2677.9949338515 -1.74E-03
    95 OT SD       0.15E+00    6.4     0.00001094     -2677.9949341557 -3.04E-07
    96 OT DIIS     0.15E+00    6.4     0.00001088     -2677.9949550585 -2.09E-05
    97 OT DIIS     0.15E+00    6.4     0.00001062     -2677.9958424686 -8.87E-04
    98 OT SD       0.15E+00    6.4     0.00001037     -2677.9961693020 -3.27E-04
    99 OT DIIS     0.15E+00    6.4     0.00001033     -2677.9961881091 -1.88E-05
   100 OT SD       0.15E+00    6.4     0.00000986     -2677.9974364768 -1.25E-03
   101 OT DIIS     0.15E+00    6.5     0.00000983     -2677.9974534961 -1.70E-05
   102 OT DIIS     0.15E+00    6.5     0.00000953     -2677.9984312471 -9.78E-04
   103 OT DIIS     0.15E+00    6.4     0.00000950     -2677.9984965869 -6.53E-05
   104 OT DIIS     0.15E+00    6.5     0.00000943     -2677.9994584098 -9.62E-04
   105 OT SD       0.15E+00    6.4     0.00000921     -2677.9995233591 -6.49E-05
   106 OT DIIS     0.15E+00    6.5     0.00000919     -2677.9995381902 -1.48E-05
   107 OT DIIS     0.15E+00    6.4     0.00000897     -2678.0005274656 -9.89E-04
   108 OT DIIS     0.15E+00    6.5     0.00000893     -2678.0005942553 -6.68E-05
   109 OT DIIS     0.15E+00    6.5     0.00000880     -2678.0011947172 -6.00E-04
   110 OT SD       0.15E+00    6.4     0.00000896     -2678.0016827438 -4.88E-04
   111 OT DIIS     0.15E+00    6.5     0.00000888     -2678.0016967378 -1.40E-05
   112 OT SD       0.15E+00    6.4     0.00000852     -2678.0024085276 -7.12E-04
   113 OT DIIS     0.15E+00    6.4     0.00000849     -2678.0024212254 -1.27E-05
   114 OT SD       0.15E+00    6.5     0.00000829     -2678.0033198523 -8.99E-04
   115 OT DIIS     0.15E+00    6.5     0.00000827     -2678.0033318760 -1.20E-05
   116 OT DIIS     0.15E+00    6.4     0.00000840     -2678.0043444380 -1.01E-03
   117 OT DIIS     0.15E+00    6.4     0.00000803     -2678.0044930408 -1.49E-04
   118 OT SD       0.15E+00    6.5     0.00000806     -2678.0046829489 -1.90E-04
   119 OT DIIS     0.15E+00    6.4     0.00000800     -2678.0046942766 -1.13E-05
   120 OT DIIS     0.15E+00    6.5     0.00000752     -2678.0055119579 -8.18E-04
   121 OT DIIS     0.15E+00    6.4     0.00000750     -2678.0056119671 -1.00E-04
   122 OT SD       0.15E+00    6.4     0.00000864     -2678.0066697240 -1.06E-03
   123 OT DIIS     0.15E+00    6.4     0.00000832     -2678.0066825456 -1.28E-05
   124 OT SD       0.15E+00    6.5     0.00000682     -2678.0072793968 -5.97E-04
   125 OT DIIS     0.15E+00    6.4     0.00000676     -2678.0072875076 -8.11E-06
   126 OT SD       0.15E+00    6.4     0.00000682     -2678.0082191562 -9.32E-04
   127 OT DIIS     0.15E+00    6.5     0.00000669     -2678.0082272274 -8.07E-06
   128 OT DIIS     0.15E+00    6.4     0.00000692     -2678.0087084752 -4.81E-04
   129 OT SD       0.15E+00    6.5     0.00000758     -2678.0090066844 -2.98E-04
   130 OT DIIS     0.15E+00    6.4     0.00000728     -2678.0090165530 -9.87E-06
   131 OT DIIS     0.15E+00    6.4     0.00000761     -2678.0089953149  2.12E-05
   132 OT DIIS     0.15E+00    6.4     0.00000606     -2678.0092195633 -2.24E-04
   133 OT DIIS     0.15E+00    6.4     0.00000577     -2678.0093292217 -1.10E-04
   134 OT DIIS     0.15E+00    6.4     0.00000842     -2678.0095206227 -1.91E-04
   135 OT DIIS     0.15E+00    6.3     0.00000541     -2678.0099418080 -4.21E-04
   136 OT DIIS     0.15E+00    6.4     0.00000538     -2678.0099884025 -4.66E-05
   137 OT DIIS     0.15E+00    6.4     0.00000686     -2678.0099552249  3.32E-05
   138 OT SD       0.15E+00    6.3     0.00000524     -2678.0102961420 -3.41E-04
   139 OT DIIS     0.15E+00    6.4     0.00000519     -2678.0103009243 -4.78E-06
   140 OT DIIS     0.15E+00    6.4     0.00000573     -2678.0103040183 -3.09E-06
   141 OT DIIS     0.15E+00    6.4     0.00000637     -2678.0104480150 -1.44E-04
   142 OT DIIS     0.15E+00    6.4     0.00000484     -2678.0104927649 -4.47E-05
   143 OT DIIS     0.15E+00    6.3     0.00000539     -2678.0105718235 -7.91E-05
   144 OT DIIS     0.15E+00    6.3     0.00000461     -2678.0108112399 -2.39E-04
   145 OT DIIS     0.15E+00    6.2     0.00000455     -2678.0108703107 -5.91E-05
   146 OT DIIS     0.15E+00    6.3     0.00000453     -2678.0109121689 -4.19E-05
   147 OT DIIS     0.15E+00    6.3     0.00000440     -2678.0111677504 -2.56E-04
   148 OT DIIS     0.15E+00    6.3     0.00000434     -2678.0112927382 -1.25E-04
   149 OT DIIS     0.15E+00    6.3     0.00000432     -2678.0113433015 -5.06E-05
   150 OT DIIS     0.15E+00    6.3     0.00000420     -2678.0115267772 -1.83E-04
   151 OT DIIS     0.15E+00    6.3     0.00000418     -2678.0115488954 -2.21E-05
   152 OT DIIS     0.15E+00    6.2     0.00000416     -2678.0115729682 -2.41E-05
   153 OT DIIS     0.15E+00    6.2     0.00000407     -2678.0118454138 -2.72E-04
   154 OT DIIS     0.15E+00    6.2     0.00000401     -2678.0119050798 -5.97E-05
   155 OT DIIS     0.15E+00    6.2     0.00000398     -2678.0119780881 -7.30E-05
   156 OT SD       0.15E+00    6.1     0.00000397     -2678.0121396049 -1.62E-04
   157 OT DIIS     0.15E+00    6.3     0.00000395     -2678.0121423601 -2.76E-06
   158 OT DIIS     0.15E+00    6.4     0.00000402     -2678.0122261424 -8.38E-05
   159 OT DIIS     0.15E+00    6.2     0.00000382     -2678.0123385051 -1.12E-04
   160 OT DIIS     0.15E+00    6.3     0.00000389     -2678.0123485268 -1.00E-05
   161 OT SD       0.15E+00    6.2     0.00000378     -2678.0124353044 -8.68E-05
   162 OT DIIS     0.15E+00    6.3     0.00000377     -2678.0124378000 -2.50E-06
   163 OT SD       0.15E+00    6.2     0.00000369     -2678.0125616403 -1.24E-04
   164 OT DIIS     0.15E+00    6.4     0.00000368     -2678.0125640196 -2.38E-06
   165 OT SD       0.15E+00    6.4     0.00000362     -2678.0127498659 -1.86E-04
   166 OT DIIS     0.15E+00    6.3     0.00000362     -2678.0127521649 -2.30E-06
   167 OT SD       0.15E+00    6.5     0.00000357     -2678.0129209365 -1.69E-04
   168 OT DIIS     0.15E+00    6.3     0.00000357     -2678.0129231735 -2.24E-06
   169 OT DIIS     0.15E+00    6.3     0.00000354     -2678.0130742324 -1.51E-04
   170 OT DIIS     0.15E+00    6.3     0.00000353     -2678.0130981508 -2.39E-05
   171 OT DIIS     0.15E+00    6.3     0.00000353     -2678.0131098785 -1.17E-05
   172 OT DIIS     0.15E+00    6.3     0.00000353     -2678.0131170936 -7.22E-06
   173 OT DIIS     0.15E+00    6.3     0.00000352     -2678.0131653960 -4.83E-05
   174 OT DIIS     0.15E+00    6.3     0.00000352     -2678.0132030552 -3.77E-05
   175 OT SD       0.15E+00    6.4     0.00000351     -2678.0132706266 -6.76E-05
   176 OT DIIS     0.15E+00    6.2     0.00000350     -2678.0132727798 -2.15E-06
   177 OT SD       0.15E+00    6.3     0.00000351     -2678.0135089063 -2.36E-04
   178 OT DIIS     0.15E+00    6.3     0.00000350     -2678.0135110574 -2.15E-06
   179 OT DIIS     0.15E+00    6.3     0.00000348     -2678.0135681102 -5.71E-05
   180 OT DIIS     0.15E+00    6.4     0.00000347     -2678.0135804342 -1.23E-05
   181 OT SD       0.15E+00    6.3     0.00000347     -2678.0136717881 -9.14E-05
   182 OT DIIS     0.15E+00    6.5     0.00000347     -2678.0136738971 -2.11E-06
   183 OT DIIS     0.15E+00    6.3     0.00000347     -2678.0138050120 -1.31E-04
   184 OT SD       0.15E+00    6.4     0.00000347     -2678.0138062419 -1.23E-06
   185 OT DIIS     0.15E+00    6.3     0.00000347     -2678.0138083499 -2.11E-06
   186 OT SD       0.15E+00    6.3     0.00000348     -2678.0138490887 -4.07E-05
   187 OT SD       0.15E+00    6.3     0.00000348     -2678.0138512120 -2.12E-06
   188 OT DIIS     0.15E+00    6.3     0.00000348     -2678.0138533310 -2.12E-06
   189 OT SD       0.15E+00    6.3     0.00000346     -2678.0138536906 -3.60E-07
   190 OT DIIS     0.15E+00    6.3     0.00000346     -2678.0138557903 -2.10E-06
   191 OT SD       0.15E+00    6.2     0.00000346     -2678.0138934765 -3.77E-05
   192 OT DIIS     0.15E+00    6.3     0.00000346     -2678.0138955742 -2.10E-06
   193 OT DIIS     0.15E+00    6.1     0.00000346     -2678.0139373555 -4.18E-05
   194 OT DIIS     0.15E+00    6.2     0.00000346     -2678.0139431493 -5.79E-06
   195 OT DIIS     0.15E+00    6.3     0.00000346     -2678.0139666113 -2.35E-05
   196 OT DIIS     0.15E+00    6.2     0.00000346     -2678.0139737404 -7.13E-06
   197 OT DIIS     0.15E+00    6.8     0.00000346     -2678.0139832213 -9.48E-06
   198 OT DIIS     0.15E+00    6.2     0.00000346     -2678.0139972092 -1.40E-05
   199 OT DIIS     0.15E+00    6.5     0.00000346     -2678.0139988780 -1.67E-06
   200 OT SD       0.15E+00    6.3     0.00000346     -2678.0140054047 -6.53E-06
   201 OT SD       0.15E+00    6.4     0.00000346     -2678.0140074992 -2.09E-06
   202 OT SD       0.15E+00    6.3     0.00000346     -2678.0140095938 -2.09E-06
   203 OT SD       0.15E+00    6.3     0.00000346     -2678.0140116884 -2.09E-06
   204 OT SD       0.15E+00    6.3     0.00000346     -2678.0140137832 -2.09E-06
   205 OT SD       0.15E+00    6.4     0.00000346     -2678.0140158780 -2.09E-06
   206 OT SD       0.15E+00    6.3     0.00000346     -2678.0140179729 -2.09E-06
   207 OT SD       0.15E+00    6.4     0.00000346     -2678.0140200679 -2.10E-06
   208 OT SD       0.15E+00    6.2     0.00000346     -2678.0140221631 -2.10E-06
   209 OT SD       0.15E+00    6.4     0.00000346     -2678.0140242584 -2.10E-06
   210 OT SD       0.15E+00    6.4     0.00000346     -2678.0140263537 -2.10E-06
   211 OT SD       0.15E+00    6.4     0.00000346     -2678.0140284493 -2.10E-06
   212 OT SD       0.15E+00    6.4     0.00000346     -2678.0140305449 -2.10E-06
   213 OT SD       0.15E+00    6.4     0.00000346     -2678.0140326407 -2.10E-06
   214 OT SD       0.15E+00    6.4     0.00000346     -2678.0140347367 -2.10E-06
   215 OT SD       0.15E+00    6.3     0.00000346     -2678.0140368327 -2.10E-06
   216 OT SD       0.15E+00    6.4     0.00000346     -2678.0140389290 -2.10E-06
   217 OT SD       0.15E+00    6.3     0.00000346     -2678.0140410254 -2.10E-06
   218 OT SD       0.15E+00    6.4     0.00000346     -2678.0140431220 -2.10E-06
   219 OT SD       0.15E+00    6.3     0.00000346     -2678.0140452187 -2.10E-06
   220 OT SD       0.15E+00    6.3     0.00000346     -2678.0140473156 -2.10E-06
   221 OT SD       0.15E+00    6.3     0.00000346     -2678.0140494127 -2.10E-06
   222 OT SD       0.15E+00    6.4     0.00000346     -2678.0140515099 -2.10E-06
   223 OT SD       0.15E+00    6.4     0.00000346     -2678.0140536073 -2.10E-06
   224 OT SD       0.15E+00    6.4     0.00000346     -2678.0140557050 -2.10E-06
   225 OT SD       0.15E+00    6.4     0.00000346     -2678.0140578028 -2.10E-06
   226 OT SD       0.15E+00    6.4     0.00000346     -2678.0140599007 -2.10E-06
   227 OT SD       0.15E+00    6.5     0.00000346     -2678.0140619989 -2.10E-06
   228 OT SD       0.15E+00    6.3     0.00000346     -2678.0140640973 -2.10E-06
   229 OT SD       0.15E+00    6.6     0.00000346     -2678.0140661959 -2.10E-06
   230 OT SD       0.15E+00    6.4     0.00000346     -2678.0140682947 -2.10E-06
   231 OT SD       0.15E+00    6.5     0.00000346     -2678.0140703936 -2.10E-06
   232 OT SD       0.15E+00    6.4     0.00000346     -2678.0140724928 -2.10E-06
   233 OT SD       0.15E+00    6.5     0.00000346     -2678.0140745922 -2.10E-06
   234 OT SD       0.15E+00    6.5     0.00000346     -2678.0140766918 -2.10E-06
   235 OT SD       0.15E+00    6.4     0.00000346     -2678.0140787916 -2.10E-06
   236 OT SD       0.15E+00    6.5     0.00000346     -2678.0140808917 -2.10E-06
   237 OT SD       0.15E+00    6.5     0.00000346     -2678.0140829919 -2.10E-06
   238 OT SD       0.15E+00    6.3     0.00000346     -2678.0140850924 -2.10E-06
   239 OT SD       0.15E+00    7.0     0.00000346     -2678.0140871931 -2.10E-06
   240 OT SD       0.15E+00    6.2     0.00000346     -2678.0140892941 -2.10E-06
   241 OT SD       0.15E+00    6.2     0.00000346     -2678.0140913952 -2.10E-06
   242 OT SD       0.15E+00    6.3     0.00000346     -2678.0140934966 -2.10E-06
   243 OT SD       0.15E+00    9.8     0.00000346     -2678.0140955982 -2.10E-06
   244 OT SD       0.15E+00   20.1     0.00000346     -2678.0140977001 -2.10E-06
   245 OT SD       0.15E+00   21.0     0.00000346     -2678.0140998022 -2.10E-06
   246 OT SD       0.15E+00   24.7     0.00000346     -2678.0141019045 -2.10E-06
   247 OT SD       0.15E+00   25.2     0.00000346     -2678.0141040071 -2.10E-06
   248 OT SD       0.15E+00    8.0     0.00000346     -2678.0141061099 -2.10E-06
   249 OT SD       0.15E+00    6.7     0.00000346     -2678.0141082130 -2.10E-06
   250 OT SD       0.15E+00    6.0     0.00000346     -2678.0141103163 -2.10E-06
   251 OT SD       0.15E+00    6.2     0.00000347     -2678.0141124199 -2.10E-06
   252 OT SD       0.15E+00    9.6     0.00000347     -2678.0141145237 -2.10E-06
   253 OT SD       0.15E+00    6.1     0.00000347     -2678.0141166277 -2.10E-06
   254 OT SD       0.15E+00    8.8     0.00000347     -2678.0141187321 -2.10E-06
   255 OT SD       0.15E+00    6.1     0.00000347     -2678.0141208366 -2.10E-06
   256 OT SD       0.15E+00    6.1     0.00000347     -2678.0141229415 -2.10E-06
   257 OT SD       0.15E+00    6.1     0.00000347     -2678.0141250466 -2.11E-06
   258 OT SD       0.15E+00    6.0     0.00000347     -2678.0141271519 -2.11E-06
   259 OT SD       0.15E+00    6.2     0.00000347     -2678.0141292575 -2.11E-06
   260 OT SD       0.15E+00    6.0     0.00000347     -2678.0141313634 -2.11E-06
   261 OT SD       0.15E+00    6.3     0.00000347     -2678.0141334696 -2.11E-06
   262 OT SD       0.15E+00    6.1     0.00000347     -2678.0141355760 -2.11E-06
   263 OT SD       0.15E+00    6.0     0.00000347     -2678.0141376827 -2.11E-06
   264 OT SD       0.15E+00    6.0     0.00000347     -2678.0141397896 -2.11E-06
   265 OT SD       0.15E+00    6.0     0.00000347     -2678.0141418969 -2.11E-06
   266 OT SD       0.15E+00    6.1     0.00000347     -2678.0141440044 -2.11E-06
   267 OT SD       0.15E+00    6.0     0.00000347     -2678.0141461122 -2.11E-06
   268 OT SD       0.15E+00    6.1     0.00000347     -2678.0141482202 -2.11E-06
   269 OT SD       0.15E+00    6.1     0.00000347     -2678.0141503286 -2.11E-06
   270 OT SD       0.15E+00    6.2     0.00000347     -2678.0141524372 -2.11E-06
   271 OT SD       0.15E+00    6.1     0.00000347     -2678.0141545461 -2.11E-06
   272 OT SD       0.15E+00   20.3     0.00000347     -2678.0141566553 -2.11E-06
   273 OT SD       0.15E+00    9.9     0.00000347     -2678.0141587647 -2.11E-06
   274 OT SD       0.15E+00    6.1     0.00000347     -2678.0141608745 -2.11E-06
   275 OT SD       0.15E+00    6.0     0.00000347     -2678.0141629845 -2.11E-06
   276 OT SD       0.15E+00    6.1     0.00000347     -2678.0141650948 -2.11E-06
   277 OT SD       0.15E+00    6.1     0.00000347     -2678.0141672055 -2.11E-06
   278 OT SD       0.15E+00    9.9     0.00000347     -2678.0141693164 -2.11E-06
   279 OT SD       0.15E+00    5.9     0.00000347     -2678.0141714276 -2.11E-06
   280 OT SD       0.15E+00    5.9     0.00000347     -2678.0141735391 -2.11E-06
   281 OT SD       0.15E+00   17.5     0.00000347     -2678.0141756508 -2.11E-06
   282 OT SD       0.15E+00    6.0     0.00000347     -2678.0141777629 -2.11E-06
   283 OT SD       0.15E+00    6.2     0.00000347     -2678.0141798753 -2.11E-06
   284 OT SD       0.15E+00    6.0     0.00000347     -2678.0141819880 -2.11E-06
   285 OT SD       0.15E+00    6.0     0.00000347     -2678.0141841010 -2.11E-06
   286 OT SD       0.15E+00    5.9     0.00000347     -2678.0141862143 -2.11E-06
   287 OT SD       0.15E+00    6.0     0.00000347     -2678.0141883278 -2.11E-06
   288 OT SD       0.15E+00    6.2     0.00000347     -2678.0141904417 -2.11E-06
   289 OT SD       0.15E+00    6.0     0.00000347     -2678.0141925559 -2.11E-06
   290 OT SD       0.15E+00    6.1     0.00000347     -2678.0141946704 -2.11E-06
 Singular DIIS matrix
   291 OT SD       0.15E+00    6.3     0.00000347     -2678.0141967852 -2.11E-06
   292 OT SD       0.15E+00    6.1     0.00000347     -2678.0141989003 -2.12E-06
   293 OT SD       0.15E+00    6.0     0.00000347     -2678.0142010157 -2.12E-06
   294 OT SD       0.15E+00   10.0     0.00000348     -2678.0142031315 -2.12E-06
   295 OT SD       0.15E+00    5.9     0.00000348     -2678.0142052475 -2.12E-06
   296 OT SD       0.15E+00    5.9     0.00000348     -2678.0142073639 -2.12E-06
   297 OT SD       0.15E+00   20.2     0.00000348     -2678.0142094805 -2.12E-06
   298 OT SD       0.15E+00   24.6     0.00000348     -2678.0142115975 -2.12E-06
   299 OT SD       0.15E+00   27.0     0.00000348     -2678.0142137148 -2.12E-06
   300 OT SD       0.15E+00    5.9     0.00000348     -2678.0142158324 -2.12E-06
   301 OT SD       0.15E+00    5.9     0.00000348     -2678.0142179504 -2.12E-06
   302 OT SD       0.15E+00    5.9     0.00000348     -2678.0142200686 -2.12E-06
   303 OT SD       0.15E+00    5.9     0.00000348     -2678.0142221872 -2.12E-06
   304 OT SD       0.15E+00    7.6     0.00000348     -2678.0142243061 -2.12E-06
   305 OT SD       0.15E+00    5.9     0.00000348     -2678.0142264253 -2.12E-06
   306 OT SD       0.15E+00    5.9     0.00000348     -2678.0142285448 -2.12E-06
   307 OT SD       0.15E+00   14.8     0.00000348     -2678.0142306647 -2.12E-06
   308 OT SD       0.15E+00   24.1     0.00000348     -2678.0142327849 -2.12E-06
   309 OT SD       0.15E+00   24.0     0.00000348     -2678.0142349054 -2.12E-06
   310 OT SD       0.15E+00   23.9     0.00000348     -2678.0142370262 -2.12E-06
   311 OT SD       0.15E+00   34.0     0.00000348     -2678.0142391474 -2.12E-06
   312 OT SD       0.15E+00    5.9     0.00000348     -2678.0142412689 -2.12E-06
   313 OT SD       0.15E+00    5.9     0.00000348     -2678.0142433907 -2.12E-06
   314 OT SD       0.15E+00   28.2     0.00000348     -2678.0142455129 -2.12E-06
   315 OT SD       0.15E+00    5.9     0.00000348     -2678.0142476354 -2.12E-06
   316 OT SD       0.15E+00    5.9     0.00000348     -2678.0142497582 -2.12E-06
   317 OT SD       0.15E+00    5.9     0.00000348     -2678.0142518814 -2.12E-06
   318 OT SD       0.15E+00    5.9     0.00000348     -2678.0142540049 -2.12E-06
   319 OT SD       0.15E+00    5.9     0.00000348     -2678.0142561287 -2.12E-06
   320 OT SD       0.15E+00    6.1     0.00000348     -2678.0142582528 -2.12E-06
   321 OT SD       0.15E+00   20.4     0.00000348     -2678.0142603773 -2.12E-06
   322 OT SD       0.15E+00   24.3     0.00000348     -2678.0142625022 -2.12E-06
   323 OT SD       0.15E+00   24.7     0.00000348     -2678.0142646274 -2.13E-06
   324 OT SD       0.15E+00   24.6     0.00000348     -2678.0142667529 -2.13E-06
   325 OT SD       0.15E+00   24.6     0.00000348     -2678.0142688787 -2.13E-06
   326 OT SD       0.15E+00   24.5     0.00000348     -2678.0142710049 -2.13E-06
   327 OT SD       0.15E+00   24.4     0.00000348     -2678.0142731315 -2.13E-06
   328 OT SD       0.15E+00   24.6     0.00000348     -2678.0142752584 -2.13E-06
   329 OT SD       0.15E+00   24.4     0.00000348     -2678.0142773856 -2.13E-06
   330 OT SD       0.15E+00   12.1     0.00000348     -2678.0142795132 -2.13E-06
   331 OT SD       0.15E+00    6.1     0.00000349     -2678.0142816411 -2.13E-06
 Singular DIIS matrix
   332 OT SD       0.15E+00    6.1     0.00000349     -2678.0142837694 -2.13E-06
   333 OT SD       0.15E+00    6.1     0.00000349     -2678.0142858980 -2.13E-06
   334 OT SD       0.15E+00    6.2     0.00000349     -2678.0142880270 -2.13E-06
   335 OT SD       0.15E+00    6.1     0.00000349     -2678.0142901563 -2.13E-06
   336 OT SD       0.15E+00    6.3     0.00000349     -2678.0142922860 -2.13E-06
   337 OT SD       0.15E+00    6.1     0.00000349     -2678.0142944160 -2.13E-06
   338 OT SD       0.15E+00    6.2     0.00000349     -2678.0142965464 -2.13E-06
   339 OT SD       0.15E+00    6.2     0.00000349     -2678.0142986771 -2.13E-06
   340 OT SD       0.15E+00    6.2     0.00000349     -2678.0143008082 -2.13E-06
   341 OT SD       0.15E+00    6.1     0.00000349     -2678.0143029396 -2.13E-06
   342 OT SD       0.15E+00    6.2     0.00000349     -2678.0143050714 -2.13E-06
   343 OT SD       0.15E+00    6.3     0.00000349     -2678.0143072035 -2.13E-06
   344 OT SD       0.15E+00    6.2     0.00000349     -2678.0143093360 -2.13E-06
   345 OT SD       0.15E+00    6.4     0.00000349     -2678.0143114689 -2.13E-06
   346 OT SD       0.15E+00    6.2     0.00000349     -2678.0143136021 -2.13E-06
   347 OT SD       0.15E+00    6.3     0.00000349     -2678.0143157357 -2.13E-06
   348 OT SD       0.15E+00    6.2     0.00000349     -2678.0143178696 -2.13E-06
   349 OT SD       0.15E+00    6.3     0.00000349     -2678.0143200039 -2.13E-06
   350 OT SD       0.15E+00    6.2     0.00000349     -2678.0143221386 -2.13E-06
   351 OT SD       0.15E+00    6.3     0.00000349     -2678.0143242736 -2.14E-06
   352 OT SD       0.15E+00    6.3     0.00000349     -2678.0143264090 -2.14E-06
   353 OT SD       0.15E+00   19.4     0.00000349     -2678.0143285448 -2.14E-06
   354 OT SD       0.15E+00    6.2     0.00000349     -2678.0143306809 -2.14E-06
   355 OT SD       0.15E+00    6.2     0.00000349     -2678.0143328174 -2.14E-06
   356 OT SD       0.15E+00    6.3     0.00000349     -2678.0143349543 -2.14E-06
   357 OT SD       0.15E+00    6.2     0.00000349     -2678.0143370915 -2.14E-06
   358 OT SD       0.15E+00    6.3     0.00000349     -2678.0143392291 -2.14E-06
   359 OT SD       0.15E+00    6.3     0.00000349     -2678.0143413670 -2.14E-06
   360 OT SD       0.15E+00    6.3     0.00000349     -2678.0143435054 -2.14E-06
   361 OT SD       0.15E+00    6.3     0.00000349     -2678.0143456441 -2.14E-06
   362 OT SD       0.15E+00    6.3     0.00000349     -2678.0143477831 -2.14E-06
   363 OT SD       0.15E+00    6.4     0.00000349     -2678.0143499226 -2.14E-06
   364 OT SD       0.15E+00    6.4     0.00000349     -2678.0143520624 -2.14E-06
   365 OT SD       0.15E+00    6.5     0.00000350     -2678.0143542026 -2.14E-06
   366 OT SD       0.15E+00    6.4     0.00000350     -2678.0143563432 -2.14E-06
   367 OT SD       0.15E+00    6.4     0.00000350     -2678.0143584841 -2.14E-06
 Singular DIIS matrix
   368 OT SD       0.15E+00    6.4     0.00000350     -2678.0143606254 -2.14E-06
   369 OT SD       0.15E+00    6.4     0.00000350     -2678.0143627671 -2.14E-06
   370 OT SD       0.15E+00    6.3     0.00000350     -2678.0143649092 -2.14E-06
   371 OT SD       0.15E+00    6.3     0.00000350     -2678.0143670516 -2.14E-06
   372 OT SD       0.15E+00    6.2     0.00000350     -2678.0143691945 -2.14E-06
   373 OT SD       0.15E+00    6.3     0.00000350     -2678.0143713377 -2.14E-06
   374 OT SD       0.15E+00    6.2     0.00000350     -2678.0143734813 -2.14E-06
   375 OT SD       0.15E+00    6.2     0.00000350     -2678.0143756252 -2.14E-06
   376 OT SD       0.15E+00    6.3     0.00000350     -2678.0143777696 -2.14E-06
   377 OT SD       0.15E+00    6.1     0.00000350     -2678.0143799143 -2.14E-06
   378 OT SD       0.15E+00    6.1     0.00000350     -2678.0143820594 -2.15E-06
   379 OT SD       0.15E+00    6.1     0.00000350     -2678.0143842049 -2.15E-06
   380 OT SD       0.15E+00    6.1     0.00000350     -2678.0143863508 -2.15E-06
   381 OT SD       0.15E+00    6.1     0.00000350     -2678.0143884971 -2.15E-06
   382 OT SD       0.15E+00    6.3     0.00000350     -2678.0143906437 -2.15E-06
   383 OT SD       0.15E+00    6.2     0.00000350     -2678.0143927908 -2.15E-06
   384 OT SD       0.15E+00    6.3     0.00000350     -2678.0143949382 -2.15E-06
   385 OT SD       0.15E+00    6.2     0.00000350     -2678.0143970860 -2.15E-06
   386 OT SD       0.15E+00   46.7     0.00000350     -2678.0143992342 -2.15E-06
   387 OT SD       0.15E+00   39.1     0.00000350     -2678.0144013828 -2.15E-06
   388 OT SD       0.15E+00   15.3     0.00000350     -2678.0144035318 -2.15E-06
   389 OT SD       0.15E+00   24.8     0.00000350     -2678.0144056812 -2.15E-06
   390 OT SD       0.15E+00   15.8     0.00000350     -2678.0144078310 -2.15E-06
   391 OT SD       0.15E+00    6.0     0.00000350     -2678.0144099811 -2.15E-06
   392 OT SD       0.15E+00   21.8     0.00000350     -2678.0144121317 -2.15E-06
   393 OT SD       0.15E+00   24.2     0.00000350     -2678.0144142827 -2.15E-06
   394 OT SD       0.15E+00   11.6     0.00000350     -2678.0144164340 -2.15E-06
   395 OT SD       0.15E+00    6.3     0.00000350     -2678.0144185857 -2.15E-06
 Singular DIIS matrix
   396 OT SD       0.15E+00   25.0     0.00000350     -2678.0144207379 -2.15E-06
   397 OT SD       0.15E+00   48.4     0.00000351     -2678.0144228904 -2.15E-06
   398 OT SD       0.15E+00    5.9     0.00000351     -2678.0144250433 -2.15E-06
   399 OT SD       0.15E+00    8.9     0.00000351     -2678.0144271967 -2.15E-06
   400 OT SD       0.15E+00   21.7     0.00000351     -2678.0144293504 -2.15E-06
   401 OT SD       0.15E+00   27.7     0.00000351     -2678.0144315045 -2.15E-06
   402 OT SD       0.15E+00   23.7     0.00000351     -2678.0144336591 -2.15E-06
   403 OT SD       0.15E+00    7.4     0.00000351     -2678.0144358140 -2.15E-06
   404 OT SD       0.15E+00    5.9     0.00000351     -2678.0144379693 -2.16E-06
   405 OT SD       0.15E+00    5.9     0.00000351     -2678.0144401250 -2.16E-06
   406 OT SD       0.15E+00    5.9     0.00000351     -2678.0144422812 -2.16E-06
   407 OT SD       0.15E+00    5.9     0.00000351     -2678.0144444377 -2.16E-06
   408 OT SD       0.15E+00    7.5     0.00000351     -2678.0144465946 -2.16E-06
   409 OT SD       0.15E+00    5.9     0.00000351     -2678.0144487520 -2.16E-06
   410 OT SD       0.15E+00    6.0     0.00000351     -2678.0144509097 -2.16E-06
   411 OT SD       0.15E+00    5.9     0.00000351     -2678.0144530679 -2.16E-06
   412 OT SD       0.15E+00    5.9     0.00000351     -2678.0144552265 -2.16E-06
   413 OT SD       0.15E+00    5.9     0.00000351     -2678.0144573854 -2.16E-06
   414 OT SD       0.15E+00    5.9     0.00000351     -2678.0144595448 -2.16E-06
   415 OT SD       0.15E+00    6.0     0.00000351     -2678.0144617046 -2.16E-06
   416 OT SD       0.15E+00    5.9     0.00000351     -2678.0144638648 -2.16E-06
   417 OT SD       0.15E+00    5.9     0.00000351     -2678.0144660254 -2.16E-06
   418 OT SD       0.15E+00    5.9     0.00000351     -2678.0144681864 -2.16E-06
   419 OT SD       0.15E+00    5.9     0.00000351     -2678.0144703478 -2.16E-06
   420 OT SD       0.15E+00    6.6     0.00000351     -2678.0144725097 -2.16E-06
   421 OT SD       0.15E+00    5.9     0.00000351     -2678.0144746719 -2.16E-06
   422 OT SD       0.15E+00   12.3     0.00000351     -2678.0144768346 -2.16E-06
   423 OT SD       0.15E+00    5.9     0.00000351     -2678.0144789977 -2.16E-06
   424 OT SD       0.15E+00    5.9     0.00000351     -2678.0144811612 -2.16E-06
   425 OT SD       0.15E+00    5.9     0.00000351     -2678.0144833251 -2.16E-06
   426 OT SD       0.15E+00    5.9     0.00000351     -2678.0144854894 -2.16E-06
   427 OT SD       0.15E+00    5.9     0.00000352     -2678.0144876541 -2.16E-06
 Singular DIIS matrix
   428 OT SD       0.15E+00   11.4     0.00000352     -2678.0144898193 -2.17E-06
   429 OT SD       0.15E+00    5.9     0.00000352     -2678.0144919848 -2.17E-06
   430 OT SD       0.15E+00    5.9     0.00000352     -2678.0144941508 -2.17E-06
   431 OT SD       0.15E+00    5.9     0.00000352     -2678.0144963172 -2.17E-06
   432 OT SD       0.15E+00    5.9     0.00000352     -2678.0144984841 -2.17E-06
   433 OT SD       0.15E+00    5.9     0.00000352     -2678.0145006513 -2.17E-06
   434 OT SD       0.15E+00    5.9     0.00000352     -2678.0145028190 -2.17E-06
   435 OT SD       0.15E+00    5.9     0.00000352     -2678.0145049871 -2.17E-06
   436 OT SD       0.15E+00   15.6     0.00000352     -2678.0145071556 -2.17E-06
   437 OT SD       0.15E+00    5.8     0.00000352     -2678.0145093245 -2.17E-06
   438 OT SD       0.15E+00    5.9     0.00000352     -2678.0145114939 -2.17E-06
   439 OT SD       0.15E+00    5.9     0.00000352     -2678.0145136637 -2.17E-06
   440 OT SD       0.15E+00   10.0     0.00000352     -2678.0145158339 -2.17E-06
   441 OT SD       0.15E+00    5.9     0.00000352     -2678.0145180045 -2.17E-06
   442 OT SD       0.15E+00    5.9     0.00000352     -2678.0145201755 -2.17E-06
   443 OT SD       0.15E+00    5.9     0.00000352     -2678.0145223470 -2.17E-06
   444 OT SD       0.15E+00    5.9     0.00000352     -2678.0145245189 -2.17E-06
   445 OT SD       0.15E+00    6.1     0.00000352     -2678.0145266913 -2.17E-06
   446 OT SD       0.15E+00    6.0     0.00000352     -2678.0145288640 -2.17E-06
   447 OT SD       0.15E+00    5.9     0.00000352     -2678.0145310372 -2.17E-06
   448 OT SD       0.15E+00    5.9     0.00000352     -2678.0145332108 -2.17E-06
   449 OT SD       0.15E+00    6.5     0.00000352     -2678.0145353849 -2.17E-06
   450 OT SD       0.15E+00    5.9     0.00000352     -2678.0145375594 -2.17E-06
   451 OT SD       0.15E+00    5.9     0.00000352     -2678.0145397343 -2.17E-06
   452 OT SD       0.15E+00    5.9     0.00000352     -2678.0145419096 -2.18E-06
   453 OT SD       0.15E+00    5.9     0.00000352     -2678.0145440854 -2.18E-06
   454 OT SD       0.15E+00    6.0     0.00000352     -2678.0145462616 -2.18E-06
   455 OT SD       0.15E+00    6.0     0.00000352     -2678.0145484382 -2.18E-06
   456 OT SD       0.15E+00   16.1     0.00000353     -2678.0145506153 -2.18E-06
   457 OT SD       0.15E+00    6.1     0.00000353     -2678.0145527928 -2.18E-06
   458 OT SD       0.15E+00    5.9     0.00000353     -2678.0145549708 -2.18E-06
   459 OT SD       0.15E+00    8.4     0.00000353     -2678.0145571492 -2.18E-06
   460 OT SD       0.15E+00    5.9     0.00000353     -2678.0145593280 -2.18E-06
   461 OT SD       0.15E+00    5.9     0.00000353     -2678.0145615072 -2.18E-06
   462 OT SD       0.15E+00    5.9     0.00000353     -2678.0145636869 -2.18E-06
   463 OT SD       0.15E+00    6.1     0.00000353     -2678.0145658670 -2.18E-06
   464 OT SD       0.15E+00    5.9     0.00000353     -2678.0145680476 -2.18E-06
   465 OT SD       0.15E+00    5.9     0.00000353     -2678.0145702286 -2.18E-06
   466 OT SD       0.15E+00    5.9     0.00000353     -2678.0145724100 -2.18E-06
   467 OT SD       0.15E+00    5.9     0.00000353     -2678.0145745919 -2.18E-06
   468 OT SD       0.15E+00    5.9     0.00000353     -2678.0145767743 -2.18E-06
   469 OT SD       0.15E+00    6.0     0.00000353     -2678.0145789570 -2.18E-06
   470 OT SD       0.15E+00   13.3     0.00000353     -2678.0145811402 -2.18E-06
   471 OT SD       0.15E+00    6.0     0.00000353     -2678.0145833239 -2.18E-06
   472 OT SD       0.15E+00   21.8     0.00000353     -2678.0145855080 -2.18E-06
   473 OT SD       0.15E+00    5.9     0.00000353     -2678.0145876925 -2.18E-06
   474 OT SD       0.15E+00    5.9     0.00000353     -2678.0145898775 -2.18E-06
   475 OT SD       0.15E+00    6.1     0.00000353     -2678.0145920629 -2.19E-06
 Singular DIIS matrix
   476 OT SD       0.15E+00    5.9     0.00000353     -2678.0145942488 -2.19E-06
   477 OT SD       0.15E+00    9.9     0.00000353     -2678.0145964351 -2.19E-06
   478 OT SD       0.15E+00    5.9     0.00000353     -2678.0145986219 -2.19E-06
   479 OT SD       0.15E+00    5.9     0.00000353     -2678.0146008091 -2.19E-06
   480 OT SD       0.15E+00    5.9     0.00000353     -2678.0146029967 -2.19E-06
   481 OT SD       0.15E+00    6.0     0.00000353     -2678.0146051848 -2.19E-06
   482 OT SD       0.15E+00    5.9     0.00000353     -2678.0146073734 -2.19E-06
   483 OT SD       0.15E+00    6.0     0.00000353     -2678.0146095624 -2.19E-06
   484 OT SD       0.15E+00    6.0     0.00000354     -2678.0146117519 -2.19E-06
   485 OT SD       0.15E+00    5.9     0.00000354     -2678.0146139418 -2.19E-06
 Singular DIIS matrix
   486 OT SD       0.15E+00    5.9     0.00000354     -2678.0146161321 -2.19E-06
   487 OT SD       0.15E+00    5.9     0.00000354     -2678.0146183229 -2.19E-06
   488 OT SD       0.15E+00    7.0     0.00000354     -2678.0146205142 -2.19E-06
   489 OT SD       0.15E+00    6.1     0.00000354     -2678.0146227059 -2.19E-06
   490 OT SD       0.15E+00    6.1     0.00000354     -2678.0146248981 -2.19E-06
   491 OT SD       0.15E+00    6.1     0.00000354     -2678.0146270907 -2.19E-06
 Singular DIIS matrix
   492 OT SD       0.15E+00    6.0     0.00000354     -2678.0146292837 -2.19E-06
   493 OT SD       0.15E+00    6.1     0.00000354     -2678.0146314773 -2.19E-06
   494 OT SD       0.15E+00    6.3     0.00000354     -2678.0146336712 -2.19E-06
   495 OT SD       0.15E+00    6.3     0.00000354     -2678.0146358657 -2.19E-06
   496 OT SD       0.15E+00    6.3     0.00000354     -2678.0146380606 -2.19E-06
   497 OT SD       0.15E+00    6.3     0.00000354     -2678.0146402559 -2.20E-06
   498 OT SD       0.15E+00    6.3     0.00000354     -2678.0146424517 -2.20E-06
   499 OT SD       0.15E+00    6.3     0.00000354     -2678.0146446480 -2.20E-06
   500 OT SD       0.15E+00    6.3     0.00000354     -2678.0146468447 -2.20E-06
   501 OT SD       0.15E+00    6.3     0.00000354     -2678.0146490419 -2.20E-06
   502 OT SD       0.15E+00    6.3     0.00000354     -2678.0146512395 -2.20E-06
   503 OT SD       0.15E+00    6.3     0.00000354     -2678.0146534376 -2.20E-06
   504 OT SD       0.15E+00    6.3     0.00000354     -2678.0146556362 -2.20E-06
   505 OT SD       0.15E+00    6.3     0.00000354     -2678.0146578352 -2.20E-06
   506 OT SD       0.15E+00    6.3     0.00000354     -2678.0146600347 -2.20E-06
   507 OT SD       0.15E+00    6.2     0.00000354     -2678.0146622347 -2.20E-06
   508 OT SD       0.15E+00    7.1     0.00000354     -2678.0146644351 -2.20E-06
   509 OT SD       0.15E+00    6.3     0.00000354     -2678.0146666359 -2.20E-06
   510 OT SD       0.15E+00    6.3     0.00000354     -2678.0146688373 -2.20E-06
   511 OT SD       0.15E+00    6.2     0.00000355     -2678.0146710391 -2.20E-06
   512 OT SD       0.15E+00    6.3     0.00000355     -2678.0146732413 -2.20E-06
   513 OT SD       0.15E+00    6.3     0.00000355     -2678.0146754441 -2.20E-06
   514 OT SD       0.15E+00    6.3     0.00000355     -2678.0146776473 -2.20E-06
   515 OT SD       0.15E+00    6.3     0.00000355     -2678.0146798509 -2.20E-06
   516 OT SD       0.15E+00    6.3     0.00000355     -2678.0146820551 -2.20E-06
   517 OT SD       0.15E+00    6.4     0.00000355     -2678.0146842596 -2.20E-06
   518 OT SD       0.15E+00    6.4     0.00000355     -2678.0146864647 -2.21E-06
   519 OT SD       0.15E+00    6.5     0.00000355     -2678.0146886702 -2.21E-06
   520 OT SD       0.15E+00    6.4     0.00000355     -2678.0146908762 -2.21E-06
   521 OT SD       0.15E+00    6.4     0.00000355     -2678.0146930827 -2.21E-06
   522 OT SD       0.15E+00    6.4     0.00000355     -2678.0146952897 -2.21E-06
   523 OT SD       0.15E+00    6.4     0.00000355     -2678.0146974971 -2.21E-06
   524 OT SD       0.15E+00    6.5     0.00000355     -2678.0146997049 -2.21E-06
   525 OT SD       0.15E+00    6.4     0.00000355     -2678.0147019133 -2.21E-06
   526 OT SD       0.15E+00    6.5     0.00000355     -2678.0147041221 -2.21E-06
   527 OT SD       0.15E+00    6.4     0.00000355     -2678.0147063314 -2.21E-06
   528 OT SD       0.15E+00    6.5     0.00000355     -2678.0147085412 -2.21E-06
   529 OT SD       0.15E+00    6.5     0.00000355     -2678.0147107514 -2.21E-06
   530 OT SD       0.15E+00    6.4     0.00000355     -2678.0147129621 -2.21E-06
   531 OT SD       0.15E+00    6.4     0.00000355     -2678.0147151733 -2.21E-06
   532 OT SD       0.15E+00    6.4     0.00000355     -2678.0147173850 -2.21E-06
   533 OT SD       0.15E+00    6.4     0.00000355     -2678.0147195971 -2.21E-06
   534 OT SD       0.15E+00    6.5     0.00000355     -2678.0147218097 -2.21E-06
   535 OT SD       0.15E+00    6.5     0.00000355     -2678.0147240228 -2.21E-06
   536 OT SD       0.15E+00    6.4     0.00000355     -2678.0147262364 -2.21E-06
   537 OT SD       0.15E+00    6.4     0.00000355     -2678.0147284504 -2.21E-06
   538 OT SD       0.15E+00    6.5     0.00000356     -2678.0147306650 -2.21E-06
   539 OT SD       0.15E+00    6.4     0.00000356     -2678.0147328800 -2.22E-06
   540 OT SD       0.15E+00    6.5     0.00000356     -2678.0147350954 -2.22E-06
   541 OT SD       0.15E+00    6.4     0.00000356     -2678.0147373114 -2.22E-06
   542 OT SD       0.15E+00    6.4     0.00000356     -2678.0147395278 -2.22E-06
   543 OT SD       0.15E+00    6.4     0.00000356     -2678.0147417448 -2.22E-06
   544 OT SD       0.15E+00    6.4     0.00000356     -2678.0147439622 -2.22E-06
   545 OT SD       0.15E+00    6.4     0.00000356     -2678.0147461800 -2.22E-06
   546 OT SD       0.15E+00    6.4     0.00000356     -2678.0147483984 -2.22E-06
   547 OT SD       0.15E+00    7.9     0.00000356     -2678.0147506172 -2.22E-06
 Singular DIIS matrix
   548 OT SD       0.15E+00    7.8     0.00000356     -2678.0147528366 -2.22E-06
   549 OT SD       0.15E+00    6.5     0.00000356     -2678.0147550564 -2.22E-06
   550 OT SD       0.15E+00    6.5     0.00000356     -2678.0147572767 -2.22E-06
   551 OT SD       0.15E+00    6.4     0.00000356     -2678.0147594974 -2.22E-06
   552 OT SD       0.15E+00    6.5     0.00000356     -2678.0147617187 -2.22E-06
   553 OT SD       0.15E+00    6.5     0.00000356     -2678.0147639404 -2.22E-06
   554 OT SD       0.15E+00    6.5     0.00000356     -2678.0147661627 -2.22E-06
   555 OT SD       0.15E+00    6.4     0.00000356     -2678.0147683854 -2.22E-06
   556 OT SD       0.15E+00    6.5     0.00000356     -2678.0147706086 -2.22E-06
   557 OT SD       0.15E+00    6.4     0.00000356     -2678.0147728323 -2.22E-06
 Singular DIIS matrix
   558 OT SD       0.15E+00    6.5     0.00000356     -2678.0147750564 -2.22E-06
 Singular DIIS matrix
   559 OT SD       0.15E+00    6.4     0.00000356     -2678.0147772811 -2.22E-06
   560 OT SD       0.15E+00    6.4     0.00000356     -2678.0147795063 -2.23E-06
   561 OT SD       0.15E+00    6.4     0.00000356     -2678.0147817319 -2.23E-06
 Singular DIIS matrix
   562 OT SD       0.15E+00    6.4     0.00000356     -2678.0147839580 -2.23E-06
   563 OT SD       0.15E+00    6.4     0.00000357     -2678.0147861846 -2.23E-06
   564 OT SD       0.15E+00    6.4     0.00000357     -2678.0147884117 -2.23E-06
   565 OT SD       0.15E+00    6.5     0.00000357     -2678.0147906393 -2.23E-06
   566 OT SD       0.15E+00    6.5     0.00000357     -2678.0147928674 -2.23E-06
   567 OT SD       0.15E+00    6.4     0.00000357     -2678.0147950960 -2.23E-06
   568 OT SD       0.15E+00    6.4     0.00000357     -2678.0147973251 -2.23E-06
   569 OT SD       0.15E+00    6.5     0.00000357     -2678.0147995546 -2.23E-06
   570 OT SD       0.15E+00    6.4     0.00000357     -2678.0148017847 -2.23E-06
   571 OT SD       0.15E+00    6.5     0.00000357     -2678.0148040152 -2.23E-06
   572 OT SD       0.15E+00    6.4     0.00000357     -2678.0148062463 -2.23E-06
   573 OT SD       0.15E+00    6.4     0.00000357     -2678.0148084778 -2.23E-06
   574 OT SD       0.15E+00    6.4     0.00000357     -2678.0148107098 -2.23E-06
   575 OT SD       0.15E+00    6.5     0.00000357     -2678.0148129424 -2.23E-06
   576 OT SD       0.15E+00    6.4     0.00000357     -2678.0148151754 -2.23E-06
   577 OT SD       0.15E+00    6.5     0.00000357     -2678.0148174089 -2.23E-06
   578 OT SD       0.15E+00    6.4     0.00000357     -2678.0148196429 -2.23E-06
   579 OT SD       0.15E+00    6.4     0.00000357     -2678.0148218774 -2.23E-06
   580 OT SD       0.15E+00    6.4     0.00000357     -2678.0148241124 -2.24E-06
   581 OT SD       0.15E+00    6.4     0.00000357     -2678.0148263479 -2.24E-06
   582 OT SD       0.15E+00    6.5     0.00000357     -2678.0148285839 -2.24E-06
   583 OT SD       0.15E+00    6.4     0.00000357     -2678.0148308204 -2.24E-06
   584 OT SD       0.15E+00    6.5     0.00000357     -2678.0148330574 -2.24E-06
   585 OT SD       0.15E+00    6.4     0.00000357     -2678.0148352949 -2.24E-06
   586 OT SD       0.15E+00    6.4     0.00000357     -2678.0148375329 -2.24E-06
   587 OT SD       0.15E+00    6.4     0.00000357     -2678.0148397714 -2.24E-06
   588 OT SD       0.15E+00    6.4     0.00000357     -2678.0148420104 -2.24E-06
   589 OT SD       0.15E+00    6.4     0.00000358     -2678.0148442499 -2.24E-06
   590 OT SD       0.15E+00    6.4     0.00000358     -2678.0148464899 -2.24E-06
   591 OT SD       0.15E+00    6.5     0.00000358     -2678.0148487304 -2.24E-06
   592 OT SD       0.15E+00    6.5     0.00000358     -2678.0148509714 -2.24E-06
   593 OT SD       0.15E+00    6.5     0.00000358     -2678.0148532129 -2.24E-06
   594 OT SD       0.15E+00    6.4     0.00000358     -2678.0148554549 -2.24E-06
   595 OT SD       0.15E+00    7.0     0.00000358     -2678.0148576974 -2.24E-06
 Singular DIIS matrix
   596 OT SD       0.15E+00    6.4     0.00000358     -2678.0148599404 -2.24E-06
 Singular DIIS matrix
   597 OT SD       0.15E+00    6.4     0.00000358     -2678.0148621839 -2.24E-06
   598 OT SD       0.15E+00    6.4     0.00000358     -2678.0148644279 -2.24E-06
   599 OT SD       0.15E+00    6.4     0.00000358     -2678.0148666724 -2.24E-06
   600 OT SD       0.15E+00    6.5     0.00000358     -2678.0148689174 -2.25E-06
   601 OT SD       0.15E+00    6.5     0.00000358     -2678.0148711630 -2.25E-06
   602 OT SD       0.15E+00    6.4     0.00000358     -2678.0148734090 -2.25E-06
   603 OT SD       0.15E+00    6.5     0.00000358     -2678.0148756556 -2.25E-06
   604 OT SD       0.15E+00    6.4     0.00000358     -2678.0148779026 -2.25E-06
   605 OT SD       0.15E+00    6.4     0.00000358     -2678.0148801502 -2.25E-06
   606 OT SD       0.15E+00    6.4     0.00000358     -2678.0148823982 -2.25E-06
   607 OT SD       0.15E+00    6.4     0.00000358     -2678.0148846468 -2.25E-06
   608 OT SD       0.15E+00    6.5     0.00000358     -2678.0148868959 -2.25E-06
   609 OT SD       0.15E+00    6.4     0.00000358     -2678.0148891455 -2.25E-06
   610 OT SD       0.15E+00    6.5     0.00000358     -2678.0148913956 -2.25E-06
   611 OT SD       0.15E+00    6.4     0.00000358     -2678.0148936462 -2.25E-06
   612 OT SD       0.15E+00    6.5     0.00000358     -2678.0148958973 -2.25E-06
   613 OT SD       0.15E+00    6.4     0.00000359     -2678.0148981490 -2.25E-06
   614 OT SD       0.15E+00    6.4     0.00000359     -2678.0149004011 -2.25E-06
   615 OT SD       0.15E+00    6.4     0.00000359     -2678.0149026537 -2.25E-06
   616 OT SD       0.15E+00    6.4     0.00000359     -2678.0149049069 -2.25E-06
   617 OT SD       0.15E+00    6.5     0.00000359     -2678.0149071606 -2.25E-06
   618 OT SD       0.15E+00    6.4     0.00000359     -2678.0149094148 -2.25E-06
   619 OT SD       0.15E+00    6.5     0.00000359     -2678.0149116695 -2.25E-06
   620 OT SD       0.15E+00    6.4     0.00000359     -2678.0149139247 -2.26E-06
   621 OT SD       0.15E+00    6.4     0.00000359     -2678.0149161804 -2.26E-06
   622 OT SD       0.15E+00    6.4     0.00000359     -2678.0149184366 -2.26E-06
   623 OT SD       0.15E+00    6.4     0.00000359     -2678.0149206934 -2.26E-06
   624 OT SD       0.15E+00    6.4     0.00000359     -2678.0149229507 -2.26E-06
   625 OT DIIS     0.15E+00    6.4     0.00000359     -2678.0149252085 -2.26E-06
   626 OT DIIS     0.15E+00    6.4     0.00112585     -2674.9296098891  3.09E+00
   627 OT SD       0.15E+00    6.4     0.00001887     -2678.0123818709 -3.08E+00
   628 OT SD       0.15E+00    6.4     0.00001718     -2678.0124414306 -5.96E-05
   629 OT SD       0.15E+00    6.5     0.00001576     -2678.0124909890 -4.96E-05
   630 OT DIIS     0.15E+00    6.4     0.00001455     -2678.0125327979 -4.18E-05
   631 OT DIIS     0.15E+00    6.5     0.00001337     -2678.0128225977 -2.90E-04
   632 OT SD       0.15E+00    6.4     0.00000382     -2678.0148994555 -2.08E-03
   633 OT SD       0.15E+00    6.4     0.00000380     -2678.0149020060 -2.55E-06
   634 OT DIIS     0.15E+00    6.4     0.00000378     -2678.0149045236 -2.52E-06
   635 OT DIIS     0.15E+00    6.4     0.00000647     -2678.0157542875 -8.50E-04
   636 OT DIIS     0.15E+00    6.4     0.00001871     -2678.0169793141 -1.23E-03
   637 OT DIIS     0.15E+00    6.5     0.00000842     -2678.0154817954  1.50E-03
   638 OT SD       0.15E+00    6.4     0.00000804     -2678.0161395458 -6.58E-04
   639 OT SD       0.15E+00    6.4     0.00000745     -2678.0161504422 -1.09E-05
   640 OT SD       0.15E+00    6.5     0.00000695     -2678.0161598254 -9.38E-06
   641 OT DIIS     0.15E+00    6.5     0.00000654     -2678.0161680320 -8.21E-06
   642 OT SD       0.15E+00    6.5     0.00000551     -2678.0165490408 -3.81E-04
   643 OT SD       0.15E+00    6.4     0.00000527     -2678.0165542427 -5.20E-06
   644 OT SD       0.15E+00    6.4     0.00000507     -2678.0165590133 -4.77E-06
   645 OT SD       0.15E+00    6.5     0.00000491     -2678.0165634482 -4.43E-06
   646 OT SD       0.15E+00    6.4     0.00000478     -2678.0165676189 -4.17E-06
   647 OT DIIS     0.15E+00    6.5     0.00000467     -2678.0165715794 -3.96E-06
   648 OT DIIS     0.15E+00    6.5     0.00085850     -2676.1639676485  1.85E+00
   649 OT SD       0.15E+00    6.4     0.00000436     -2678.0172269792 -1.85E+00
   650 OT SD       0.15E+00    6.4     0.00000429     -2678.0172302753 -3.30E-06
   651 OT SD       0.15E+00    6.4     0.00000423     -2678.0172334738 -3.20E-06
   652 OT DIIS     0.15E+00    6.4     0.00000419     -2678.0172365980 -3.12E-06
   653 OT DIIS     0.15E+00    6.4     0.00000398     -2678.0173635016 -1.27E-04
   654 OT DIIS     0.15E+00    6.4     0.00000398     -2678.0174585729 -9.51E-05
   655 OT SD       0.15E+00    6.5     0.00000432     -2678.0180125625 -5.54E-04
   656 OT SD       0.15E+00    6.4     0.00000426     -2678.0180158087 -3.25E-06
   657 OT SD       0.15E+00    6.5     0.00000421     -2678.0180189635 -3.15E-06
   658 OT SD       0.15E+00    6.4     0.00000417     -2678.0180220477 -3.08E-06
   659 OT SD       0.15E+00    6.5     0.00000413     -2678.0180250768 -3.03E-06
   660 OT DIIS     0.15E+00    6.4     0.00000411     -2678.0180280624 -2.99E-06
   661 OT DIIS     0.15E+00    6.5     0.00000389     -2678.0182979215 -2.70E-04
   662 OT DIIS     0.15E+00    6.4     0.00000389     -2678.0183397304 -4.18E-05
   663 OT DIIS     0.15E+00    6.4     0.00000387     -2678.0184181541 -7.84E-05
   664 OT DIIS     0.15E+00    6.4     0.00000387     -2678.0184557608 -3.76E-05
   665 OT SD       0.15E+00    6.4     0.00000387     -2678.0184590412 -3.28E-06
   666 OT DIIS     0.15E+00    6.5     0.00000387     -2678.0184616680 -2.63E-06
   667 OT SD       0.15E+00    6.5     0.00000389     -2678.0188492742 -3.88E-04
   668 OT DIIS     0.15E+00    6.5     0.00000387     -2678.0188519188 -2.64E-06
   669 OT SD       0.15E+00    6.4     0.00000377     -2678.0190718121 -2.20E-04
   670 OT DIIS     0.15E+00    6.4     0.00000377     -2678.0190743048 -2.49E-06
   671 OT SD       0.15E+00    6.4     0.00000368     -2678.0195121611 -4.38E-04
   672 OT DIIS     0.15E+00    6.4     0.00000367     -2678.0195145297 -2.37E-06
   673 OT DIIS     0.15E+00    6.4     0.00000677     -2678.0195373343 -2.28E-05
   674 OT DIIS     0.15E+00    6.4     0.00000363     -2678.0200133718 -4.76E-04
   675 OT SD       0.15E+00    6.5     0.00000360     -2678.0200736116 -6.02E-05
   676 OT DIIS     0.15E+00    6.5     0.00000358     -2678.0200758786 -2.27E-06
   677 OT DIIS     0.15E+00    6.4     0.00000550     -2678.0201638522 -8.80E-05
   678 OT SD       0.15E+00    6.5     0.00000359     -2678.0201422623  2.16E-05
   679 OT SD       0.15E+00    6.4     0.00000357     -2678.0201445146 -2.25E-06
   680 OT DIIS     0.15E+00    6.4     0.00000356     -2678.0201467456 -2.23E-06
   681 OT DIIS     0.15E+00    6.4     0.00000340     -2678.0202227982 -7.61E-05
   682 OT DIIS     0.15E+00    6.4     0.00000340     -2678.0202274062 -4.61E-06
   683 OT DIIS     0.15E+00    6.4     0.00000338     -2678.0202527365 -2.53E-05
   684 OT DIIS     0.15E+00    6.5     0.00000338     -2678.0202561204 -3.38E-06
   685 OT DIIS     0.15E+00    6.5     0.00000337     -2678.0202819420 -2.58E-05
   686 OT DIIS     0.15E+00    6.4     0.00000336     -2678.0202884639 -6.52E-06
   687 OT DIIS     0.15E+00    6.5     0.00000335     -2678.0203839587 -9.55E-05
   688 OT DIIS     0.15E+00    6.5     0.00000332     -2678.0205662928 -1.82E-04
   689 OT DIIS     0.15E+00    6.4     0.00000331     -2678.0205913894 -2.51E-05
   690 OT SD       0.15E+00    6.4     0.00000329     -2678.0208463782 -2.55E-04
   691 OT DIIS     0.15E+00    6.4     0.00000328     -2678.0208482685 -1.89E-06
   692 OT DIIS     0.15E+00    6.5     0.00000325     -2678.0212433375 -3.95E-04
   693 OT SD       0.15E+00    6.4     0.00000325     -2678.0212523056 -8.97E-06
   694 OT DIIS     0.15E+00    6.4     0.00000322     -2678.0212541468 -1.84E-06
   695 OT DIIS     0.15E+00    6.4     0.00000326     -2678.0214353340 -1.81E-04
   696 OT SD       0.15E+00    6.4     0.00000363     -2678.0217039353 -2.69E-04
   697 OT DIIS     0.15E+00    6.4     0.00000352     -2678.0217062066 -2.27E-06
   698 OT DIIS     0.15E+00    6.4     0.00000316     -2678.0218494641 -1.43E-04
   699 OT DIIS     0.15E+00    6.4     0.00000389     -2678.0218556884 -6.22E-06
   700 OT DIIS     0.15E+00    6.5     0.00000297     -2678.0218747863 -1.91E-05
   701 OT DIIS     0.15E+00    6.4     0.00000381     -2678.0219704171 -9.56E-05
   702 OT DIIS     0.15E+00    6.4     0.00000293     -2678.0220579514 -8.75E-05
   703 OT SD       0.15E+00    6.5     0.00000310     -2678.0221686903 -1.11E-04
   704 OT DIIS     0.15E+00    6.5     0.00000306     -2678.0221703629 -1.67E-06
   705 OT DIIS     0.15E+00    6.4     0.00000286     -2678.0222257737 -5.54E-05
   706 OT DIIS     0.15E+00    6.5     0.00000285     -2678.0222400584 -1.43E-05
   707 OT SD       0.15E+00    6.4     0.00000280     -2678.0223987154 -1.59E-04
   708 OT DIIS     0.15E+00    6.4     0.00000280     -2678.0224000878 -1.37E-06
   709 OT DIIS     0.15E+00    6.4     0.00000277     -2678.0225499696 -1.50E-04
   710 OT SD       0.15E+00    6.4     0.00000274     -2678.0226419147 -9.19E-05
   711 OT DIIS     0.15E+00    6.5     0.00000274     -2678.0226432318 -1.32E-06
   712 OT SD       0.15E+00    6.4     0.00000269     -2678.0228845744 -2.41E-04
   713 OT DIIS     0.15E+00    6.5     0.00000268     -2678.0228858383 -1.26E-06
   714 OT DIIS     0.15E+00    6.5     0.00000272     -2678.0230358882 -1.50E-04
   715 OT SD       0.15E+00    6.5     0.00000286     -2678.0230965756 -6.07E-05
   716 OT SD       0.15E+00    6.5     0.00000282     -2678.0230980007 -1.43E-06
   717 OT DIIS     0.15E+00    6.4     0.00000279     -2678.0230993883 -1.39E-06
   718 OT DIIS     0.15E+00    6.4     0.00000261     -2678.0231784532 -7.91E-05
   719 OT DIIS     0.15E+00    6.4     0.00000258     -2678.0232266224 -4.82E-05
   720 OT DIIS     0.15E+00    6.4     0.00000259     -2678.0233141783 -8.76E-05
   721 OT DIIS     0.15E+00    6.4     0.00000256     -2678.0233630975 -4.89E-05
   722 OT DIIS     0.15E+00    6.5     0.00000255     -2678.0233790616 -1.60E-05
   723 OT SD       0.15E+00    6.4     0.00000280     -2678.0236684735 -2.89E-04
   724 OT SD       0.15E+00    6.5     0.00000275     -2678.0236698357 -1.36E-06
   725 OT DIIS     0.15E+00    6.4     0.00000270     -2678.0236711472 -1.31E-06
   726 OT DIIS     0.15E+00    6.4     0.00000243     -2678.0237987587 -1.28E-04
   727 OT DIIS     0.15E+00    6.4     0.00000243     -2678.0238042834 -5.52E-06
   728 OT DIIS     0.15E+00    6.3     0.00000246     -2678.0238870675 -8.28E-05
   729 OT DIIS     0.15E+00    6.4     0.00000267     -2678.0239498676 -6.28E-05
   730 OT DIIS     0.15E+00    6.4     0.00000242     -2678.0240208622 -7.10E-05
   731 OT SD       0.15E+00    6.5     0.00000266     -2678.0241146183 -9.38E-05
   732 OT DIIS     0.15E+00    6.5     0.00000261     -2678.0241158458 -1.23E-06
   733 OT DIIS     0.15E+00    8.8     0.00000238     -2678.0241852953 -6.94E-05
   734 OT DIIS     0.15E+00    6.9     0.00000233     -2678.0241863690 -1.07E-06
   735 OT DIIS     0.15E+00    6.5     0.00000230     -2678.0242771011 -9.07E-05
   736 OT DIIS     0.15E+00    6.5     0.00000394     -2678.0243080792 -3.10E-05
   737 OT DIIS     0.15E+00    6.5     0.00000224     -2678.0244230146 -1.15E-04
   738 OT DIIS     0.15E+00    6.4     0.00000226     -2678.0244300380 -7.02E-06
   739 OT DIIS     0.15E+00    6.5     0.00000223     -2678.0244559635 -2.59E-05
   740 OT DIIS     0.15E+00    6.5     0.00000224     -2678.0245917319 -1.36E-04
   741 OT SD       0.15E+00    6.5     0.00000219     -2678.0246460500 -5.43E-05
   742 OT DIIS     0.15E+00    6.4     0.00000218     -2678.0246468869 -8.37E-07
   743 OT DIIS     0.15E+00    6.5     0.00000284     -2678.0247420100 -9.51E-05
   744 OT SD       0.15E+00    6.4     0.00000219     -2678.0248638128 -1.22E-04
   745 OT DIIS     0.15E+00    6.4     0.00000217     -2678.0248646522 -8.39E-07
   746 OT DIIS     0.15E+00    6.4     0.00000259     -2678.0248959433 -3.13E-05
   747 OT SD       0.15E+00    6.5     0.00000204     -2678.0249805222 -8.46E-05
   748 OT DIIS     0.15E+00    6.5     0.00000203     -2678.0249812499 -7.28E-07
   749 OT DIIS     0.15E+00    6.4     0.00000200     -2678.0251269221 -1.46E-04
   750 OT DIIS     0.15E+00    6.5     0.00000198     -2678.0251717354 -4.48E-05
   751 OT SD       0.15E+00    6.5     0.00000198     -2678.0251748382 -3.10E-06
   752 OT SD       0.15E+00    6.5     0.00000197     -2678.0251755224 -6.84E-07
   753 OT DIIS     0.15E+00    6.5     0.00000196     -2678.0251761981 -6.76E-07
   754 OT SD       0.15E+00    6.4     0.00000200     -2678.0253781140 -2.02E-04
   755 OT DIIS     0.15E+00    6.5     0.00000196     -2678.0253788073 -6.93E-07
   756 OT DIIS     0.15E+00    6.4     0.00000181     -2678.0254314224 -5.26E-05
   757 OT DIIS     0.15E+00    6.5     0.00000180     -2678.0254334837 -2.06E-06
   758 OT SD       0.15E+00    6.5     0.00000180     -2678.0254610231 -2.75E-05
   759 OT DIIS     0.15E+00    6.5     0.00000179     -2678.0254615875 -5.64E-07
   760 OT DIIS     0.15E+00    6.4     0.00000174     -2678.0255371750 -7.56E-05
   761 OT DIIS     0.15E+00    6.5     0.00000174     -2678.0255688252 -3.17E-05
   762 OT DIIS     0.15E+00    6.4     0.00000172     -2678.0255892797 -2.05E-05
   763 OT DIIS     0.15E+00    6.4     0.00000171     -2678.0255976065 -8.33E-06
   764 OT DIIS     0.15E+00    6.5     0.00000169     -2678.0256257320 -2.81E-05
   765 OT DIIS     0.15E+00    6.5     0.00000169     -2678.0256574899 -3.18E-05
   766 OT SD       0.15E+00    6.4     0.00000167     -2678.0256627976 -5.31E-06
   767 OT DIIS     0.15E+00    6.5     0.00000167     -2678.0256632870 -4.89E-07
   768 OT DIIS     0.15E+00    6.5     0.00000163     -2678.0257618108 -9.85E-05
   769 OT DIIS     0.15E+00    6.5     0.00000161     -2678.0257618683 -5.76E-08
   770 OT DIIS     0.15E+00    6.4     0.00000160     -2678.0257706145 -8.75E-06
   771 OT SD       0.15E+00    6.5     0.00000155     -2678.0258677957 -9.72E-05
   772 OT DIIS     0.15E+00    6.4     0.00000154     -2678.0258682155 -4.20E-07
   773 OT DIIS     0.15E+00    6.5     0.00000151     -2678.0259533811 -8.52E-05
   774 OT DIIS     0.15E+00    6.5     0.00000153     -2678.0259612360 -7.85E-06
   775 OT DIIS     0.15E+00    6.4     0.00000151     -2678.0259688623 -7.63E-06
   776 OT DIIS     0.15E+00    6.4     0.00000150     -2678.0259734553 -4.59E-06
   777 OT SD       0.15E+00    6.4     0.00000150     -2678.0260501869 -7.67E-05
   778 OT DIIS     0.15E+00    6.5     0.00000149     -2678.0260505817 -3.95E-07
   779 OT DIIS     0.15E+00    9.1     0.00000145     -2678.0261158756 -6.53E-05
   780 OT DIIS     0.15E+00    6.9     0.00000163     -2678.0261179659 -2.09E-06
   781 OT DIIS     0.15E+00    6.5     0.00000141     -2678.0261573803 -3.94E-05
   782 OT DIIS     0.15E+00    6.5     0.00000157     -2678.0262253333 -6.80E-05
   783 OT SD       0.15E+00    6.4     0.00000139     -2678.0262694130 -4.41E-05
   784 OT SD       0.15E+00    6.4     0.00000137     -2678.0262697477 -3.35E-07
   785 OT DIIS     0.15E+00    6.5     0.00000136     -2678.0262700762 -3.28E-07
   786 OT SD       0.15E+00    6.4     0.00000174     -2678.0262912425 -2.12E-05
   787 OT DIIS     0.15E+00    6.4     0.00000167     -2678.0262917649 -5.22E-07
   788 OT DIIS     0.15E+00    6.5     0.00000129     -2678.0263434856 -5.17E-05
   789 OT DIIS     0.15E+00    6.5     0.00000125     -2678.0263608904 -1.74E-05
   790 OT DIIS     0.15E+00    6.4     0.00000125     -2678.0263703719 -9.48E-06
   791 OT DIIS     0.15E+00    6.4     0.00000123     -2678.0263824057 -1.20E-05
   792 OT DIIS     0.15E+00    6.4     0.00000120     -2678.0264177158 -3.53E-05
   793 OT DIIS     0.15E+00    6.4     0.00000120     -2678.0264224206 -4.70E-06
   794 OT DIIS     0.15E+00    6.5     0.00000117     -2678.0264661554 -4.37E-05
   795 OT SD       0.15E+00    6.4     0.00000116     -2678.0264769064 -1.08E-05
   796 OT DIIS     0.15E+00    6.5     0.00000116     -2678.0264771426 -2.36E-07
   797 OT SD       0.15E+00    6.5     0.00000113     -2678.0265312667 -5.41E-05
   798 OT DIIS     0.15E+00    6.5     0.00000113     -2678.0265314917 -2.25E-07
   799 OT DIIS     0.15E+00    6.5     0.00000108     -2678.0265661232 -3.46E-05
   800 OT DIIS     0.15E+00    6.4     0.00000108     -2678.0265675352 -1.41E-06
   801 OT DIIS     0.15E+00    6.5     0.00000106     -2678.0265829227 -1.54E-05
   802 OT DIIS     0.15E+00    6.4     0.00000109     -2678.0265842584 -1.34E-06
   803 OT DIIS     0.15E+00    6.5     0.00000106     -2678.0265958205 -1.16E-05
   804 OT SD       0.15E+00    6.5     0.00000103     -2678.0266175554 -2.17E-05
   805 OT DIIS     0.15E+00    6.5     0.00000102     -2678.0266177402 -1.85E-07
   806 OT SD       0.15E+00    6.5     0.00000101     -2678.0266610640 -4.33E-05
   807 OT DIIS     0.15E+00    6.4     0.00000100     -2678.0266612405 -1.77E-07

  *** SCF run converged in   807 steps ***


  Electronic density on regular grids:      -1247.9999981472        0.0000018528
  Core density on regular grids:             1247.9999999438       -0.0000000562
  Total charge density on r-space grids:        0.0000017965
  Total charge density g-space grids:           0.0000017965

  Overlap energy of the core charge distribution:               0.00000091548408
  Self energy of the core charge distribution:              -6918.15617949107309
  Core Hamiltonian energy:                                   2096.75244911575646
  Hartree energy:                                            2815.99175497406713
  Exchange-correlation energy:                               -672.33889378197898
  Dispersion energy:                                           -0.27579297279057

  Total energy:                                             -2678.02666124053530

  Integrated absolute spin density  :                               0.0012771390
  Ideal and single determinant S**2 :                    0.000000       0.000000

 ENERGY| Total FORCE_EVAL ( QS ) energy [a.u.]:            -2678.026714066500062

 -------------------------------------------------------------------------------
 -                                                                             -
 -                                DBCSR STATISTICS                             -
 -                                                                             -
 -------------------------------------------------------------------------------
 COUNTER                                    TOTAL       BLAS       SMM       ACC
 flops     1 x    16 x    16               319488       0.0%    100.0%      0.0%
 flops     4 x    16 x    16               638976       0.0%    100.0%      0.0%
 flops     1 x    32 x    32             24281088       0.0%    100.0%      0.0%
 flops     4 x    32 x    32             48562176       0.0%    100.0%      0.0%
 flops     1 x     1 x    48           1727402688       0.0%    100.0%      0.0%
 flops     1 x    16 x     1           2273000640       0.0%    100.0%      0.0%
 flops     1 x     4 x    48           4075806720       0.0%    100.0%      0.0%
 flops     4 x     1 x    48           4077670656       0.0%    100.0%      0.0%
 flops     1 x     1 x    32           4606407168       0.0%    100.0%      0.0%
 flops     4 x    16 x     1           5440690816       0.0%    100.0%      0.0%
 flops     1 x    16 x     4           5440690816       0.0%    100.0%      0.0%
 flops     4 x     4 x    48           9834126336       0.0%    100.0%      0.0%
 flops     1 x     4 x    32          10868817920       0.0%    100.0%      0.0%
 flops     4 x     1 x    32          10873788416       0.0%    100.0%      0.0%
 flops   144 x   112 x    57          11866272768       0.0%    100.0%      0.0%
 flops     4 x    16 x     4          12865618944       0.0%    100.0%      0.0%
 flops   144 x   128 x    57          13561454592       0.0%    100.0%      0.0%
 flops     1 x     1 x    64          16122425088       0.0%    100.0%      0.0%
 flops   234 x   112 x    57          19312570368       0.0%    100.0%      0.0%
 flops   234 x   128 x    57          22071508992       0.0%    100.0%      0.0%
 flops   144 x   112 x    48          22478045184       0.0%    100.0%      0.0%
 flops   144 x   128 x    48          25689194496       0.0%    100.0%      0.0%
 flops     4 x     4 x    32          26224336896       0.0%    100.0%      0.0%
 flops   144 x   112 x    81          33725196288       0.0%    100.0%      0.0%
 flops     1 x     4 x    64          38040862720       0.0%    100.0%      0.0%
 flops     4 x     1 x    64          38058259456       0.0%    100.0%      0.0%
 flops   144 x   128 x    81          38543081472       0.0%    100.0%      0.0%
 flops   160 x   112 x    57          39554242560       0.0%    100.0%      0.0%
 flops   144 x    96 x    57          40684363776       0.0%    100.0%      0.0%
 flops   160 x   128 x    57          45204848640       0.0%    100.0%      0.0%
 flops   144 x   112 x    87          54335038464       0.0%    100.0%      0.0%
 flops   234 x   112 x    81          54888357888       0.0%    100.0%      0.0%
 flops   144 x   112 x    32          59941453824       0.0%    100.0%      0.0%
 flops   144 x   128 x    87          62097186816       0.0%    100.0%      0.0%
 flops   234 x   128 x    81          62729551872       0.0%    100.0%      0.0%
 flops   234 x    96 x    57          66214526976       0.0%    100.0%      0.0%
 flops   144 x   128 x    32          68504518656       0.0%    100.0%      0.0%
 flops   160 x   112 x    48          74926817280       0.0%    100.0%      0.0%
 flops   144 x    96 x    48          77067583488       0.0%    100.0%      0.0%
 flops   234 x   112 x    48          81175191552       0.0%    100.0%      0.0%
 flops   160 x   128 x    48          85630648320       0.0%    100.0%      0.0%
 flops     1 x    32 x     1          86374024320       0.0%    100.0%      0.0%
 flops   234 x   112 x    87          88431243264       0.0%    100.0%      0.0%
 flops     4 x     4 x    64          91785179136       0.0%    100.0%      0.0%
 flops   234 x   128 x    48          92771647488       0.0%    100.0%      0.0%
 flops   234 x   128 x    87         101064278016       0.0%    100.0%      0.0%
 flops   160 x   112 x    81         112417320960       0.0%    100.0%      0.0%
 flops   144 x    96 x    81         115629244416       0.0%    100.0%      0.0%
 flops   160 x   128 x    81         128476938240       0.0%    100.0%      0.0%
 flops   160 x    96 x    57         135614545920       0.0%    100.0%      0.0%
 flops   160 x   112 x    87         181116794880       0.0%    100.0%      0.0%
 flops   144 x    96 x    87         186291560448       0.0%    100.0%      0.0%
 flops   234 x    96 x    81         188188655616       0.0%    100.0%      0.0%
 flops   160 x   112 x    32         199804846080       0.0%    100.0%      0.0%
 flops   144 x    96 x    32         205513555968       0.0%    100.0%      0.0%
 flops     4 x    32 x     1         206746251008       0.0%    100.0%      0.0%
 flops     1 x    32 x     4         206746251008       0.0%    100.0%      0.0%
 flops   160 x   128 x    87         206990622720       0.0%    100.0%      0.0%
 flops   144 x   112 x    64         209795088384       0.0%    100.0%      0.0%
 flops   234 x   112 x    32         216467177472       0.0%    100.0%      0.0%
 flops   160 x   128 x    32         228348395520       0.0%    100.0%      0.0%
 flops   144 x   128 x    64         239765815296       0.0%    100.0%      0.0%
 flops   234 x   128 x    32         247391059968       0.0%    100.0%      0.0%
 flops   160 x    96 x    48         256891944960       0.0%    100.0%      0.0%
 flops   234 x    96 x    48         278314942464       0.0%    100.0%      0.0%
 flops   234 x    96 x    87         303192834048       0.0%    100.0%      0.0%
 flops   160 x    96 x    81         385430814720       0.0%    100.0%      0.0%
 flops     4 x    32 x     4         488893519872       0.0%    100.0%      0.0%
 flops   160 x    96 x    87         620971868160       0.0%    100.0%      0.0%
 flops   160 x    96 x    32         685045186560       0.0%    100.0%      0.0%
 flops   160 x   112 x    64         699316961280       0.0%    100.0%      0.0%
 flops   144 x    96 x    64         719297445888       0.0%    100.0%      0.0%
 flops   234 x    96 x    32         742173179904       0.0%    100.0%      0.0%
 flops   234 x   112 x    64         757635121152       0.0%    100.0%      0.0%
 flops   160 x   128 x    64         799219384320       0.0%    100.0%      0.0%
 flops   234 x   128 x    64         865868709888       0.0%    100.0%      0.0%
 flops   160 x    96 x    64        2397658152960       0.0%    100.0%      0.0%
 flops   234 x    96 x    64        2597606129664       0.0%    100.0%      0.0%
 flops inhomo. stacks               3733430538240     100.0%      0.0%      0.0%
 flops total                        21.257483E+12      17.6%     82.4%      0.0%
 flops max/rank                      1.103961E+12      17.7%     82.3%      0.0%
 matmuls inhomo. stacks                   1162080     100.0%      0.0%      0.0%
 matmuls total                         4179802208       0.0%    100.0%      0.0%
 number of processed stacks              16609876       7.0%     93.0%      0.0%
 average stack size                                     1.0     270.5       0.0
 marketing flops                    24.715003E+12
 -------------------------------------------------------------------------------
 # multiplications                          35515
 max memory usage/rank               1.015681E+09
 # max total images/rank                        3
 # max 3D layers                                1
 # MPI messages exchanged                16194840
 MPI messages size (bytes):
  total size                         1.084300E+12
  min size                           0.000000E+00
  max size                         168.480000E+03
  average size                      66.953430E+03
 MPI breakdown and total messages size (bytes):
             size <=      128                1272                        0
       128 < size <=     8192                  24                   196608
      8192 < size <=    32768             1739216              46763560960
     32768 < size <=   131072            14163448             992458614576
    131072 < size <=  4194304              290880              45377280000
   4194304 < size <= 16777216                   0                        0
  16777216 < size                               0                        0
 -------------------------------------------------------------------------------

 *** WARNING in dbcsr_mm.F:294 :: Using a non-square number of MPI ranks ***
 *** might lead to poor performance. Used ranks: 24 Suggested: 25 49     ***

 -------------------------------------------------------------------------------
 -                                                                             -
 -                      DBCSR MESSAGE PASSING PERFORMANCE                      -
 -                                                                             -
 -------------------------------------------------------------------------------
 ROUTINE             CALLS      AVE VOLUME [Bytes]
 MP_Bcast               79                     12.
 MP_Allreduce       193748                     49.
 MP_Alltoall        114324                  36013.
 MP_ISend          1646502                  34556.
 MP_IRecv          1614264                  33458.
 -------------------------------------------------------------------------------

 -------------------------------------------------------------------------------
 -                                                                             -
 -                                GRID STATISTICS                              -
 -                                                                             -
 -------------------------------------------------------------------------------
 LP    KERNEL             BACKEND                              COUNT     PERCENT
 1     collocate ortho    REF                              269810592      21.98%
 1     integrate ortho    REF                              269806048      21.98%
 0     collocate ortho    REF                              266139040      21.68%
 0     integrate ortho    REF                              265809660      21.65%
 2     integrate ortho    REF                               78112584       6.36%
 2     collocate ortho    REF                               77875040       6.34%
 3     integrate ortho    REF                                  96380       0.01%
 0     collocate general  REF                                  11232       0.00%
 1     integrate general  REF                                  11232       0.00%
 -------------------------------------------------------------------------------

 MEMORY| Estimated peak process memory [MiB]                                 969

 -------------------------------------------------------------------------------
 -                                                                             -
 -                         MESSAGE PASSING PERFORMANCE                         -
 -                                                                             -
 -------------------------------------------------------------------------------

 ROUTINE             CALLS      AVE VOLUME [Bytes]
 MP_Group                4
 MP_Bcast           105669                   4558.
 MP_Allreduce       270425                    500.
 MP_Sync              3228
 MP_Alltoall         29913               51347541.
 MP_SendRecv            92                   3672.
 MP_ISendRecv       148672                 279360.
 MP_Wait            349118
 MP_comm_split        1612
 MP_ISend           181048                 815796.
 MP_IRecv           181048                 815796.
 MP_Recv              1558                 239616.
 -------------------------------------------------------------------------------


 -------------------------------------------------------------------------------
 -                                                                             -
 -                           R E F E R E N C E S                               -
 -                                                                             -
 -------------------------------------------------------------------------------
 
 CP2K version 8.2, the CP2K developers group (2021).
 CP2K is freely available from https://www.cp2k.org/ .

 Kuehne,Thomas D.; Iannuzzi,Marcella; Del Ben,Mauro;
 Rybkin,Vladimir V.; Seewald,Patrick; Stein,Frederick; Laino,Teodoro;
 Khaliullin,Rustam Z.; Schuett,Ole; Schiffmann,Florian; Golze,Dorothea;
 Wilhelm,Jan; Chulkov,Sergey; Bani-Hashemian,Mohammad Hossein;
 Weber,Valery; Borstnik,Urban; Taillefumier,Mathieu;
 Jakobovits,Alice Shoshana; Lazzaro,Alfio; Pabst,Hans; Mueller,Tiziano;
 Schade,Robert; Guidon,Manuel; Andermatt,Samuel; Holmberg,Nico;
 Schenter,Gregory K.; Hehn,Anna; Bussy,Augustin; Belleflamme,Fabian;
 Tabacchi,Gloria; Gloess,Andreas; Lass,Michael; Bethune,Iain;
 Mundy,Christopher J.; Plessl,Christian; Watkins,Matt;
 VandeVondele,Joost; Krack,Matthias; Hutter,Juerg. 
 The Journal of Chemical Physics, 152 (19), (2020). 
 CP2K: An electronic structure and molecular dynamics software package -
 Quickstep: Efficient and accurate electronic structure calculations.
 https://doi.org/10.1063/5.0007045

 Goerigk, Lars; Hansen, Andreas; Bauer, Christoph; Ehrlich, Stephan;
 Najibi, Asim; Grimme, Stefan. , 19 (48), (2017). 
 A look at the density functional theory zoo with the advanced GMTKN55 database
 for general main group thermochemistry, kinetics and noncovalent interactions.
 https://doi.org/10.1039/C7CP04913G

 Schuett, Ole; Messmer, Peter; Hutter, Juerg; VandeVondele, Joost. 
 Electronic Structure Calculations on Graphics Processing Units, John
 Wiley & Sons, Ltd, 173-190 (2016). 
 GPU-Accelerated Sparse Matrix-Matrix Multiplication for
 Linear Scaling Density Functional Theory.
 https://doi.org/10.1002/9781118670712.ch8

 Heinecke, A; Henry, G; Hutchinson, M; Pabst, H. 
 Proceedings of Intl. Supercomputing Conference, 981-991 (2016). 
 LIBXSMM: Accelerating Small Matrix Multiplications
 by Runtime Code Generation.
 https://doi.org/10.1109/SC.2016.83

 Borstnik, U; VandeVondele, J; Weber, V; Hutter, J. 
 PARALLEL COMPUTING, 40 (5-6), 47-58 (2014). 
 Sparse matrix multiplication: The distributed block-compressed sparse
 row library.
 https://doi.org/10.1016/j.parco.2014.03.012

 Hutter, J; Iannuzzi, M; Schiffmann, F; VandeVondele, J. 
 WIREs Comput Mol Sci., 4 (1), 15-25 (2014). 
 CP2K: atomistic simulations of condensed matter systems.
 https://doi.org/10.1002/wcms.1159

 Grimme, S; Ehrlich, S; Goerigk, L. 
 JOURNAL OF COMPUTATIONAL CHEMISTRY, 32, 1456 (2011). 
 Effect of the damping function in dispersion corrected density functional theory.
 https://doi.org/10.1002/jcc.21759

 Grimme, S; Antony, J; Ehrlich, S; Krieg, H. 
 JOURNAL OF CHEMICAL PHYSICS, 132 (15), 154104 (2010). 
 A consistent and accurate ab initio parametrization of density
 functional dispersion correction (DFT-D) for the 94 elements H-Pu.
 https://doi.org/10.1063/1.3382344

 VandeVondele, J; Hutter, J. 
 JOURNAL OF CHEMICAL PHYSICS, 127 (11), 114105 (2007). 
 Gaussian basis sets for accurate calculations on molecular systems in
 gas and condensed phases.
 https://doi.org/10.1063/1.2770708

 Krack, M. 
 THEORETICAL CHEMISTRY ACCOUNTS, 114 (1-3), 145-152 (2005). 
 Pseudopotentials for H to Kr optimized for gradient-corrected
 exchange-correlation functionals.
 https://doi.org/10.1007/s00214-005-0655-y

 VandeVondele, J; Krack, M; Mohamed, F; Parrinello, M; Chassaing, T;
 Hutter, J. COMPUTER PHYSICS COMMUNICATIONS, 167 (2), 103-128 (2005). 
 QUICKSTEP: Fast and accurate density functional calculations using a
 mixed Gaussian and plane waves approach.
 https://doi.org/10.1016/j.cpc.2004.12.014

 Frigo, M; Johnson, SG. 
 PROCEEDINGS OF THE IEEE, 93 (2), 216-231 (2005). 
 The design and implementation of FFTW3.
 https://doi.org/10.1109/JPROC.2004.840301

 VandeVondele, J; Hutter, J. 
 JOURNAL OF CHEMICAL PHYSICS, 118 (10), 4365-4369 (2003). 
 An efficient orbital transformation method for electronic structure
 calculations.
 https://doi.org/10.1063/1.1543154

 Hartwigsen, C; Goedecker, S; Hutter, J. 
 PHYSICAL REVIEW B, 58 (7), 3641-3662 (1998). 
 Relativistic separable dual-space Gaussian pseudopotentials from H to Rn.
 https://doi.org/10.1103/PhysRevB.58.3641

 Lippert, G; Hutter, J; Parrinello, M. 
 MOLECULAR PHYSICS, 92 (3), 477-487 (1997). 
 A hybrid Gaussian and plane wave density functional scheme.
 https://doi.org/10.1080/002689797170220

 Perdew, JP; Burke, K; Ernzerhof, M. 
 PHYSICAL REVIEW LETTERS, 77 (18), 3865-3868 (1996). 
 Generalized gradient approximation made simple.
 https://doi.org/10.1103/PhysRevLett.77.3865

 Goedecker, S; Teter, M; Hutter, J. 
 PHYSICAL REVIEW B, 54 (3), 1703-1710 (1996). 
 Separable dual-space Gaussian pseudopotentials.
 https://doi.org/10.1103/PhysRevB.54.1703


 -------------------------------------------------------------------------------
 -                                                                             -
 -                                T I M I N G                                  -
 -                                                                             -
 -------------------------------------------------------------------------------
 SUBROUTINE                       CALLS  ASD         SELF TIME        TOTAL TIME
                                MAXIMUM       AVERAGE  MAXIMUM  AVERAGE  MAXIMUM
 CP2K                                 1  1.0    0.077    0.097 5902.024 5902.028
 qs_forces                            1  2.0    0.000    0.000 5901.284 5901.288
 qs_energies                          1  3.0    0.000    0.000 5896.193 5896.197
 scf_env_do_scf                       1  4.0    0.001    0.002 5893.958 5893.962
 scf_env_do_scf_inner_loop          807  5.0    0.016    0.116 5889.211 5889.223
 rebuild_ks_matrix                  808  7.0    0.002    0.003 3919.271 3919.851
 qs_ks_build_kohn_sham_matrix       808  8.0    0.109    0.132 3919.269 3919.849
 qs_ks_update_qs_env                808  6.0    0.006    0.007 3916.158 3916.730
 pw_transfer                      28281 10.7    1.852    2.469 2996.733 3366.884
 fft_wrap_pw1pw2                  26665 11.8    0.321    0.444 2984.063 3355.917
 fft_wrap_pw1pw2_140              16969 12.9  129.046  186.162 2792.642 3140.357
 qs_vxc_create                      808  9.0    0.017    0.027 2706.364 2715.480
 xc_vxc_pw_create                   808 10.0   62.138   69.260 2706.347 2715.470
 fft3d_ps                         26665 13.8  841.821 1037.886 2133.986 2595.422
 mp_alltoall_z22v                 26665 15.8 1026.534 1587.137 1026.534 1587.137
 xc_rho_set_and_dset_create         808 11.0   17.068   22.324 1343.567 1530.143
 qs_rho_update_rho                  808  6.0    0.004    0.005 1203.287 1203.389
 calculate_rho_elec                1616  7.0   10.487   11.393 1203.283 1203.384
 yz_to_x                          12929 14.1  130.900  164.430  732.720 1193.597
 sum_up_and_integrate               808  9.0    5.964    8.714  998.884  999.150
 integrate_v_rspace                1616 10.0    0.045    0.061  992.915  994.599
 density_rs2pw                     1616  8.0    0.081    0.108  753.500  776.244
 qs_scf_new_mos                     807  6.0    0.004    0.005  773.123  773.637
 qs_scf_loop_do_ot                  807  7.0    0.005    0.006  773.119  773.632
 ot_scf_mini                        807  8.0    0.017    0.018  752.700  753.231
 xc_functional_eval                 808 12.0    0.008    0.012  490.535  679.438
 pbe_lsd_eval                       808 13.0  490.526  679.432  490.526  679.432
 x_to_yz                          13736 15.3  134.257  201.548  558.972  642.660
 potential_pw2rs                   1616 11.0    0.549    0.725  563.661  565.852
 pw_gather_p                      12929 13.1  405.002  471.205  405.002  471.205
 dbcsr_multiply_generic           35515 11.1    1.051    1.090  453.111  455.567
 grid_collocate_task_list          1616  8.0  409.023  435.413  409.023  435.413
 rs_pw_transfer                   12930 10.5    0.188    0.279  393.780  420.561
 grid_integrate_task_list          1616 11.0  381.710  407.789  381.710  407.789
 qs_ot_get_p                       1616  9.0    0.007    0.008  367.182  368.068
 pw_scatter_p                     13736 14.3  311.903  332.044  311.903  332.044
 ot_mini                            807  9.0    0.006    0.006  328.626  329.085
 qs_ot_get_derivative              1614 10.0    0.008    0.009  284.943  285.712
 qs_ot_p2m_diag                    1612 10.0    2.091    2.646  276.439  277.192
 cp_dbcsr_syevd                    1612 11.0    0.071    0.076  239.840  240.312
 qs_ot_get_derivative_diag         1610 11.0    0.024    0.026  224.390  225.137
 mp_waitall_1                   2156910 15.1  176.256  217.887  176.256  217.887
 mp_waitany                      181048 12.5  153.522  207.921  153.522  207.921
 cp_fm_syevd                       1612 12.0    0.008    0.011  186.393  187.116
 multiply_cannon                  35515 12.1    1.623    1.720  160.274  169.378
 fft_wrap_pw1pw2_50                3232 12.5    3.054    4.226  139.808  160.777
 cp_fm_redistribute_end            1612 13.0   86.654  157.167   87.124  158.069
 rs_pw_transfer_RS2PW_140          1617 10.0   36.859   59.302  117.005  145.554
 pw_derive                         9696 11.5   94.574  144.895   94.574  144.895
 cp_fm_syevd_base                  1612 13.0   70.113  140.560   70.113  140.560
 multiply_cannon_loop             35515 13.1    1.728    1.910  125.492  133.913
 mp_sum_l                        171364 12.2  119.942  130.843  119.942  130.843
 make_m2s                         71030 12.1    0.917    0.949  118.980  129.497
 rs_pw_transfer_PW2RS_140          1617 13.0   47.759   76.791  106.966  125.190
 -------------------------------------------------------------------------------

 The number of warnings for this run is : 1
 
 -------------------------------------------------------------------------------
  **** **** ******  **  PROGRAM ENDED AT                 2023-12-04 05:05:23.549
 ***** ** ***  *** **   PROGRAM RAN ON               milan17.int.triton.aalto.fi
 **    ****   ******    PROGRAM RAN BY                                   huangj4
 ***** **    ** ** **   PROGRAM PROCESS ID                                101176
  **** **  *******  **  PROGRAM STOPPED IN /scratch/phys/sin/Jie/Github/cp2kTest
                                           /ab_energy/Cluster_222
