# Projected DOS for atomic kind N at iteration step i = 0, E(Fermi) =    -0.180604 a.u.
#     MO Eigenvalue [a.u.]      Occupation                 s                py                pz                px
       1         -0.980610        1.000000        0.62646902        0.00000470        0.00018353        0.00019145
       2         -0.959299        1.000000        0.62325527        0.00009058        0.00006623        0.00097717
       3         -0.951829        1.000000        0.61911413        0.00118879        0.00023086        0.00023676
       4         -0.945395        1.000000        0.61464084        0.00000280        0.00001761        0.00021740
       5         -0.938990        1.000000        0.61306951        0.00001644        0.00007562        0.00019610
       6         -0.930187        1.000000        0.61070778        0.00001326        0.00000341        0.00009358
       7         -0.926542        1.000000        0.61210117        0.00000559        0.00007196        0.00013574
       8         -0.711274        1.000000        0.01387762        0.00155577        0.00481574        0.20659140
       9         -0.694966        1.000000        0.02078875        0.00023942        0.09647872        0.10342362
      10         -0.693947        1.000000        0.01583525        0.02348751        0.11836037        0.07396163
      11         -0.687800        1.000000        0.01520270        0.00003695        0.02579705        0.16817673
      12         -0.682967        1.000000        0.01527206        0.00059461        0.00323279        0.19521691
      13         -0.675190        1.000000        0.01633411        0.00141340        0.00358046        0.19229558
      14         -0.673658        1.000000        0.01674795        0.00000084        0.00838929        0.18194638
      15         -0.608955        1.000000        0.00049954        0.00265135        0.60593758        0.00514656
      16         -0.607542        1.000000        0.00056321        0.02512864        0.00486538        0.00009397
      17         -0.599352        1.000000        0.00030199        0.02702309        0.00463342        0.00034779
      18         -0.598050        1.000000        0.00062999        0.02072498        0.00414506        0.00055186
      19         -0.596577        1.000000        0.00064203        0.06547414        0.04981500        0.00785270
      20         -0.596052        1.000000        0.00011363        0.53511194        0.00683694        0.00210560
      21         -0.592395        1.000000        0.00051047        0.06559679        0.01065688        0.00598707
      22         -0.591722        1.000000        0.00004911        0.39321339        0.07348692        0.00141425
      23         -0.588870        1.000000        0.00014487        0.00434656        0.00772871        0.00101427
      24         -0.588072        1.000000        0.00010757        0.04615870        0.05955234        0.03791763
      25         -0.587284        1.000000        0.00058839        0.04942016        0.02231137        0.01563129
      26         -0.585707        1.000000        0.00025355        0.04057130        0.02912516        0.00877514
      27         -0.583883        1.000000        0.00014687        0.02845088        0.08360511        0.06066529
      28         -0.581124        1.000000        0.00046405        0.03568953        0.12063648        0.08155341
      29         -0.579805        1.000000        0.00016938        0.02288214        0.00999374        0.00613278
      30         -0.578294        1.000000        0.00024506        0.01545737        0.00931113        0.01659155
      31         -0.577059        1.000000        0.00003711        0.00222792        0.00882478        0.00149810
      32         -0.575898        1.000000        0.00020737        0.14915212        0.01595451        0.00363320
      33         -0.575390        1.000000        0.00034288        0.03496788        0.00421511        0.01166682
      34         -0.574684        1.000000        0.00027896        0.03824754        0.00198824        0.01026016
      35         -0.573712        1.000000        0.00002751        0.00913460        0.00159599        0.00121748
      36         -0.572881        1.000000        0.00055903        0.00327910        0.04511856        0.00325146
      37         -0.572306        1.000000        0.00013097        0.00451516        0.00765480        0.00094696
      38         -0.571712        1.000000        0.00027931        0.01220745        0.10697919        0.01215405
      39         -0.570644        1.000000        0.00028283        0.00488963        0.01549535        0.00100693
      40         -0.569417        1.000000        0.00010361        0.00108104        0.00262714        0.00446312
      41         -0.568774        1.000000        0.00148632        0.01542191        0.12353741        0.15055422
      42         -0.567282        1.000000        0.00011167        0.01948889        0.03720752        0.02614400
      43         -0.566962        1.000000        0.00002949        0.11503708        0.01931069        0.00150007
      44         -0.566359        1.000000        0.00003936        0.00577720        0.00348640        0.00561437
      45         -0.566192        1.000000        0.00085274        0.01354174        0.09465029        0.13615916
      46         -0.565403        1.000000        0.00078012        0.14365181        0.00850321        0.00962930
      47         -0.564243        1.000000        0.00042414        0.01514400        0.08505484        0.02308533
      48         -0.563249        1.000000        0.00011102        0.11514884        0.06043661        0.01686754
      49         -0.563070        1.000000        0.00007672        0.01651672        0.04995448        0.02972356
      50         -0.562462        1.000000        0.00025017        0.08719455        0.02911359        0.03983539
      51         -0.561757        1.000000        0.00000063        0.00067795        0.00029745        0.00027869
      52         -0.560499        1.000000        0.00020940        0.09882841        0.20303882        0.02834900
      53         -0.559960        1.000000        0.00059655        0.07915203        0.01998463        0.00464363
      54         -0.559294        1.000000        0.00002806        0.00394644        0.00092416        0.00030327
      55         -0.558127        1.000000        0.00050670        0.04884066        0.00407110        0.00051191
      56         -0.557616        1.000000        0.00277713        0.35241188        0.09314115        0.01359174
      57         -0.556842        1.000000        0.00086761        0.13151875        0.23986244        0.01330388
      58         -0.555001        1.000000        0.00000676        0.00802170        0.00011590        0.00021760
      59         -0.554299        1.000000        0.00000104        0.00196744        0.00002365        0.00004899
      60         -0.550566        1.000000        0.00000562        0.49857603        0.02034286        0.00278843
      61         -0.546424        1.000000        0.00000769        0.20838847        0.21890354        0.00680300
      62         -0.544193        1.000000        0.00012177        0.32648650        0.11194833        0.00609527
      63         -0.543030        1.000000        0.00003492        0.01964906        0.48817051        0.00783557
      64         -0.537150        1.000000        0.00050125        0.17129485        0.25276823        0.01529547
      65         -0.498297        1.000000        0.00872673        0.00024684        0.00173181        0.43489385
      66         -0.481445        1.000000        0.00774509        0.05105775        0.28333689        0.09357049
      67         -0.476783        1.000000        0.00563763        0.01854048        0.16038253        0.26272291
      68         -0.468185        1.000000        0.00956025        0.00002032        0.04883244        0.38415373
      69         -0.464051        1.000000        0.00825247        0.00028206        0.00753288        0.33111394
      70         -0.463347        1.000000        0.00145545        0.00027663        0.00253276        0.06881478
      71         -0.462907        1.000000        0.00060028        0.00012361        0.00117738        0.01522108
      72         -0.459010        1.000000        0.00008883        0.00035456        0.00017219        0.00353687
      73         -0.456828        1.000000        0.00129170        0.00050206        0.00203833        0.06046083
      74         -0.456771        1.000000        0.00243079        0.00119828        0.00156527        0.10370982
      75         -0.455442        1.000000        0.00608944        0.00334585        0.00286489        0.29268240
      76         -0.453595        1.000000        0.00522475        0.00020381        0.01536696        0.25138590
      77         -0.452002        1.000000        0.00270144        0.00010309        0.00747009        0.13027160
      78         -0.449290        1.000000        0.00000482        0.00007666        0.00069499        0.00094056
      79         -0.446618        1.000000        0.00007906        0.00007678        0.00031200        0.00955062
      80         -0.424092        1.000000        0.00002173        0.03046717        0.00236355        0.00020463
      81         -0.420954        1.000000        0.00004488        0.00245489        0.02406213        0.00003706
      82         -0.411451        1.000000        0.00004249        0.02163964        0.00665256        0.01024154
      83         -0.408431        1.000000        0.00025986        0.02765595        0.01415490        0.00777688
      84         -0.408057        1.000000        0.00014077        0.00314300        0.01349306        0.02232205
      85         -0.405612        1.000000        0.00000108        0.02642797        0.00973167        0.00145984
      86         -0.403726        1.000000        0.00000215        0.01061885        0.02274951        0.00340678
      87         -0.401652        1.000000        0.00007651        0.02104331        0.00018211        0.00925910
      88         -0.399833        1.000000        0.00000828        0.00350668        0.03600470        0.00123670
      89         -0.396458        1.000000        0.00000021        0.03290313        0.00186941        0.00013777
      90         -0.391422        1.000000        0.00000456        0.03410057        0.00622201        0.00025918
      91         -0.391022        1.000000        0.00000149        0.03160792        0.00597712        0.00040559
      92         -0.389719        1.000000        0.00000079        0.00401382        0.03392260        0.00063532
      93         -0.389667        1.000000        0.00000401        0.00769259        0.02927772        0.00137301
      94         -0.282629        1.000000        0.00014317        0.00044965        0.00008680        0.00006424
      95         -0.280664        1.000000        0.00035635        0.00062761        0.00030461        0.00009511
      96         -0.278992        1.000000        0.00016964        0.00157679        0.00035410        0.00023701
      97         -0.271385        1.000000        0.00017172        0.00083292        0.00024693        0.00006970
      98         -0.269422        1.000000        0.00007388        0.00099721        0.00027602        0.00003757
      99         -0.267947        1.000000        0.00010457        0.00050742        0.00098296        0.00014702
     100         -0.266171        1.000000        0.00020217        0.00079171        0.00013596        0.00017690
     101         -0.264605        1.000000        0.00011862        0.00013983        0.00021457        0.00009812
     102         -0.263733        1.000000        0.00025514        0.00018374        0.00122193        0.00004867
     103         -0.262994        1.000000        0.00033658        0.00046227        0.00035989        0.00023737
     104         -0.262175        1.000000        0.00007455        0.00022624        0.00014896        0.00007716
     105         -0.261266        1.000000        0.00015514        0.00004266        0.00056245        0.00015938
     106         -0.257423        1.000000        0.00012896        0.00031085        0.00027223        0.00013883
     107         -0.254013        1.000000        0.00030330        0.00055542        0.00045006        0.00022918
     108         -0.248854        1.000000        0.00121813        0.00062885        0.00093705        0.00133243
     109         -0.247947        1.000000        0.00103259        0.00074134        0.00180341        0.00077794
     110         -0.244969        1.000000        0.00037645        0.00049653        0.00017719        0.00030378
     111         -0.243570        1.000000        0.00021122        0.00008212        0.00011687        0.00008016
     112         -0.242379        1.000000        0.00135188        0.00210117        0.00022892        0.00089600
     113         -0.239692        1.000000        0.00071273        0.00043196        0.00041148        0.00046749
     114         -0.239024        1.000000        0.00027731        0.00116041        0.00047116        0.00038017
     115         -0.238253        1.000000        0.00042505        0.00078873        0.00033990        0.00020285
     116         -0.237457        1.000000        0.00210970        0.00085121        0.00121835        0.00181928
     117         -0.232992        1.000000        0.00383351        0.00086345        0.00344843        0.00255512
     118         -0.232364        1.000000        0.00108937        0.00244572        0.00076143        0.00069535
     119         -0.231054        1.000000        0.00295760        0.00059334        0.00082169        0.00107112
     120         -0.229642        1.000000        0.00024294        0.00017121        0.00047804        0.00019047
     121         -0.228623        1.000000        0.00059394        0.00410882        0.00122558        0.00024421
     122         -0.227288        1.000000        0.00077263        0.00159218        0.00180511        0.00033106
     123         -0.226315        1.000000        0.00058159        0.00231714        0.00025187        0.00028980
     124         -0.223535        1.000000        0.00181160        0.00363918        0.00250683        0.00116278
     125         -0.222097        1.000000        0.00017305        0.00235026        0.00040169        0.00038259
     126         -0.221108        1.000000        0.00100730        0.00115394        0.00197667        0.00039713
     127         -0.218597        1.000000        0.00134166        0.00482525        0.00054722        0.00088183
     128         -0.217673        1.000000        0.00090481        0.00290919        0.00032651        0.00053920
     129         -0.216866        1.000000        0.00092578        0.00027214        0.00565515        0.00045725
     130         -0.215834        1.000000        0.00036686        0.00335965        0.00032330        0.00068012
     131         -0.214474        1.000000        0.00054792        0.00163769        0.00253220        0.00031081
     132         -0.213008        1.000000        0.00076623        0.00121563        0.00328173        0.00062263
     133         -0.211578        1.000000        0.00077127        0.00061439        0.00104125        0.00050399
     134         -0.210051        1.000000        0.00043030        0.00048767        0.00133016        0.00012493
     135         -0.209376        1.000000        0.00014401        0.00032696        0.00094299        0.00006849
     136         -0.208382        1.000000        0.00037661        0.00044513        0.00075684        0.00025077
     137         -0.207322        1.000000        0.00002880        0.00030100        0.00046576        0.00003370
     138         -0.206804        1.000000        0.00059780        0.00134207        0.00100695        0.00036178
     139         -0.206154        1.000000        0.00048057        0.00053446        0.00076538        0.00016503
     140         -0.205578        1.000000        0.00024693        0.00027335        0.00103130        0.00013866
     141         -0.205045        1.000000        0.00009826        0.00051040        0.00145696        0.00033299
     142         -0.203951        1.000000        0.00011488        0.00038086        0.00047122        0.00026372
     143         -0.202892        1.000000        0.00034103        0.00094645        0.00065727        0.00039902
     144         -0.201651        1.000000        0.00092927        0.00248466        0.00079761        0.00088320
     145         -0.201023        1.000000        0.00035536        0.00085621        0.00111433        0.00009105
     146         -0.200559        1.000000        0.00018203        0.00060017        0.00112564        0.00014515
     147         -0.199475        1.000000        0.00021200        0.00079662        0.00013113        0.00018221
     148         -0.199060        1.000000        0.00039396        0.00285567        0.00231718        0.00038416
     149         -0.198489        1.000000        0.00034481        0.00063603        0.00135493        0.00012735
     150         -0.197777        1.000000        0.00030007        0.00042762        0.00087335        0.00003221
     151         -0.197420        1.000000        0.00056129        0.00337453        0.00142375        0.00050342
     152         -0.196377        1.000000        0.00135980        0.00135512        0.00286195        0.00013580
     153         -0.196281        1.000000        0.00011991        0.00010542        0.00052273        0.00009089
     154         -0.196129        1.000000        0.00027025        0.00127208        0.00027168        0.00045862
     155         -0.195514        1.000000        0.00119296        0.00079943        0.00582920        0.00023806
     156         -0.195154        1.000000        0.00009457        0.00143378        0.00074425        0.00003061
     157         -0.194586        1.000000        0.00004346        0.00042328        0.00031526        0.00005625
     158         -0.193932        1.000000        0.00038466        0.00019097        0.00061876        0.00012076
     159         -0.193003        1.000000        0.00022115        0.00024384        0.00050130        0.00007577
     160         -0.192747        1.000000        0.00018158        0.00020240        0.00058257        0.00010895
     161         -0.192505        1.000000        0.00014530        0.00011093        0.00040444        0.00001600
     162         -0.192153        1.000000        0.00015941        0.00021226        0.00020988        0.00003473
     163         -0.191479        1.000000        0.00012920        0.00012117        0.00008515        0.00005385
     164         -0.191005        1.000000        0.00012126        0.00030103        0.00008471        0.00004725
     165         -0.190550        1.000000        0.00019827        0.00007232        0.00046630        0.00010366
     166         -0.190299        1.000000        0.00099239        0.00132941        0.00088200        0.00010882
     167         -0.189879        1.000000        0.00007337        0.00019981        0.00042210        0.00001924
     168         -0.189709        1.000000        0.00014933        0.00038414        0.00010351        0.00043664
     169         -0.189533        1.000000        0.00012068        0.00045388        0.00005834        0.00022047
     170         -0.189031        1.000000        0.00020660        0.00031222        0.00064940        0.00012437
     171         -0.188839        1.000000        0.00006146        0.00015211        0.00009215        0.00018304
     172         -0.188612        1.000000        0.00025583        0.00010879        0.00043442        0.00002801
     173         -0.188366        1.000000        0.00013827        0.00041915        0.00012027        0.00009090
     174         -0.187975        1.000000        0.00009260        0.00032355        0.00026332        0.00006454
     175         -0.187904        1.000000        0.00009035        0.00045984        0.00676387        0.00012242
     176         -0.187410        1.000000        0.00019789        0.00013826        0.00060694        0.00010016
     177         -0.186857        1.000000        0.00004404        0.00049661        0.00016102        0.00011591
     178         -0.186640        1.000000        0.00015522        0.00055131        0.00024599        0.00015566
     179         -0.186473        1.000000        0.00016545        0.00048528        0.00017362        0.00008581
     180         -0.186117        1.000000        0.00008997        0.00026874        0.00025595        0.00006811
     181         -0.186052        1.000000        0.00007067        0.00043309        0.00034952        0.00003604
     182         -0.185293        1.000000        0.00003836        0.00016636        0.00039000        0.00011768
     183         -0.185176        1.000000        0.00010856        0.00020910        0.00022296        0.00007408
     184         -0.185020        1.000000        0.00008988        0.00003942        0.00011683        0.00017756
     185         -0.184517        1.000000        0.00023451        0.00016608        0.00020473        0.00009999
     186         -0.184022        1.000000        0.00011564        0.00016536        0.00037797        0.00006050
     187         -0.183997        1.000000        0.00008304        0.00013842        0.00006084        0.00003831
     188         -0.183677        1.000000        0.00009194        0.00013259        0.00007795        0.00008176
     189         -0.182924        1.000000        0.00011068        0.00016194        0.00016147        0.00011275
     190         -0.182749        1.000000        0.00006260        0.00006576        0.00013961        0.00012249
     191         -0.182107        1.000000        0.00002380        0.00008735        0.00006860        0.00005761
     192         -0.181780        1.000000        0.00002648        0.00002906        0.00005988        0.00006145
     193         -0.181339        1.000000        0.00005731        0.00004719        0.00002298        0.00011314
     194         -0.181036        1.000000        0.00000640        0.00003918        0.00013934        0.00003804
     195         -0.180604        1.000000        0.00001267        0.00004199        0.00003902        0.00001957
     196         -0.180449        0.000000        0.00004347        0.00043925        0.00002263        0.00001243
     197         -0.180244        0.000000        0.00001528        0.00007360        0.00005442        0.00005122
     198         -0.179472        0.000000        0.00003412        0.00009583        0.00016698        0.00005041
     199         -0.178619        0.000000        0.00004904        0.00006451        0.00006590        0.00003051
     200         -0.176910        0.000000        0.00007612        0.00023480        0.00003894        0.00009516
     201         -0.174053        0.000000        0.00000717        0.00002476        0.00000438        0.00001339
     202         -0.072600        0.000000        0.00002204        0.00012562        0.00003217        0.00002486
     203         -0.064909        0.000000        0.00012241        0.00002887        0.00002406        0.00003625
     204         -0.064185        0.000000        0.00007238        0.00006564        0.00003531        0.00003999
     205         -0.062672        0.000000        0.00002407        0.00004860        0.00000744        0.00001668
     206         -0.061672        0.000000        0.00004070        0.00001145        0.00001844        0.00004563
     207         -0.057991        0.000000        0.00001414        0.00007146        0.00006276        0.00002889
     208         -0.057532        0.000000        0.00002232        0.00003821        0.00001750        0.00002075
     209         -0.052254        0.000000        0.00003337        0.00000720        0.00002218        0.00002069
     210         -0.048420        0.000000        0.00003352        0.00002932        0.00001899        0.00002216
     211         -0.047217        0.000000        0.00003577        0.00007758        0.00012427        0.00001342
     212         -0.041069        0.000000        0.00003540        0.00010070        0.00007517        0.00005292
     213         -0.040889        0.000000        0.00014403        0.00011323        0.00005193        0.00009963
     214         -0.034724        0.000000        0.00006545        0.00001292        0.00000943        0.00001883
     215         -0.033273        0.000000        0.00008081        0.00003682        0.00007778        0.00000880
     216         -0.030304        0.000000        0.00001137        0.00003839        0.00005295        0.00001404
     217         -0.028944        0.000000        0.00000340        0.00038525        0.00020179        0.00001491
     218         -0.026478        0.000000        0.00022717        0.00001000        0.00043725        0.00002454
     219         -0.025704        0.000000        0.00006833        0.00001934        0.00004937        0.00000547
     220         -0.021607        0.000000        0.00016053        0.00003933        0.00005335        0.00000252
     221         -0.019674        0.000000        0.00008497        0.00009273        0.00008488        0.00000865
     222         -0.018155        0.000000        0.00006481        0.00007243        0.00005550        0.00001037
     223         -0.015696        0.000000        0.00004410        0.00004607        0.00003106        0.00002927
     224         -0.012135        0.000000        0.00001614        0.00001718        0.00001315        0.00000107
     225         -0.009109        0.000000        0.00002036        0.00014032        0.00001716        0.00001966
     226          0.067563        0.000000        0.10488317        0.00013403        0.00275689        0.24250101
     227          0.093947        0.000000        0.13618690        0.00160233        0.12724130        0.09047924
     228          0.095452        0.000000        0.13438538        0.01679704        0.09012884        0.11096577
     229          0.097634        0.000000        0.10017122        0.00003454        0.03075892        0.22745754
     230          0.106245        0.000000        0.10641755        0.00000590        0.00649615        0.24875260
     231          0.116676        0.000000        0.10390491        0.00006211        0.01417923        0.24527116
     232          0.119473        0.000000        0.10307282        0.00272734        0.00230111        0.25687620
     233          0.131558        0.000000        0.02874873        0.16990734        0.00218752        0.13254461
     234          0.144630        0.000000        0.02893297        0.03446481        0.20382141        0.06850144
     235          0.200192        0.000000        0.03704965        0.21049070        0.06420214        0.02579186
     236          0.220463        0.000000        0.08814730        0.12237738        0.07748089        0.04884981
     237          0.271988        0.000000        0.11733614        0.00141711        0.19400958        0.03067459
     238          0.283659        0.000000        0.01233673        0.25307444        0.05111415        0.01218408
     239          0.290102        0.000000        0.00058118        0.00762027        0.27504984        0.04200658
     240          0.291181        0.000000        0.00107664        0.29007526        0.02347224        0.00890609
     241          0.294683        0.000000        0.00703807        0.30424510        0.01064586        0.00561428
     242          0.295753        0.000000        0.00272064        0.02603153        0.26864043        0.01575607
     243          0.298812        0.000000        0.00130391        0.12787406        0.08746959        0.10385864
     244          0.302444        0.000000        0.00185243        0.29722411        0.01593213        0.00040029
     245          0.304331        0.000000        0.00144758        0.02779571        0.27709423        0.00735592
     246          0.310680        0.000000        0.16806601        0.02592957        0.00031514        0.14622713
     247          0.311108        0.000000        0.00121804        0.28666873        0.02978884        0.00148372
     248          0.313594        0.000000        0.00044445        0.01690531        0.28082886        0.01940662
     249          0.329496        0.000000        0.20121764        0.01970674        0.08689102        0.03593611
     250          0.333131        0.000000        0.21717678        0.01791578        0.05342764        0.05487947
     251          0.343046        0.000000        0.23318273        0.00562670        0.00924835        0.09502773
     252          0.351080        0.000000        0.23982285        0.00247851        0.00521758        0.09682102
     253          0.352360        0.000000        0.24138508        0.00039127        0.00556563        0.09721592
     254          0.437408        0.000000        0.00007278        0.00254971        0.01603624        0.00002448
     255          0.444693        0.000000        0.00000594        0.01937004        0.00126455        0.00263956
     256          0.452383        0.000000        0.00006249        0.01141732        0.00221985        0.00002242
     257          0.456708        0.000000        0.00169621        0.00494442        0.01335196        0.00225566
     258          0.461800        0.000000        0.00001011        0.01303711        0.00403449        0.00744479
     259          0.464457        0.000000        0.00000986        0.01665890        0.00915706        0.00005614