# Projected DOS for atomic kind H at iteration step i = 0, E(Fermi) =    -0.180604 a.u.
#     MO Eigenvalue [a.u.]      Occupation                 s
       1         -0.980610        1.000000        0.27413396
       2         -0.959299        1.000000        0.26905612
       3         -0.951829        1.000000        0.26591359
       4         -0.945395        1.000000        0.28337497
       5         -0.938990        1.000000        0.28178009
       6         -0.930187        1.000000        0.28126686
       7         -0.926542        1.000000        0.28099760
       8         -0.711274        1.000000        0.33284714
       9         -0.694966        1.000000        0.34444718
      10         -0.693947        1.000000        0.33394645
      11         -0.687800        1.000000        0.34498842
      12         -0.682967        1.000000        0.34237940
      13         -0.675190        1.000000        0.34432638
      14         -0.673658        1.000000        0.34780010
      15         -0.608955        1.000000        0.33365351
      16         -0.607542        1.000000        0.02520416
      17         -0.599352        1.000000        0.02037018
      18         -0.598050        1.000000        0.02008472
      19         -0.596577        1.000000        0.07550079
      20         -0.596052        1.000000        0.28854420
      21         -0.592395        1.000000        0.05309348
      22         -0.591722        1.000000        0.25939683
      23         -0.588870        1.000000        0.00881557
      24         -0.588072        1.000000        0.08588315
      25         -0.587284        1.000000        0.05101957
      26         -0.585707        1.000000        0.04750189
      27         -0.583883        1.000000        0.09801791
      28         -0.581124        1.000000        0.13418491
      29         -0.579805        1.000000        0.02510791
      30         -0.578294        1.000000        0.02524968
      31         -0.577059        1.000000        0.00837454
      32         -0.575898        1.000000        0.10642007
      33         -0.575390        1.000000        0.02958535
      34         -0.574684        1.000000        0.02668169
      35         -0.573712        1.000000        0.00717434
      36         -0.572881        1.000000        0.03511328
      37         -0.572306        1.000000        0.00912182
      38         -0.571712        1.000000        0.07918917
      39         -0.570644        1.000000        0.01370823
      40         -0.569417        1.000000        0.00467656
      41         -0.568774        1.000000        0.16679395
      42         -0.567282        1.000000        0.04637452
      43         -0.566962        1.000000        0.07559671
      44         -0.566359        1.000000        0.00827523
      45         -0.566192        1.000000        0.13324312
      46         -0.565403        1.000000        0.08581283
      47         -0.564243        1.000000        0.06691924
      48         -0.563249        1.000000        0.10167740
      49         -0.563070        1.000000        0.04944514
      50         -0.562462        1.000000        0.08104249
      51         -0.561757        1.000000        0.00067219
      52         -0.560499        1.000000        0.17146400
      53         -0.559960        1.000000        0.05600023
      54         -0.559294        1.000000        0.00323203
      55         -0.558127        1.000000        0.03381434
      56         -0.557616        1.000000        0.24142567
      57         -0.556842        1.000000        0.20146416
      58         -0.555001        1.000000        0.00472397
      59         -0.554299        1.000000        0.00113272
      60         -0.550566        1.000000        0.27972125
      61         -0.546424        1.000000        0.21303644
      62         -0.544193        1.000000        0.23217915
      63         -0.543030        1.000000        0.26711510
      64         -0.537150        1.000000        0.22005879
      65         -0.498297        1.000000        0.18654528
      66         -0.481445        1.000000        0.19374064
      67         -0.476783        1.000000        0.18436318
      68         -0.468185        1.000000        0.17307878
      69         -0.464051        1.000000        0.14460995
      70         -0.463347        1.000000        0.02983738
      71         -0.462907        1.000000        0.00756499
      72         -0.459010        1.000000        0.00212044
      73         -0.456828        1.000000        0.02603902
      74         -0.456771        1.000000        0.04481839
      75         -0.455442        1.000000        0.12384218
      76         -0.453595        1.000000        0.10757574
      77         -0.452002        1.000000        0.05591335
      78         -0.449290        1.000000        0.00067263
      79         -0.446618        1.000000        0.00391418
      80         -0.424092        1.000000        0.41730158
      81         -0.420954        1.000000        0.41423741
      82         -0.411451        1.000000        0.42078548
      83         -0.408431        1.000000        0.42514466
      84         -0.408057        1.000000        0.42153845
      85         -0.405612        1.000000        0.42150522
      86         -0.403726        1.000000        0.41876748
      87         -0.401652        1.000000        0.41571278
      88         -0.399833        1.000000        0.42419073
      89         -0.396458        1.000000        0.41959726
      90         -0.391422        1.000000        0.42261347
      91         -0.391022        1.000000        0.42341837
      92         -0.389719        1.000000        0.42171706
      93         -0.389667        1.000000        0.42106337
      94         -0.282629        1.000000        0.00034113
      95         -0.280664        1.000000        0.00041104
      96         -0.278992        1.000000        0.00107270
      97         -0.271385        1.000000        0.00052410
      98         -0.269422        1.000000        0.00028638
      99         -0.267947        1.000000        0.00038306
     100         -0.266171        1.000000        0.00022050
     101         -0.264605        1.000000        0.00018452
     102         -0.263733        1.000000        0.00058572
     103         -0.262994        1.000000        0.00040033
     104         -0.262175        1.000000        0.00024422
     105         -0.261266        1.000000        0.00031962
     106         -0.257423        1.000000        0.00039209
     107         -0.254013        1.000000        0.00042552
     108         -0.248854        1.000000        0.00121643
     109         -0.247947        1.000000        0.00100302
     110         -0.244969        1.000000        0.00033240
     111         -0.243570        1.000000        0.00047758
     112         -0.242379        1.000000        0.00097356
     113         -0.239692        1.000000        0.00065000
     114         -0.239024        1.000000        0.00040901
     115         -0.238253        1.000000        0.00045902
     116         -0.237457        1.000000        0.00165058
     117         -0.232992        1.000000        0.00214199
     118         -0.232364        1.000000        0.00106310
     119         -0.231054        1.000000        0.00158237
     120         -0.229642        1.000000        0.00058480
     121         -0.228623        1.000000        0.00092546
     122         -0.227288        1.000000        0.00080321
     123         -0.226315        1.000000        0.00071824
     124         -0.223535        1.000000        0.00224039
     125         -0.222097        1.000000        0.00054155
     126         -0.221108        1.000000        0.00101684
     127         -0.218597        1.000000        0.00137052
     128         -0.217673        1.000000        0.00089006
     129         -0.216866        1.000000        0.00105540
     130         -0.215834        1.000000        0.00080341
     131         -0.214474        1.000000        0.00119771
     132         -0.213008        1.000000        0.00130064
     133         -0.211578        1.000000        0.00105445
     134         -0.210051        1.000000        0.00102882
     135         -0.209376        1.000000        0.00037488
     136         -0.208382        1.000000        0.00069692
     137         -0.207322        1.000000        0.00030339
     138         -0.206804        1.000000        0.00122307
     139         -0.206154        1.000000        0.00084261
     140         -0.205578        1.000000        0.00060799
     141         -0.205045        1.000000        0.00065965
     142         -0.203951        1.000000        0.00061259
     143         -0.202892        1.000000        0.00068771
     144         -0.201651        1.000000        0.00126576
     145         -0.201023        1.000000        0.00062403
     146         -0.200559        1.000000        0.00075009
     147         -0.199475        1.000000        0.00039424
     148         -0.199060        1.000000        0.00121012
     149         -0.198489        1.000000        0.00059730
     150         -0.197777        1.000000        0.00035055
     151         -0.197420        1.000000        0.00125197
     152         -0.196377        1.000000        0.00152422
     153         -0.196281        1.000000        0.00045191
     154         -0.196129        1.000000        0.00049955
     155         -0.195514        1.000000        0.00164775
     156         -0.195154        1.000000        0.00045095
     157         -0.194586        1.000000        0.00030697
     158         -0.193932        1.000000        0.00064918
     159         -0.193003        1.000000        0.00072265
     160         -0.192747        1.000000        0.00038621
     161         -0.192505        1.000000        0.00015421
     162         -0.192153        1.000000        0.00018982
     163         -0.191479        1.000000        0.00022067
     164         -0.191005        1.000000        0.00029107
     165         -0.190550        1.000000        0.00036747
     166         -0.190299        1.000000        0.00113273
     167         -0.189879        1.000000        0.00018832
     168         -0.189709        1.000000        0.00033570
     169         -0.189533        1.000000        0.00026326
     170         -0.189031        1.000000        0.00056353
     171         -0.188839        1.000000        0.00019385
     172         -0.188612        1.000000        0.00036482
     173         -0.188366        1.000000        0.00027037
     174         -0.187975        1.000000        0.00023161
     175         -0.187904        1.000000        0.00076890
     176         -0.187410        1.000000        0.00039253
     177         -0.186857        1.000000        0.00023510
     178         -0.186640        1.000000        0.00032344
     179         -0.186473        1.000000        0.00038467
     180         -0.186117        1.000000        0.00022248
     181         -0.186052        1.000000        0.00023585
     182         -0.185293        1.000000        0.00019948
     183         -0.185176        1.000000        0.00028235
     184         -0.185020        1.000000        0.00017450
     185         -0.184517        1.000000        0.00031984
     186         -0.184022        1.000000        0.00020786
     187         -0.183997        1.000000        0.00011916
     188         -0.183677        1.000000        0.00015461
     189         -0.182924        1.000000        0.00027345
     190         -0.182749        1.000000        0.00013568
     191         -0.182107        1.000000        0.00009608
     192         -0.181780        1.000000        0.00014425
     193         -0.181339        1.000000        0.00015418
     194         -0.181036        1.000000        0.00015503
     195         -0.180604        1.000000        0.00007980
     196         -0.180449        0.000000        0.00012838
     197         -0.180244        0.000000        0.00006031
     198         -0.179472        0.000000        0.00018631
     199         -0.178619        0.000000        0.00016655
     200         -0.176910        0.000000        0.00017497
     201         -0.174053        0.000000        0.00002814
     202         -0.072600        0.000000        0.00010794
     203         -0.064909        0.000000        0.00013484
     204         -0.064185        0.000000        0.00014581
     205         -0.062672        0.000000        0.00007486
     206         -0.061672        0.000000        0.00016641
     207         -0.057991        0.000000        0.00013839
     208         -0.057532        0.000000        0.00009938
     209         -0.052254        0.000000        0.00006680
     210         -0.048420        0.000000        0.00010745
     211         -0.047217        0.000000        0.00017601
     212         -0.041069        0.000000        0.00021518
     213         -0.040889        0.000000        0.00026916
     214         -0.034724        0.000000        0.00010263
     215         -0.033273        0.000000        0.00018423
     216         -0.030304        0.000000        0.00008074
     217         -0.028944        0.000000        0.00036071
     218         -0.026478        0.000000        0.00053562
     219         -0.025704        0.000000        0.00012953
     220         -0.021607        0.000000        0.00025505
     221         -0.019674        0.000000        0.00021725
     222         -0.018155        0.000000        0.00014390
     223         -0.015696        0.000000        0.00008916
     224         -0.012135        0.000000        0.00004634
     225         -0.009109        0.000000        0.00011762
     226          0.067563        0.000000        0.00366528
     227          0.093947        0.000000        0.05433502
     228          0.095452        0.000000        0.04114005
     229          0.097634        0.000000        0.00353265
     230          0.106245        0.000000        0.00434414
     231          0.116676        0.000000        0.00357661
     232          0.119473        0.000000        0.00391491
     233          0.131558        0.000000        0.61880939
     234          0.144630        0.000000        0.62747473
     235          0.200192        0.000000        0.66089506
     236          0.220463        0.000000        0.65785784
     237          0.271988        0.000000        0.65152723
     238          0.283659        0.000000        0.66213959
     239          0.290102        0.000000        0.66308909
     240          0.291181        0.000000        0.66242304
     241          0.294683        0.000000        0.65902328
     242          0.295753        0.000000        0.66347994
     243          0.298812        0.000000        0.66514150
     244          0.302444        0.000000        0.66149840
     245          0.304331        0.000000        0.66252487
     246          0.310680        0.000000        0.64564081
     247          0.311108        0.000000        0.66010258
     248          0.313594        0.000000        0.66104803
     249          0.329496        0.000000        0.64095014
     250          0.333131        0.000000        0.63792067
     251          0.343046        0.000000        0.63138641
     252          0.351080        0.000000        0.62959690
     253          0.352360        0.000000        0.62964255
     254          0.437408        0.000000        0.58959725
     255          0.444693        0.000000        0.58798763
     256          0.452383        0.000000        0.59170167
     257          0.456708        0.000000        0.58599028
     258          0.461800        0.000000        0.58334864
     259          0.464457        0.000000        0.58411112
     260          0.466464        0.000000        0.58298137
     261          0.469248        0.000000        0.58355058
     262          0.470270        0.000000        0.58782336
     263          0.471511        0.000000        0.58152617
     264          0.474389        0.000000        0.58176978
     265          0.477866        0.000000        0.58075562
     266          0.479285        0.000000        0.58233103
     267          0.483367        0.000000        0.58188348
     268          0.557223        0.000000        0.55416057
     269          0.562313        0.000000        0.55181347
     270          0.564311        0.000000        0.55344305
     271          0.566129        0.000000        0.55234340
     272          0.574116        0.000000        0.55255120
     273          0.576113        0.000000        0.55234060
     274          0.578522        0.000000        0.55201705
