# Projected DOS for atomic kind Pb at iteration step i = 0, E(Fermi) =    -0.180287 a.u.
#     MO Eigenvalue [a.u.]      Occupation                 s                py                pz                px
       1         -0.980568        1.000000        0.00000001        0.00000014        0.00000019        0.00000016
       2         -0.959232        1.000000        0.00000010        0.00000220        0.00000277        0.00000123
       3         -0.951787        1.000000        0.00000004        0.00000084        0.00000062        0.00000036
       4         -0.945348        1.000000        0.00000039        0.00000474        0.00000486        0.00000234
       5         -0.938961        1.000000        0.00000042        0.00000525        0.00000376        0.00000242
       6         -0.930117        1.000000        0.00000031        0.00000259        0.00000342        0.00000070
       7         -0.926491        1.000000        0.00000290        0.00001762        0.00005102        0.00001163
       8         -0.711226        1.000000        0.00001033        0.00001561        0.00001684        0.00001034
       9         -0.694889        1.000000        0.00000937        0.00000998        0.00000448        0.00001263
      10         -0.693871        1.000000        0.00001792        0.00002763        0.00001696        0.00001824
      11         -0.687747        1.000000        0.00001557        0.00002703        0.00002181        0.00000781
      12         -0.682911        1.000000        0.00003654        0.00003688        0.00001919        0.00001182
      13         -0.675101        1.000000        0.00002115        0.00002442        0.00002054        0.00000293
      14         -0.673588        1.000000        0.00005398        0.00003357        0.00010193        0.00005125
      15         -0.608901        1.000000        0.00015245        0.00002220        0.00000336        0.00004035
      16         -0.606545        1.000000        0.05665931        0.00018836        0.01127319        0.00087315
      17         -0.599291        1.000000        0.08445933        0.00183778        0.00398517        0.01393696
      18         -0.598578        1.000000        0.04681051        0.00515726        0.01000318        0.00332295
      19         -0.596707        1.000000        0.06536781        0.00907955        0.00365716        0.00315638
      20         -0.596019        1.000000        0.00450127        0.00067072        0.00039587        0.00056638
      21         -0.592336        1.000000        0.05953906        0.00192378        0.00827114        0.00205048
      22         -0.591675        1.000000        0.02105745        0.00029264        0.00427689        0.00031121
      23         -0.588621        1.000000        0.06951946        0.00251166        0.00593428        0.01618456
      24         -0.588033        1.000000        0.02632875        0.00272558        0.00741046        0.00755882
      25         -0.587513        1.000000        0.03155147        0.00150871        0.00757634        0.00547219
      26         -0.586045        1.000000        0.02844979        0.00223680        0.00812552        0.01144457
      27         -0.583281        1.000000        0.03987491        0.00194627        0.00375789        0.01158484
      28         -0.581045        1.000000        0.00871785        0.00324222        0.00657180        0.00702660
      29         -0.579838        1.000000        0.02367513        0.00096351        0.00679293        0.01844399
      30         -0.577601        1.000000        0.04913253        0.00254772        0.00833959        0.01218599
      31         -0.575384        1.000000        0.04697486        0.00363632        0.01402682        0.00688471
      32         -0.574713        1.000000        0.02915816        0.00160632        0.00883963        0.00133008
      33         -0.574374        1.000000        0.03107240        0.00409850        0.01446296        0.00616200
      34         -0.573906        1.000000        0.04750228        0.00721353        0.01072722        0.00844094
      35         -0.573265        1.000000        0.02603996        0.00915432        0.00957750        0.00960314
      36         -0.571863        1.000000        0.03063927        0.00187759        0.01366564        0.01436274
      37         -0.571258        1.000000        0.02134141        0.01555639        0.00467938        0.00151884
      38         -0.571019        1.000000        0.02233015        0.01767404        0.00422534        0.00247632
      39         -0.570366        1.000000        0.00624770        0.00207310        0.00271901        0.00192648
      40         -0.569168        1.000000        0.00446209        0.01456162        0.00543511        0.00256058
      41         -0.569131        1.000000        0.00804837        0.01925448        0.00528973        0.00368013
      42         -0.567217        1.000000        0.02797505        0.00033450        0.00054631        0.01680105
      43         -0.566444        1.000000        0.01094849        0.00183593        0.00201138        0.00606063
      44         -0.564663        1.000000        0.00452867        0.00669642        0.00616369        0.00241553
      45         -0.563520        1.000000        0.00488957        0.01676781        0.00276302        0.00326497
      46         -0.563152        1.000000        0.00158090        0.00163175        0.00985572        0.00905966
      47         -0.562701        1.000000        0.00233589        0.00815370        0.00087188        0.00873379
      48         -0.562602        1.000000        0.00172699        0.00291230        0.00521920        0.01380702
      49         -0.562492        1.000000        0.00152420        0.00679053        0.00594099        0.00505038
      50         -0.561834        1.000000        0.00158681        0.01352643        0.00676010        0.00380789
      51         -0.561610        1.000000        0.00032518        0.00045316        0.01353296        0.01827771
      52         -0.560252        1.000000        0.00480642        0.00193168        0.02338135        0.00032527
      53         -0.559948        1.000000        0.00143586        0.01012519        0.00186525        0.00270055
      54         -0.559424        1.000000        0.00129486        0.00785312        0.00239519        0.00184292
      55         -0.557360        1.000000        0.00127305        0.00235009        0.00262594        0.00079985
      56         -0.556696        1.000000        0.01942897        0.01567298        0.00081498        0.00086103
      57         -0.556531        1.000000        0.00315097        0.00493466        0.00078920        0.00412224
      58         -0.554843        1.000000        0.00004584        0.00013378        0.00003317        0.00073263
      59         -0.553242        1.000000        0.00565081        0.01143807        0.00047046        0.00008978
      60         -0.550398        1.000000        0.00188987        0.00057330        0.00243462        0.00020123
      61         -0.545844        1.000000        0.00050064        0.00101182        0.00456567        0.00003336
      62         -0.543836        1.000000        0.00195511        0.00614867        0.00072468        0.00023279
      63         -0.542752        1.000000        0.00401038        0.00336148        0.00032811        0.00036350
      64         -0.537481        1.000000        0.00623732        0.00313209        0.00050347        0.00037678
      65         -0.498254        1.000000        0.00041804        0.00002227        0.00001987        0.00000102
      66         -0.481372        1.000000        0.00269673        0.00000576        0.00002349        0.00001633
      67         -0.476717        1.000000        0.00272821        0.00004454        0.00000413        0.00001437
      68         -0.468145        1.000000        0.01325012        0.00004646        0.00006620        0.00002257
      69         -0.463982        1.000000        0.13477440        0.00014435        0.00026421        0.00034166
      70         -0.463321        1.000000        0.61381142        0.00113721        0.00100338        0.00082755
      71         -0.462772        1.000000        0.66519333        0.00062461        0.00108407        0.00096884
      72         -0.459002        1.000000        0.73860461        0.00077445        0.00106247        0.00110732
      73         -0.456743        1.000000        0.59121814        0.00031833        0.00021356        0.00092173
      74         -0.456603        1.000000        0.63628250        0.00024540        0.00051855        0.00085426
      75         -0.455374        1.000000        0.22771387        0.00014553        0.00006653        0.00030751
      76         -0.453482        1.000000        0.28207266        0.00015200        0.00040124        0.00019719
      77         -0.451858        1.000000        0.56515575        0.00006430        0.00039510        0.00018139
      78         -0.449245        1.000000        0.74880512        0.00038481        0.00036075        0.00060859
      79         -0.446107        1.000000        0.77514703        0.00041186        0.00013155        0.00042481
      80         -0.424050        1.000000        0.00103114        0.00009998        0.00009615        0.00000897
      81         -0.420894        1.000000        0.00028379        0.00004439        0.00012515        0.00000360
      82         -0.411349        1.000000        0.00050229        0.00003550        0.00003143        0.00007207
      83         -0.408326        1.000000        0.00005910        0.00001359        0.00003434        0.00002260
      84         -0.407962        1.000000        0.00009380        0.00004627        0.00006289        0.00006585
      85         -0.405555        1.000000        0.00102838        0.00003357        0.00006837        0.00020077
      86         -0.403643        1.000000        0.00066110        0.00010677        0.00012224        0.00008602
      87         -0.401602        1.000000        0.00059988        0.00007997        0.00012022        0.00004023
      88         -0.399763        1.000000        0.00011647        0.00010544        0.00009415        0.00002888
      89         -0.396374        1.000000        0.00005847        0.00009137        0.00003407        0.00006219
      90         -0.391341        1.000000        0.00019128        0.00005161        0.00008607        0.00010788
      91         -0.390929        1.000000        0.00005760        0.00001352        0.00008314        0.00007044
      92         -0.389635        1.000000        0.00063146        0.00008220        0.00011377        0.00005081
      93         -0.389578        1.000000        0.00032096        0.00014675        0.00022554        0.00034346
      94         -0.282166        1.000000        0.00357432        0.00750971        0.13339924        0.09358456
      95         -0.280696        1.000000        0.00721561        0.01215548        0.10475114        0.12193434
      96         -0.279789        1.000000        0.00953538        0.04605098        0.08607423        0.08826347
      97         -0.271051        1.000000        0.00392770        0.22446958        0.02007876        0.02902144
      98         -0.269619        1.000000        0.00975475        0.07854310        0.00384349        0.17843491
      99         -0.267455        1.000000        0.00322282        0.13463247        0.09912742        0.02400702
     100         -0.266222        1.000000        0.00309416        0.06873016        0.03981318        0.11838842
     101         -0.264380        1.000000        0.00248587        0.03873658        0.10397609        0.10752595
     102         -0.263356        1.000000        0.00310628        0.11389076        0.10752632        0.04860443
     103         -0.262570        1.000000        0.00233308        0.09438040        0.09396533        0.06235759
     104         -0.261425        1.000000        0.00122790        0.15460183        0.03640644        0.07001182
     105         -0.261023        1.000000        0.00115707        0.05614032        0.15555771        0.05107608
     106         -0.256948        1.000000        0.00147755        0.02522224        0.14793938        0.06647482
     107         -0.253859        1.000000        0.00784567        0.07187374        0.08246501        0.05795325
     108         -0.248280        1.000000        0.00186133        0.03489653        0.08511020        0.08321126
     109         -0.247420        1.000000        0.00269081        0.04150663        0.12065396        0.04858454
     110         -0.244198        1.000000        0.00149430        0.03138102        0.03593565        0.14349313
     111         -0.243103        1.000000        0.00064292        0.02465228        0.04390179        0.15922664
     112         -0.241620        1.000000        0.00488043        0.02284670        0.11351867        0.02229371
     113         -0.239545        1.000000        0.00191676        0.05191441        0.04672064        0.06915818
     114         -0.238571        1.000000        0.00331684        0.04550510        0.10433851        0.04915520
     115         -0.237551        1.000000        0.00580088        0.14069122        0.04058357        0.00803594
     116         -0.236884        1.000000        0.00312926        0.08102651        0.01648475        0.03240904
     117         -0.232585        1.000000        0.00175857        0.03432000        0.01070759        0.01844805
     118         -0.231732        1.000000        0.00384675        0.07799739        0.02096738        0.02072293
     119         -0.230406        1.000000        0.00402534        0.08891232        0.01286299        0.01202780
     120         -0.228905        1.000000        0.00280027        0.01340862        0.00809516        0.01583235
     121         -0.228023        1.000000        0.00194230        0.01610857        0.02292423        0.01352676
     122         -0.226521        1.000000        0.00637398        0.08736115        0.00700885        0.01100488
     123         -0.225971        1.000000        0.00595095        0.01741467        0.01329717        0.07689631
     124         -0.223312        1.000000        0.00330505        0.00994642        0.00611184        0.02546629
     125         -0.221701        1.000000        0.01212805        0.03816670        0.01906949        0.01587831
     126         -0.220517        1.000000        0.00632672        0.00626914        0.01983524        0.00929032
     127         -0.218193        1.000000        0.00125401        0.01258220        0.00415285        0.01385778
     128         -0.217820        1.000000        0.00524286        0.00953641        0.01208205        0.00880469
     129         -0.216360        1.000000        0.00125863        0.00562996        0.00535439        0.01065467
     130         -0.215585        1.000000        0.00882767        0.01913201        0.02692961        0.00714559
     131         -0.213804        1.000000        0.00257766        0.00873363        0.00447159        0.00573840
     132         -0.212552        1.000000        0.00270176        0.01493610        0.00533997        0.01145937
     133         -0.210903        1.000000        0.00100213        0.00572894        0.00563247        0.00188000
     134         -0.209646        1.000000        0.00166330        0.00065783        0.00213988        0.00189497
     135         -0.208801        1.000000        0.00091114        0.00152643        0.00185146        0.00184125
     136         -0.208248        1.000000        0.00517761        0.00462723        0.00340120        0.00682387
     137         -0.207268        1.000000        0.00322347        0.00514031        0.00402417        0.00414507
     138         -0.205965        1.000000        0.00056005        0.00211421        0.00131987        0.00098894
     139         -0.205677        1.000000        0.00185547        0.00379762        0.00130426        0.00240485
     140         -0.204988        1.000000        0.00208244        0.00235777        0.00106823        0.00291068
     141         -0.204046        1.000000        0.00187553        0.00238662        0.00212154        0.00171605
     142         -0.202936        1.000000        0.00137217        0.00291552        0.00323113        0.00055785
     143         -0.202601        1.000000        0.00181814        0.00080592        0.00208244        0.00099969
     144         -0.201313        1.000000        0.00172688        0.00096568        0.00313127        0.00145164
     145         -0.200516        1.000000        0.00284967        0.00127484        0.00119564        0.00163978
     146         -0.199658        1.000000        0.00292565        0.00048638        0.00123938        0.00113976
     147         -0.199054        1.000000        0.00269789        0.00091325        0.00171119        0.00095404
     148         -0.198009        1.000000        0.00691984        0.00132107        0.00179411        0.00285233
     149         -0.197674        1.000000        0.00483931        0.00295256        0.00092218        0.00098930
     150         -0.196917        1.000000        0.00590237        0.00227413        0.00229630        0.00097399
     151         -0.196672        1.000000        0.00246911        0.00178789        0.00053394        0.00088085
     152         -0.195710        1.000000        0.00175720        0.00073910        0.00064389        0.00183538
     153         -0.195402        1.000000        0.00217439        0.00137744        0.00059943        0.00091232
     154         -0.195357        1.000000        0.00195600        0.00065037        0.00109862        0.00101204
     155         -0.194931        1.000000        0.00717469        0.00375879        0.00174459        0.00026642
     156         -0.194334        1.000000        0.00626842        0.00185711        0.00227449        0.00129797
     157         -0.193565        1.000000        0.00886197        0.00264902        0.00298721        0.00095311
     158         -0.192952        1.000000        0.00816465        0.00288851        0.00121509        0.00077662
     159         -0.192606        1.000000        0.00790617        0.00181612        0.00162215        0.00122632
     160         -0.192516        1.000000        0.00411935        0.00210144        0.00162285        0.00089156
     161         -0.192010        1.000000        0.00418543        0.00128580        0.00049550        0.00084678
     162         -0.191783        1.000000        0.00446555        0.00088194        0.00083943        0.00142115
     163         -0.191377        1.000000        0.00437258        0.00148540        0.00102528        0.00038387
     164         -0.191021        1.000000        0.00418064        0.00136683        0.00147774        0.00103481
     165         -0.190799        1.000000        0.00114858        0.00067407        0.00023567        0.00041473
     166         -0.189926        1.000000        0.00840313        0.00265003        0.00181077        0.00082560
     167         -0.189591        1.000000        0.00575434        0.00123839        0.00035861        0.00029087
     168         -0.189374        1.000000        0.00296451        0.00159344        0.00044621        0.00067480
     169         -0.188958        1.000000        0.00621563        0.00116533        0.00164758        0.00095991
     170         -0.188422        1.000000        0.00188125        0.00059407        0.00040458        0.00035155
     171         -0.188156        1.000000        0.01047733        0.00184362        0.00245158        0.00262476
     172         -0.187839        1.000000        0.00359330        0.00051571        0.00007306        0.00049831
     173         -0.187523        1.000000        0.00512885        0.00023349        0.00084956        0.00164570
     174         -0.187160        1.000000        0.00387685        0.00040064        0.00108247        0.00116951
     175         -0.186957        1.000000        0.00344533        0.00044339        0.00050001        0.00210217
     176         -0.186633        1.000000        0.01054637        0.00091812        0.00157823        0.00139542
     177         -0.185813        1.000000        0.00533599        0.00231316        0.00116672        0.00098599
     178         -0.185623        1.000000        0.00595628        0.00120044        0.00092140        0.00122944
     179         -0.185260        1.000000        0.00740416        0.00106185        0.00070756        0.00077876
     180         -0.185108        1.000000        0.00359549        0.00071669        0.00016946        0.00115034
     181         -0.184459        1.000000        0.01651376        0.00156141        0.00126532        0.00051363
     182         -0.184159        1.000000        0.03283823        0.00357820        0.00362112        0.00490833
     183         -0.183927        1.000000        0.00639163        0.00037092        0.00077434        0.00091698
     184         -0.183513        1.000000        0.01909145        0.00308117        0.00142866        0.00308092
     185         -0.183418        1.000000        0.00561270        0.00053320        0.00206033        0.00069059
     186         -0.182726        1.000000        0.01869418        0.00041386        0.00170427        0.00322861
     187         -0.182531        1.000000        0.01332856        0.00068379        0.00077887        0.00049837
     188         -0.182261        1.000000        0.00471250        0.00042457        0.00066640        0.00062270
     189         -0.182078        1.000000        0.02033386        0.00130137        0.00220453        0.00222567
     190         -0.180981        1.000000        0.01457905        0.00115658        0.00114405        0.00087687
     191         -0.180775        1.000000        0.00572081        0.00019060        0.00066740        0.00168863
     192         -0.180634        1.000000        0.01503880        0.00022850        0.00098486        0.00033401
     193         -0.180358        1.000000        0.00103446        0.00001734        0.00010721        0.00009344
     194         -0.180287        1.000000        0.00791086        0.00029512        0.00060317        0.00084696
     195         -0.180269        0.000000        0.00714637        0.00030472        0.00055907        0.00041607
     196         -0.180075        0.000000        0.01224612        0.00017717        0.00054864        0.00073514
     197         -0.179566        0.000000        0.04695386        0.00151600        0.00220557        0.00224719
     198         -0.179318        0.000000        0.05178550        0.00104823        0.00084889        0.00321703
     199         -0.178523        0.000000        0.07935115        0.00077650        0.00335049        0.00255553
     200         -0.176971        0.000000        0.10815296        0.00115337        0.00446885        0.00238580
     201         -0.173042        0.000000        0.09748774        0.00133647        0.00050003        0.00284890
     202         -0.072433        0.000000        0.00457818        0.43936668        0.23589028        0.06718381
     203         -0.064772        0.000000        0.00930242        0.29195283        0.16578073        0.26270382
     204         -0.064066        0.000000        0.00673684        0.19581243        0.27872470        0.24445369
     205         -0.062622        0.000000        0.00303664        0.28387846        0.07121406        0.35774807
     206         -0.061608        0.000000        0.00231169        0.03449946        0.33937272        0.35491417
     207         -0.057886        0.000000        0.00177925        0.27936184        0.19629977        0.23207487
     208         -0.057447        0.000000        0.00221576        0.40750252        0.14052331        0.16333243
     209         -0.051972        0.000000        0.00318977        0.59756368        0.02824924        0.08590426
     210         -0.048127        0.000000        0.00323557        0.10059478        0.03406821        0.57404711
     211         -0.047050        0.000000        0.00100106        0.03810620        0.60571188        0.05456212
     212         -0.041055        0.000000        0.00187282        0.08924045        0.42439662        0.18409395
     213         -0.040634        0.000000        0.00210985        0.19769692        0.48836817        0.01998374
     214         -0.034814        0.000000        0.00132886        0.06024397        0.17791956        0.44633074
     215         -0.033225        0.000000        0.00125998        0.03597234        0.21790028        0.43064751
     216         -0.029892        0.000000        0.00070805        0.13705720        0.44016514        0.12361473
     217         -0.028707        0.000000        0.00027670        0.52797782        0.12409298        0.04021068
     218         -0.026131        0.000000        0.00029250        0.51486354        0.12967956        0.03062377
     219         -0.025776        0.000000        0.00206866        0.02899992        0.26261186        0.39315419
     220         -0.021640        0.000000        0.00159121        0.03897911        0.04245608        0.60460451
     221         -0.019686        0.000000        0.00114403        0.02204981        0.52513583        0.12767658
     222         -0.018146        0.000000        0.00110982        0.04279805        0.50586059        0.13131534
     223         -0.015526        0.000000        0.00024407        0.58611024        0.07446230        0.01668003
     224         -0.011868        0.000000        0.00159089        0.01133262        0.06894113        0.60102066
     225         -0.008819        0.000000        0.00037862        0.60309176        0.00331894        0.05894930
     226          0.067598        0.000000        0.00000417        0.00005904        0.00011542        0.00004172
     227          0.094019        0.000000        0.00000319        0.00011864        0.00004983        0.00001187
     228          0.095525        0.000000        0.00000333        0.00006571        0.00009762        0.00002122
     229          0.097661        0.000000        0.00000374        0.00005963        0.00007809        0.00007010
     230          0.106305        0.000000        0.00000018        0.00000391        0.00002889        0.00000255
     231          0.116722        0.000000        0.00000045        0.00011283        0.00016346        0.00003754
     232          0.119555        0.000000        0.00000091        0.00003203        0.00002660        0.00000943
     233          0.131647        0.000000        0.00000029        0.00001393        0.00000286        0.00000567
     234          0.144751        0.000000        0.00000255        0.00001319        0.00004461        0.00000446
     235          0.200226        0.000000        0.00000045        0.00000657        0.00000366        0.00000411
     236          0.220504        0.000000        0.00000635        0.00000786        0.00000170        0.00008927
     237          0.272058        0.000000        0.00000122        0.00000039        0.00000615        0.00002068
     238          0.283711        0.000000        0.00000188        0.00000513        0.00004097        0.00000189
     239          0.290155        0.000000        0.00000469        0.00001352        0.00004584        0.00001920
     240          0.291252        0.000000        0.00000148        0.00010230        0.00006255        0.00001837
     241          0.294690        0.000000        0.00000097        0.00002451        0.00002691        0.00000402
     242          0.295790        0.000000        0.00000255        0.00009132        0.00023932        0.00000463
     243          0.298827        0.000000        0.00000710        0.00005832        0.00001952        0.00001080
     244          0.302494        0.000000        0.00000180        0.00003372        0.00001189        0.00000991
     245          0.304404        0.000000        0.00000988        0.00009418        0.00013077        0.00002227
     246          0.310762        0.000000        0.00000137        0.00001629        0.00011562        0.00001213
     247          0.311179        0.000000        0.00000571        0.00005555        0.00008111        0.00002126
     248          0.313659        0.000000        0.00000065        0.00000306        0.00004195        0.00002076
     249          0.329507        0.000000        0.00001711        0.00005859        0.00005390        0.00003314
     250          0.333163        0.000000        0.00000308        0.00004435        0.00002725        0.00008677
     251          0.343059        0.000000        0.00000432        0.00000533        0.00000380        0.00001247
     252          0.351147        0.000000        0.00000059        0.00004848        0.00006760        0.00002424
     253          0.352434        0.000000        0.00000811        0.00009160        0.00010313        0.00001288
     254          0.437470        0.000000        0.00000061        0.00002427        0.00002704        0.00002494
     255          0.444702        0.000000        0.00000078        0.00000622        0.00001821        0.00000371
     256          0.452418        0.000000        0.00000339        0.00002294        0.00004168        0.00001620
     257          0.456806        0.000000        0.00000251        0.00001776        0.00000932        0.00000373
     258          0.461893        0.000000        0.00000021        0.00000108        0.00000682        0.00000095
     259          0.464544        0.000000        0.00000082        0.00001420        0.00001798        0.00002752