# Projected DOS for atomic kind C at iteration step i = 0, E(Fermi) =    -0.180604 a.u.
#     MO Eigenvalue [a.u.]      Occupation                 s                py                pz                px
       1         -0.980610        1.000000        0.05519692        0.00016461        0.00037413        0.04321410
       2         -0.959299        1.000000        0.06021577        0.00526921        0.02812973        0.01275120
       3         -0.951829        1.000000        0.06577615        0.00092547        0.01945813        0.02677374
       4         -0.945395        1.000000        0.05781083        0.00000009        0.00556667        0.03720422
       5         -0.938990        1.000000        0.05995825        0.00007326        0.00080500        0.04297165
       6         -0.930187        1.000000        0.06181807        0.00038434        0.00062212        0.04357828
       7         -0.926542        1.000000        0.06141025        0.00000001        0.00231531        0.04167459
       8         -0.711274        1.000000        0.43884321        0.00000915        0.00007752        0.00041729
       9         -0.694966        1.000000        0.43156405        0.00009004        0.00086375        0.00078252
      10         -0.693947        1.000000        0.43229500        0.00015304        0.00032810        0.00012409
      11         -0.687800        1.000000        0.44147717        0.00000898        0.00007643        0.00112503
      12         -0.682967        1.000000        0.43954906        0.00000717        0.00005250        0.00085800
      13         -0.675190        1.000000        0.43731708        0.00000522        0.00002206        0.00125991
      14         -0.673658        1.000000        0.43941765        0.00001349        0.00002584        0.00155457
      15         -0.608955        1.000000        0.00050687        0.00017459        0.04676992        0.00148521
      16         -0.607542        1.000000        0.00003874        0.00264905        0.00053128        0.00008717
      17         -0.599352        1.000000        0.00016595        0.00419703        0.00065114        0.00026069
      18         -0.598050        1.000000        0.00080604        0.00311744        0.00053304        0.00077182
      19         -0.596577        1.000000        0.00037272        0.00626347        0.00602388        0.00138640
      20         -0.596052        1.000000        0.00039331        0.04901300        0.00081256        0.00094227
      21         -0.592395        1.000000        0.00030837        0.00482462        0.00162127        0.00057773
      22         -0.591722        1.000000        0.00014830        0.03181018        0.00757387        0.00012915
      23         -0.588870        1.000000        0.00020197        0.00066602        0.00070727        0.00010330
      24         -0.588072        1.000000        0.00018150        0.00383391        0.00550337        0.00426709
      25         -0.587284        1.000000        0.00038173        0.00439868        0.00217337        0.00190803
      26         -0.585707        1.000000        0.00019085        0.00334233        0.00281749        0.00088630
      27         -0.583883        1.000000        0.00015883        0.00304499        0.00773158        0.00726472
      28         -0.581124        1.000000        0.00031932        0.00266254        0.01001856        0.01087205
      29         -0.579805        1.000000        0.00032489        0.00175039        0.00056787        0.00074007
      30         -0.578294        1.000000        0.00027749        0.00194305        0.00115761        0.00246601
      31         -0.577059        1.000000        0.00015146        0.00016201        0.00099404        0.00016239
      32         -0.575898        1.000000        0.00006596        0.01315931        0.00191448        0.00025351
      33         -0.575390        1.000000        0.00011305        0.00418495        0.00055289        0.00041230
      34         -0.574684        1.000000        0.00023372        0.00347371        0.00028026        0.00099046
      35         -0.573712        1.000000        0.00004162        0.00104329        0.00013517        0.00029430
      36         -0.572881        1.000000        0.00065307        0.00045572        0.00370429        0.00088664
      37         -0.572306        1.000000        0.00009405        0.00041493        0.00049522        0.00029732
      38         -0.571712        1.000000        0.00043973        0.00118122        0.00797343        0.00261307
      39         -0.570644        1.000000        0.00024518        0.00042491        0.00162314        0.00012712
      40         -0.569417        1.000000        0.00012552        0.00011833        0.00034821        0.00057521
      41         -0.568774        1.000000        0.00056272        0.00226503        0.01442771        0.01344477
      42         -0.567282        1.000000        0.00011485        0.00180040        0.00383271        0.00371475
      43         -0.566962        1.000000        0.00002170        0.01113298        0.00183130        0.00028097
      44         -0.566359        1.000000        0.00001796        0.00049241        0.00058556        0.00055092
      45         -0.566192        1.000000        0.00014988        0.00160765        0.01281648        0.01252986
      46         -0.565403        1.000000        0.00012874        0.01693434        0.00123283        0.00084474
      47         -0.564243        1.000000        0.00041017        0.00195811        0.00802423        0.00247927
      48         -0.563249        1.000000        0.00004214        0.01135316        0.00637026        0.00117538
      49         -0.563070        1.000000        0.00006449        0.00149667        0.00564359        0.00344323
      50         -0.562462        1.000000        0.00016906        0.00876949        0.00321927        0.00392720
      51         -0.561757        1.000000        0.00006135        0.00014969        0.00019064        0.00020242
      52         -0.560499        1.000000        0.00007864        0.01043434        0.02140185        0.00317695
      53         -0.559960        1.000000        0.00029759        0.01070570        0.00161843        0.00151760
      54         -0.559294        1.000000        0.00001017        0.00061621        0.00021546        0.00012875
      55         -0.558127        1.000000        0.00027408        0.00509685        0.00052480        0.00011050
      56         -0.557616        1.000000        0.00123426        0.04872870        0.00700623        0.00532080
      57         -0.556842        1.000000        0.00043112        0.01392822        0.02511731        0.00150179
      58         -0.555001        1.000000        0.00002956        0.00059815        0.00006030        0.00000343
      59         -0.554299        1.000000        0.00000734        0.00024531        0.00002193        0.00001864
      60         -0.550566        1.000000        0.00002925        0.05394787        0.00219005        0.00015649
      61         -0.546424        1.000000        0.00004678        0.02516409        0.02708504        0.00129065
      62         -0.544193        1.000000        0.00010363        0.03708542        0.01236524        0.00033072
      63         -0.543030        1.000000        0.00002308        0.00239355        0.05698204        0.00157496
      64         -0.537150        1.000000        0.00008165        0.02203394        0.03217371        0.00095550
      65         -0.498297        1.000000        0.03106021        0.00210700        0.00287571        0.32804882
      66         -0.481445        1.000000        0.03055055        0.04514202        0.20510519        0.08321775
      67         -0.476783        1.000000        0.02505207        0.00320713        0.14838915        0.18460211
      68         -0.468185        1.000000        0.02382791        0.00005032        0.04379864        0.29139834
      69         -0.464051        1.000000        0.02084538        0.00116181        0.00666445        0.26206028
      70         -0.463347        1.000000        0.00411305        0.00049702        0.00143520        0.05477541
      71         -0.462907        1.000000        0.00115100        0.00012131        0.00101016        0.01194959
      72         -0.459010        1.000000        0.00017566        0.00048030        0.00029551        0.00265188
      73         -0.456828        1.000000        0.00335887        0.00054568        0.00095893        0.04813591
      74         -0.456771        1.000000        0.00603750        0.00053536        0.00186494        0.08250643
      75         -0.455442        1.000000        0.01688434        0.00137527        0.00470152        0.23203993
      76         -0.453595        1.000000        0.01346824        0.00017749        0.00926680        0.20006347
      77         -0.452002        1.000000        0.00739169        0.00061168        0.00657056        0.10101588
      78         -0.449290        1.000000        0.00011591        0.00009164        0.00047741        0.00086780
      79         -0.446618        1.000000        0.00058746        0.00033978        0.00036230        0.00721587
      80         -0.424092        1.000000        0.00002140        0.49482271        0.04308363        0.00463081
      81         -0.420954        1.000000        0.00000258        0.04491319        0.50456541        0.00251611
      82         -0.411451        1.000000        0.00001753        0.26786936        0.11834892        0.14916766
      83         -0.408431        1.000000        0.00000508        0.24413232        0.19736020        0.08165332
      84         -0.408057        1.000000        0.00009717        0.06434501        0.19204416        0.27594358
      85         -0.405612        1.000000        0.00002485        0.36918397        0.13923767        0.01926219
      86         -0.403726        1.000000        0.00002835        0.15734420        0.32392898        0.04847184
      87         -0.401652        1.000000        0.00013933        0.41230838        0.00566119        0.12671028
      88         -0.399833        1.000000        0.00003046        0.03375551        0.48080447        0.01367470
      89         -0.396458        1.000000        0.00000242        0.50197994        0.03788034        0.00010499
      90         -0.391422        1.000000        0.00001755        0.44742477        0.07313518        0.00563489
      91         -0.391022        1.000000        0.00000195        0.44960036        0.07425699        0.00795051
      92         -0.389719        1.000000        0.00001464        0.05658759        0.46552552        0.00866704
      93         -0.389667        1.000000        0.00002688        0.10188011        0.40983261        0.01776963
      94         -0.282629        1.000000        0.00004515        0.00013035        0.00029481        0.00009648
      95         -0.280664        1.000000        0.00006006        0.00008332        0.00012506        0.00015313
      96         -0.278992        1.000000        0.00015072        0.00155223        0.00064010        0.00019336
      97         -0.271385        1.000000        0.00010146        0.00072006        0.00025449        0.00003657
      98         -0.269422        1.000000        0.00002326        0.00023462        0.00016925        0.00002120
      99         -0.267947        1.000000        0.00007150        0.00051337        0.00015382        0.00022168
     100         -0.266171        1.000000        0.00004371        0.00014062        0.00012450        0.00014190
     101         -0.264605        1.000000        0.00002742        0.00021846        0.00021654        0.00006970
     102         -0.263733        1.000000        0.00002623        0.00032459        0.00086177        0.00022407
     103         -0.262994        1.000000        0.00010717        0.00007607        0.00026918        0.00038565
     104         -0.262175        1.000000        0.00019701        0.00020866        0.00025467        0.00007338
     105         -0.261266        1.000000        0.00025740        0.00044588        0.00012327        0.00013708
     106         -0.257423        1.000000        0.00015485        0.00091456        0.00014880        0.00011782
     107         -0.254013        1.000000        0.00021184        0.00052080        0.00021472        0.00028402
     108         -0.248854        1.000000        0.00062461        0.00065296        0.00035181        0.00112550
     109         -0.247947        1.000000        0.00046836        0.00094318        0.00010919        0.00061465
     110         -0.244969        1.000000        0.00036442        0.00021416        0.00019713        0.00019450
     111         -0.243570        1.000000        0.00005459        0.00049569        0.00015342        0.00026909
     112         -0.242379        1.000000        0.00020179        0.00140770        0.00023145        0.00067033
     113         -0.239692        1.000000        0.00010254        0.00032954        0.00020778        0.00038818
     114         -0.239024        1.000000        0.00032688        0.00008635        0.00049957        0.00031362
     115         -0.238253        1.000000        0.00003612        0.00037995        0.00019852        0.00013248
     116         -0.237457        1.000000        0.00032330        0.00111120        0.00042408        0.00108167
     117         -0.232992        1.000000        0.00014652        0.00016841        0.00078108        0.00165273
     118         -0.232364        1.000000        0.00044553        0.00040487        0.00031214        0.00039706
     119         -0.231054        1.000000        0.00014854        0.00054650        0.00090525        0.00093924
     120         -0.229642        1.000000        0.00012193        0.00032275        0.00006073        0.00014409
     121         -0.228623        1.000000        0.00029591        0.00039674        0.00014171        0.00028517
     122         -0.227288        1.000000        0.00054803        0.00040772        0.00024067        0.00088348
     123         -0.226315        1.000000        0.00030243        0.00080615        0.00035073        0.00050284
     124         -0.223535        1.000000        0.00009852        0.00053740        0.00088610        0.00051238
     125         -0.222097        1.000000        0.00045420        0.00080870        0.00025248        0.00010835
     126         -0.221108        1.000000        0.00056296        0.00051340        0.00022184        0.00058481
     127         -0.218597        1.000000        0.00031523        0.00080890        0.00017245        0.00054057
     128         -0.217673        1.000000        0.00038593        0.00031676        0.00044237        0.00065466
     129         -0.216866        1.000000        0.00052191        0.00029807        0.00018141        0.00085792
     130         -0.215834        1.000000        0.00016699        0.00058296        0.00078166        0.00060955
     131         -0.214474        1.000000        0.00059967        0.00155813        0.00018971        0.00058933
     132         -0.213008        1.000000        0.00016033        0.00016457        0.00092931        0.00038237
     133         -0.211578        1.000000        0.00048541        0.00048211        0.00084525        0.00065942
     134         -0.210051        1.000000        0.00037589        0.00045862        0.00081034        0.00020205
     135         -0.209376        1.000000        0.00027814        0.00039262        0.00024792        0.00009923
     136         -0.208382        1.000000        0.00022411        0.00018208        0.00115493        0.00028218
     137         -0.207322        1.000000        0.00006737        0.00035884        0.00070113        0.00004711
     138         -0.206804        1.000000        0.00059991        0.00093190        0.00070755        0.00048706
     139         -0.206154        1.000000        0.00015867        0.00020185        0.00060773        0.00026517
     140         -0.205578        1.000000        0.00006955        0.00027777        0.00011408        0.00013254
     141         -0.205045        1.000000        0.00013131        0.00006123        0.00022014        0.00013161
     142         -0.203951        1.000000        0.00030289        0.00014342        0.00035325        0.00004667
     143         -0.202892        1.000000        0.00025925        0.00014313        0.00050412        0.00009590
     144         -0.201651        1.000000        0.00006614        0.00023761        0.00015238        0.00042484
     145         -0.201023        1.000000        0.00002927        0.00020992        0.00018830        0.00020461
     146         -0.200559        1.000000        0.00012059        0.00048075        0.00040825        0.00050913
     147         -0.199475        1.000000        0.00009267        0.00025559        0.00042947        0.00003014
     148         -0.199060        1.000000        0.00012089        0.00028558        0.00016219        0.00027349
     149         -0.198489        1.000000        0.00006225        0.00033654        0.00029626        0.00023398
     150         -0.197777        1.000000        0.00007449        0.00004477        0.00017124        0.00030216
     151         -0.197420        1.000000        0.00019110        0.00017812        0.00005857        0.00019417
     152         -0.196377        1.000000        0.00009110        0.00008398        0.00030228        0.00036962
     153         -0.196281        1.000000        0.00015513        0.00097869        0.00013995        0.00033309
     154         -0.196129        1.000000        0.00026306        0.00012850        0.00026659        0.00015731
     155         -0.195514        1.000000        0.00004230        0.00016559        0.00056517        0.00015583
     156         -0.195154        1.000000        0.00005820        0.00040527        0.00029024        0.00002586
     157         -0.194586        1.000000        0.00011228        0.00011424        0.00036939        0.00005975
     158         -0.193932        1.000000        0.00001786        0.00019553        0.00039272        0.00020925
     159         -0.193003        1.000000        0.00027127        0.00009511        0.00018773        0.00016649
     160         -0.192747        1.000000        0.00005301        0.00031703        0.00034051        0.00008939
     161         -0.192505        1.000000        0.00019878        0.00029177        0.00027274        0.00014221
     162         -0.192153        1.000000        0.00003242        0.00023351        0.00031748        0.00014265
     163         -0.191479        1.000000        0.00002040        0.00026775        0.00018318        0.00022801
     164         -0.191005        1.000000        0.00006552        0.00003309        0.00029492        0.00009374
     165         -0.190550        1.000000        0.00007776        0.00018349        0.00008426        0.00010439
     166         -0.190299        1.000000        0.00010274        0.00033207        0.00013301        0.00024491
     167         -0.189879        1.000000        0.00005975        0.00009125        0.00004511        0.00004674
     168         -0.189709        1.000000        0.00023599        0.00003590        0.00013915        0.00008404
     169         -0.189533        1.000000        0.00005532        0.00007917        0.00011622        0.00002850
     170         -0.189031        1.000000        0.00009109        0.00019959        0.00015576        0.00026799
     171         -0.188839        1.000000        0.00016333        0.00001298        0.00020169        0.00004428
     172         -0.188612        1.000000        0.00011725        0.00043098        0.00008005        0.00012387
     173         -0.188366        1.000000        0.00004366        0.00006655        0.00018405        0.00008494
     174         -0.187975        1.000000        0.00011703        0.00003930        0.00045722        0.00003210
     175         -0.187904        1.000000        0.00005592        0.00013583        0.00021788        0.00006962
     176         -0.187410        1.000000        0.00003527        0.00005301        0.00014916        0.00025035
     177         -0.186857        1.000000        0.00007784        0.00012697        0.00007057        0.00002536
     178         -0.186640        1.000000        0.00005206        0.00012853        0.00007304        0.00005266
     179         -0.186473        1.000000        0.00005882        0.00010008        0.00013236        0.00010900
     180         -0.186117        1.000000        0.00004702        0.00007361        0.00018284        0.00011215
     181         -0.186052        1.000000        0.00008574        0.00016469        0.00023587        0.00004751
     182         -0.185293        1.000000        0.00001042        0.00005082        0.00005095        0.00005056
     183         -0.185176        1.000000        0.00008769        0.00016551        0.00015394        0.00008880
     184         -0.185020        1.000000        0.00010332        0.00001245        0.00005354        0.00002710
     185         -0.184517        1.000000        0.00003063        0.00014435        0.00005429        0.00008301
     186         -0.184022        1.000000        0.00008875        0.00013803        0.00005585        0.00002270
     187         -0.183997        1.000000        0.00006547        0.00002423        0.00008199        0.00006005
     188         -0.183677        1.000000        0.00004810        0.00018997        0.00005166        0.00003769
     189         -0.182924        1.000000        0.00006940        0.00021075        0.00016858        0.00003782
     190         -0.182749        1.000000        0.00006752        0.00006472        0.00015151        0.00001956
     191         -0.182107        1.000000        0.00004618        0.00013825        0.00008369        0.00001936
     192         -0.181780        1.000000        0.00012324        0.00003563        0.00054475        0.00003063
     193         -0.181339        1.000000        0.00011476        0.00004672        0.00006364        0.00003967
     194         -0.181036        1.000000        0.00002851        0.00007741        0.00022734        0.00006641
     195         -0.180604        1.000000        0.00001943        0.00007304        0.00013597        0.00001391
     196         -0.180449        0.000000        0.00004832        0.00001114        0.00003669        0.00003693
     197         -0.180244        0.000000        0.00004129        0.00002561        0.00007221        0.00002416
     198         -0.179472        0.000000        0.00003258        0.00006179        0.00012138        0.00006700
     199         -0.178619        0.000000        0.00001676        0.00003819        0.00003294        0.00001385
     200         -0.176910        0.000000        0.00003895        0.00007933        0.00005541        0.00000631
     201         -0.174053        0.000000        0.00000685        0.00001968        0.00003303        0.00000656
     202         -0.072600        0.000000        0.00006109        0.00010378        0.00002700        0.00003573
     203         -0.064909        0.000000        0.00003616        0.00000997        0.00003714        0.00009898
     204         -0.064185        0.000000        0.00001051        0.00004816        0.00003255        0.00003170
     205         -0.062672        0.000000        0.00000900        0.00000661        0.00000761        0.00000686
     206         -0.061672        0.000000        0.00004104        0.00009002        0.00000789        0.00001811
     207         -0.057991        0.000000        0.00005756        0.00002920        0.00002342        0.00002171
     208         -0.057532        0.000000        0.00001132        0.00001690        0.00005084        0.00002587
     209         -0.052254        0.000000        0.00001328        0.00000856        0.00000638        0.00003163
     210         -0.048420        0.000000        0.00007906        0.00009925        0.00004544        0.00000707
     211         -0.047217        0.000000        0.00000451        0.00001652        0.00001194        0.00001387
     212         -0.041069        0.000000        0.00009627        0.00009105        0.00003328        0.00003589
     213         -0.040889        0.000000        0.00010578        0.00006839        0.00010372        0.00008781
     214         -0.034724        0.000000        0.00002705        0.00003490        0.00000791        0.00007020
     215         -0.033273        0.000000        0.00002539        0.00006419        0.00001079        0.00007080
     216         -0.030304        0.000000        0.00003194        0.00002267        0.00000087        0.00003208
     217         -0.028944        0.000000        0.00001118        0.00001307        0.00004356        0.00000352
     218         -0.026478        0.000000        0.00002326        0.00001828        0.00001967        0.00007501
     219         -0.025704        0.000000        0.00004133        0.00005145        0.00003732        0.00001798
     220         -0.021607        0.000000        0.00002110        0.00001762        0.00002232        0.00004135
     221         -0.019674        0.000000        0.00000581        0.00000666        0.00006383        0.00003642
     222         -0.018155        0.000000        0.00003330        0.00000215        0.00000586        0.00006116
     223         -0.015696        0.000000        0.00001129        0.00001343        0.00003391        0.00004042
     224         -0.012135        0.000000        0.00001313        0.00000473        0.00000362        0.00000707
     225         -0.009109        0.000000        0.00001679        0.00000303        0.00002078        0.00002239
     226          0.067563        0.000000        0.08595537        0.00319490        0.00720293        0.54792692
     227          0.093947        0.000000        0.07322097        0.00831387        0.20928264        0.29661625
     228          0.095452        0.000000        0.08157047        0.06260176        0.31792960        0.14241448
     229          0.097634        0.000000        0.07926272        0.00006941        0.07118319        0.48367361
     230          0.106245        0.000000        0.08001558        0.00084144        0.01083866        0.53938176
     231          0.116676        0.000000        0.08068521        0.00014287        0.02886117        0.51965214
     232          0.119473        0.000000        0.08105607        0.00442136        0.00919312        0.53414163
     233          0.131558        0.000000        0.00965801        0.00077953        0.01267431        0.02404635
     234          0.144630        0.000000        0.00817893        0.00369207        0.01862591        0.00586523
     235          0.200192        0.000000        0.00042876        0.00075465        0.00021883        0.00000122
     236          0.220463        0.000000        0.00200429        0.00080525        0.00049850        0.00087366
     237          0.271988        0.000000        0.00185101        0.00002325        0.00276664        0.00000421
     238          0.283659        0.000000        0.00009956        0.00579011        0.00051596        0.00014882
     239          0.290102        0.000000        0.00000936        0.00004433        0.00516835        0.00042942
     240          0.291181        0.000000        0.00003125        0.00518040        0.00041599        0.00010553
     241          0.294683        0.000000        0.00032073        0.00613445        0.00023495        0.00031926
     242          0.295753        0.000000        0.00010353        0.00044941        0.00577979        0.00025748
     243          0.298812        0.000000        0.00007778        0.00403224        0.00195783        0.00168561
     244          0.302444        0.000000        0.00006991        0.00632660        0.00009276        0.00005026
     245          0.304331        0.000000        0.00000649        0.00093883        0.00593703        0.00005953
     246          0.310680        0.000000        0.00298804        0.00034958        0.00092418        0.00143177
     247          0.311108        0.000000        0.00001327        0.00639900        0.00117489        0.00019152
     248          0.313594        0.000000        0.00002074        0.00013595        0.00808844        0.00044740
     249          0.329496        0.000000        0.00380309        0.00098575        0.00170159        0.00121451
     250          0.333131        0.000000        0.00401999        0.00104131        0.00098216        0.00073900
     251          0.343046        0.000000        0.00552013        0.00037413        0.00016999        0.00007772
     252          0.351080        0.000000        0.00533565        0.00040347        0.00006898        0.00009717
     253          0.352360        0.000000        0.00514050        0.00001147        0.00017769        0.00009103
     254          0.437408        0.000000        0.00086062        0.05761761        0.33075870        0.00155973
     255          0.444693        0.000000        0.00338258        0.30299487        0.00941011        0.07167500
     256          0.452383        0.000000        0.00241298        0.33421080        0.05414648        0.00293201
     257          0.456708        0.000000        0.00017174        0.11509973        0.18571739        0.09013409
     258          0.461800        0.000000        0.00014595        0.27242077        0.05091372        0.06822923
     259          0.464457        0.000000        0.00070311        0.25826777        0.13023707        0.00033741