# Projected DOS for atomic kind I at iteration step i = 0, E(Fermi) =    -0.180287 a.u.
#     MO Eigenvalue [a.u.]      Occupation                 s                py                pz                px
       1         -0.980568        1.000000        0.00000357        0.00003078        0.00002710        0.00000559
       2         -0.959232        1.000000        0.00001894        0.00008842        0.00000836        0.00006652
       3         -0.951787        1.000000        0.00003861        0.00006359        0.00015704        0.00012119
       4         -0.945348        1.000000        0.00015299        0.00035822        0.00046853        0.00017210
       5         -0.938961        1.000000        0.00019046        0.00029300        0.00036694        0.00019127
       6         -0.930117        1.000000        0.00029459        0.00062633        0.00038351        0.00019901
       7         -0.926491        1.000000        0.00022619        0.00032793        0.00047409        0.00017539
       8         -0.711226        1.000000        0.00036106        0.00017119        0.00021143        0.00016626
       9         -0.694889        1.000000        0.00062242        0.00016089        0.00043145        0.00005666
      10         -0.693871        1.000000        0.00071626        0.00028363        0.00012063        0.00029700
      11         -0.687747        1.000000        0.00173914        0.00036893        0.00043469        0.00049955
      12         -0.682911        1.000000        0.00189262        0.00028984        0.00033216        0.00019976
      13         -0.675101        1.000000        0.00245095        0.00029286        0.00041289        0.00019829
      14         -0.673588        1.000000        0.00265481        0.00044763        0.00048248        0.00029356
      15         -0.608901        1.000000        0.00261189        0.00015143        0.00013315        0.00001416
      16         -0.606545        1.000000        0.85560199        0.00666701        0.00333439        0.00368568
      17         -0.599291        1.000000        0.82409408        0.00421812        0.00317260        0.00288709
      18         -0.598578        1.000000        0.88327328        0.00127653        0.00228382        0.00222356
      19         -0.596707        1.000000        0.73882906        0.00304501        0.00378161        0.00283394
      20         -0.596019        1.000000        0.06646137        0.00035692        0.00048961        0.00026181
      21         -0.592336        1.000000        0.75501011        0.00289242        0.00308493        0.00557395
      22         -0.591675        1.000000        0.23880060        0.00207872        0.00165780        0.00216636
      23         -0.588621        1.000000        0.85300385        0.00290367        0.00464279        0.00535279
      24         -0.588033        1.000000        0.72255982        0.00149257        0.00237025        0.00356579
      25         -0.587513        1.000000        0.77363790        0.00157888        0.00206805        0.00496379
      26         -0.586045        1.000000        0.81395309        0.00215928        0.00340624        0.00218482
      27         -0.583281        1.000000        0.63425579        0.00258317        0.00390058        0.00358203
      28         -0.581045        1.000000        0.57416369        0.00175567        0.00172124        0.00126340
      29         -0.579838        1.000000        0.87101528        0.00121676        0.00147338        0.00119789
      30         -0.577601        1.000000        0.82230219        0.00155415        0.00330011        0.00301180
      31         -0.575384        1.000000        0.81931283        0.00277628        0.00459556        0.00260127
      32         -0.574713        1.000000        0.65850392        0.00490114        0.00222332        0.00280059
      33         -0.574374        1.000000        0.90363421        0.00116002        0.00326984        0.00208650
      34         -0.573906        1.000000        0.84049346        0.00193434        0.00381699        0.00266141
      35         -0.573265        1.000000        0.90469330        0.00102181        0.00251647        0.00166014
      36         -0.571863        1.000000        0.91354136        0.00196967        0.00271645        0.00183886
      37         -0.571258        1.000000        0.81036463        0.00195175        0.00390724        0.00145594
      38         -0.571019        1.000000        0.77292996        0.00185137        0.00397538        0.00166992
      39         -0.570366        1.000000        0.91706924        0.00109427        0.00247900        0.00267825
      40         -0.569168        1.000000        0.69808758        0.00147123        0.00243860        0.00084859
      41         -0.569131        1.000000        0.79112382        0.00176990        0.00198425        0.00087606
      42         -0.567217        1.000000        0.68938485        0.00182913        0.00186588        0.00343170
      43         -0.566444        1.000000        0.40912974        0.00060471        0.00223969        0.00118212
      44         -0.564663        1.000000        0.56679893        0.00307160        0.00056282        0.00064405
      45         -0.563520        1.000000        0.95605161        0.00207504        0.00062906        0.00068552
      46         -0.563152        1.000000        0.71861384        0.00064986        0.00117673        0.00099791
      47         -0.562701        1.000000        0.97071685        0.00109392        0.00017194        0.00089210
      48         -0.562602        1.000000        0.89333538        0.00029801        0.00094108        0.00138160
      49         -0.562492        1.000000        0.65051809        0.00102255        0.00093625        0.00061505
      50         -0.561834        1.000000        0.70816239        0.00155787        0.00138849        0.00035708
      51         -0.561610        1.000000        0.90598533        0.00073187        0.00068266        0.00094244
      52         -0.560252        1.000000        0.96412124        0.00029125        0.00184183        0.00035741
      53         -0.559948        1.000000        0.71661204        0.00090819        0.00167048        0.00051054
      54         -0.559424        1.000000        0.74620931        0.00071690        0.00081460        0.00032032
      55         -0.557360        1.000000        0.26185797        0.00044369        0.00027278        0.00027195
      56         -0.556696        1.000000        0.80473758        0.00313832        0.00180607        0.00126371
      57         -0.556531        1.000000        0.36893178        0.00063120        0.00087585        0.00067327
      58         -0.554843        1.000000        0.98401631        0.00008949        0.00066850        0.00083575
      59         -0.553242        1.000000        0.97424659        0.00126468        0.00007286        0.00019262
      60         -0.550398        1.000000        0.13635418        0.00539282        0.00128639        0.00178348
      61         -0.545844        1.000000        0.32443972        0.00055320        0.00226784        0.00071949
      62         -0.543836        1.000000        0.30443548        0.00159328        0.00060750        0.00054367
      63         -0.542752        1.000000        0.15279685        0.00197916        0.00191835        0.00235620
      64         -0.537481        1.000000        0.24582012        0.00215858        0.00199448        0.00127098
      65         -0.498254        1.000000        0.00179165        0.00050911        0.00055786        0.00047016
      66         -0.481372        1.000000        0.00124798        0.00106732        0.00055377        0.00094071
      67         -0.476717        1.000000        0.00173998        0.00093241        0.00137366        0.00047522
      68         -0.468145        1.000000        0.00421005        0.00259467        0.00308465        0.00185929
      69         -0.463982        1.000000        0.02541836        0.00926187        0.00986221        0.01012102
      70         -0.463321        1.000000        0.14366139        0.03755831        0.03969598        0.04157318
      71         -0.462772        1.000000        0.15370468        0.03673887        0.03609157        0.04959477
      72         -0.459002        1.000000        0.13164195        0.02984740        0.04121618        0.04426636
      73         -0.456743        1.000000        0.10127809        0.02723879        0.02920708        0.03042188
      74         -0.456603        1.000000        0.10985226        0.02824141        0.03588381        0.03223748
      75         -0.455374        1.000000        0.04219201        0.00906236        0.01116010        0.01275440
      76         -0.453482        1.000000        0.04939063        0.01220343        0.01666717        0.01037910
      77         -0.451858        1.000000        0.08243809        0.01764907        0.02834869        0.02016212
      78         -0.449245        1.000000        0.14878607        0.02845076        0.03498342        0.03319225
      79         -0.446107        1.000000        0.12430022        0.02759890        0.03037955        0.02180394
      80         -0.424050        1.000000        0.00145128        0.00216165        0.00069939        0.00153009
      81         -0.420894        1.000000        0.00185039        0.00096066        0.00251579        0.00137720
      82         -0.411349        1.000000        0.00088213        0.00176678        0.00171641        0.00021443
      83         -0.408326        1.000000        0.00030742        0.00030667        0.00089348        0.00022479
      84         -0.407962        1.000000        0.00134145        0.00227131        0.00092536        0.00211167
      85         -0.405555        1.000000        0.00191911        0.00314946        0.00347480        0.00323029
      86         -0.403643        1.000000        0.00202521        0.00335120        0.00240145        0.00609474
      87         -0.401602        1.000000        0.00155863        0.00314529        0.00088552        0.00248701
      88         -0.399763        1.000000        0.00124445        0.00087242        0.00331802        0.00100679
      89         -0.396374        1.000000        0.00109194        0.00223208        0.00059486        0.00134513
      90         -0.391341        1.000000        0.00148256        0.00412928        0.00234012        0.00220452
      91         -0.390929        1.000000        0.00096249        0.00260073        0.00142167        0.00157490
      92         -0.389635        1.000000        0.00144559        0.00230890        0.00321693        0.00137727
      93         -0.389578        1.000000        0.00165198        0.00296913        0.00356249        0.00151643
      94         -0.282166        1.000000        0.01341073        0.01857437        0.47032441        0.25774513
      95         -0.280696        1.000000        0.01469358        0.02369255        0.33475328        0.37852174
      96         -0.279789        1.000000        0.00940556        0.07276958        0.28944656        0.39228601
      97         -0.271051        1.000000        0.01480263        0.54027715        0.05602429        0.10860625
      98         -0.269619        1.000000        0.01180849        0.23016588        0.03814245        0.44724813
      99         -0.267455        1.000000        0.01362084        0.41053578        0.25508884        0.05655778
     100         -0.266222        1.000000        0.01444451        0.28832887        0.16684076        0.29836456
     101         -0.264380        1.000000        0.01571135        0.09229243        0.27813140        0.35978584
     102         -0.263356        1.000000        0.01475008        0.24253711        0.28977917        0.17610953
     103         -0.262570        1.000000        0.01304696        0.24455141        0.31771490        0.16909616
     104         -0.261425        1.000000        0.01509644        0.39834824        0.17900884        0.14392181
     105         -0.261023        1.000000        0.01996251        0.16663025        0.33440054        0.21264103
     106         -0.256948        1.000000        0.01380012        0.11991776        0.40538200        0.21732608
     107         -0.253859        1.000000        0.01239510        0.13647400        0.34151963        0.28629833
     108         -0.248280        1.000000        0.01482128        0.29458985        0.24036556        0.23716560
     109         -0.247420        1.000000        0.01537693        0.27780619        0.31954049        0.16551182
     110         -0.244198        1.000000        0.01442399        0.17697544        0.21454926        0.37960846
     111         -0.243103        1.000000        0.01653525        0.19421223        0.22888892        0.32989397
     112         -0.241620        1.000000        0.01142959        0.21756394        0.36231326        0.23793735
     113         -0.239545        1.000000        0.01238718        0.18828140        0.24379283        0.38063558
     114         -0.238571        1.000000        0.01371910        0.19306946        0.40287594        0.18419994
     115         -0.237551        1.000000        0.01314981        0.42104154        0.29580559        0.07175073
     116         -0.236884        1.000000        0.00879809        0.38981388        0.21508331        0.24110319
     117         -0.232585        1.000000        0.00473859        0.29470916        0.42934320        0.18855647
     118         -0.231732        1.000000        0.00761213        0.38064209        0.24259704        0.23992670
     119         -0.230406        1.000000        0.00671798        0.41116848        0.27660167        0.17895901
     120         -0.228905        1.000000        0.00361861        0.08256189        0.24845421        0.62359196
     121         -0.228023        1.000000        0.00429852        0.39305412        0.28973042        0.24952355
     122         -0.226521        1.000000        0.00403233        0.51262774        0.16424084        0.20006917
     123         -0.225971        1.000000        0.00817120        0.27531377        0.22361010        0.37316161
     124         -0.223312        1.000000        0.00425276        0.49275535        0.13276396        0.31224408
     125         -0.221701        1.000000        0.00629338        0.36225859        0.38670069        0.15469554
     126         -0.220517        1.000000        0.00495669        0.28745093        0.26732163        0.39086824
     127         -0.218193        1.000000        0.00179943        0.37479666        0.14134140        0.44036472
     128         -0.217820        1.000000        0.00359659        0.47005787        0.20495757        0.27752207
     129         -0.216360        1.000000        0.00168137        0.39700584        0.28699734        0.28187647
     130         -0.215585        1.000000        0.00565097        0.44698213        0.29660650        0.18205396
     131         -0.213804        1.000000        0.00133360        0.53976203        0.17739020        0.25087443
     132         -0.212552        1.000000        0.00225807        0.42580844        0.28645192        0.24145327
     133         -0.210903        1.000000        0.00067029        0.31283141        0.45382077        0.21098951
     134         -0.209646        1.000000        0.00056373        0.36159205        0.41730586        0.20780496
     135         -0.208801        1.000000        0.00050917        0.29543445        0.39712587        0.29839643
     136         -0.208248        1.000000        0.00075111        0.42140746        0.28395857        0.26948030
     137         -0.207268        1.000000        0.00107315        0.18792866        0.60028101        0.19167332
     138         -0.205965        1.000000        0.00055526        0.36675325        0.38431388        0.23562095
     139         -0.205677        1.000000        0.00090961        0.20386491        0.42635466        0.35552534
     140         -0.204988        1.000000        0.00082694        0.34606598        0.27508280        0.36728301
     141         -0.204046        1.000000        0.00047824        0.43482200        0.22129980        0.33194052
     142         -0.202936        1.000000        0.00040564        0.41139742        0.47941973        0.09784890
     143         -0.202601        1.000000        0.00109999        0.34381536        0.30414897        0.34041755
     144         -0.201313        1.000000        0.00072272        0.31584784        0.39822140        0.27577095
     145         -0.200516        1.000000        0.00146306        0.32436810        0.24244270        0.41857795
     146         -0.199658        1.000000        0.00056503        0.49674899        0.16427852        0.32785662
     147         -0.199054        1.000000        0.00093638        0.56276001        0.15277729        0.27341977
     148         -0.198009        1.000000        0.00136195        0.37252620        0.30217786        0.30789433
     149         -0.197674        1.000000        0.00178352        0.43771897        0.22561483        0.31301418
     150         -0.196917        1.000000        0.00185731        0.42093708        0.32918989        0.23178782
     151         -0.196672        1.000000        0.00167258        0.23971490        0.42618640        0.31626391
     152         -0.195710        1.000000        0.00093083        0.26609071        0.39920662        0.32356007
     153         -0.195402        1.000000        0.00110866        0.42155765        0.27680397        0.28917014
     154         -0.195357        1.000000        0.00066834        0.30761642        0.28950166        0.39553835
     155         -0.194931        1.000000        0.00128172        0.21780971        0.38085030        0.38324639
     156         -0.194334        1.000000        0.00102352        0.29475603        0.35018996        0.33881418
     157         -0.193565        1.000000        0.00086902        0.32891740        0.38719604        0.26569545
     158         -0.192952        1.000000        0.00095434        0.24035087        0.47958122        0.26425261
     159         -0.192606        1.000000        0.00089917        0.30716246        0.41955332        0.25690856
     160         -0.192516        1.000000        0.00103010        0.40115107        0.28219401        0.30456555
     161         -0.192010        1.000000        0.00052883        0.22552982        0.37555690        0.38998869
     162         -0.191783        1.000000        0.00078907        0.21207403        0.56184984        0.21603843
     163         -0.191377        1.000000        0.00048454        0.30132568        0.29199045        0.39718194
     164         -0.191021        1.000000        0.00064118        0.37875408        0.30963254        0.30113516
     165         -0.190799        1.000000        0.00046625        0.41178068        0.26643711        0.31720507
     166         -0.189926        1.000000        0.00090738        0.34225598        0.19466810        0.44642825
     167         -0.189591        1.000000        0.00101193        0.36659894        0.34320326        0.27659537
     168         -0.189374        1.000000        0.00073477        0.24212331        0.32066477        0.42926969
     169         -0.188958        1.000000        0.00059633        0.44696830        0.26902664        0.27186570
     170         -0.188422        1.000000        0.00028928        0.18110769        0.32055443        0.49394983
     171         -0.188156        1.000000        0.00119748        0.33121041        0.28900875        0.35806854
     172         -0.187839        1.000000        0.00042099        0.31614587        0.35618251        0.32089586
     173         -0.187523        1.000000        0.00093926        0.28203464        0.43439807        0.26951703
     174         -0.187160        1.000000        0.00068261        0.31558256        0.24082605        0.43473669
     175         -0.186957        1.000000        0.00069084        0.37541112        0.22529583        0.39054850
     176         -0.186633        1.000000        0.00057809        0.35373624        0.28705137        0.34194670
     177         -0.185813        1.000000        0.00066418        0.29797766        0.29465141        0.39579397
     178         -0.185623        1.000000        0.00081077        0.29457088        0.37898796        0.31462164
     179         -0.185260        1.000000        0.00014757        0.27903765        0.36729173        0.34239817
     180         -0.185108        1.000000        0.00085873        0.24512635        0.52386720        0.22314338
     181         -0.184459        1.000000        0.00042166        0.32477999        0.14158281        0.51221889
     182         -0.184159        1.000000        0.00081786        0.29279763        0.32397773        0.33585800
     183         -0.183927        1.000000        0.00055399        0.34639024        0.18969792        0.45375015
     184         -0.183513        1.000000        0.00067918        0.25565536        0.37206139        0.34367469
     185         -0.183418        1.000000        0.00076461        0.30980806        0.29547048        0.38359609
     186         -0.182726        1.000000        0.00052149        0.29532284        0.41974586        0.25942199
     187         -0.182531        1.000000        0.00024230        0.31997408        0.14804589        0.51519768
     188         -0.182261        1.000000        0.00039669        0.33764836        0.22972407        0.42439818
     189         -0.182078        1.000000        0.00047538        0.25430592        0.31278706        0.40544373
     190         -0.180981        1.000000        0.00052253        0.17410221        0.36867337        0.43799427
     191         -0.180775        1.000000        0.00011939        0.09317920        0.29065184        0.60737103
     192         -0.180634        1.000000        0.00025682        0.21786401        0.29016256        0.47482431
     193         -0.180358        1.000000        0.00021007        0.45482593        0.26803797        0.27496161
     194         -0.180287        1.000000        0.00287479        0.21494309        0.45293520        0.31832528
     195         -0.180269        0.000000        0.00058883        0.35006447        0.38990821        0.25022555
     196         -0.180075        0.000000        0.00088149        0.29401233        0.37145689        0.31905320
     197         -0.179566        0.000000        0.00038797        0.27320386        0.31777615        0.35491006
     198         -0.179318        0.000000        0.00022658        0.27634399        0.29878458        0.36721780
     199         -0.178523        0.000000        0.00021397        0.26952106        0.28952271        0.35419757
     200         -0.176971        0.000000        0.00022903        0.36905870        0.21286715        0.30124972
     201         -0.173042        0.000000        0.00052639        0.22365795        0.48611436        0.18740516
     202         -0.072433        0.000000        0.01993233        0.12937377        0.08557672        0.01755186
     203         -0.064772        0.000000        0.02844707        0.10383463        0.05943717        0.07797150
     204         -0.064066        0.000000        0.02621643        0.07405894        0.09592968        0.07761124
     205         -0.062622        0.000000        0.02193963        0.08626239        0.05299549        0.12272674
     206         -0.061608        0.000000        0.02342287        0.03444980        0.09386011        0.11674089
     207         -0.057886        0.000000        0.02289138        0.08806952        0.08637560        0.09269457
     208         -0.057447        0.000000        0.02246524        0.13556393        0.05688313        0.07121382
     209         -0.051972        0.000000        0.02572570        0.19380074        0.04119504        0.02416321
     210         -0.048127        0.000000        0.01926915        0.06078101        0.01878513        0.18878070
     211         -0.047050        0.000000        0.02427425        0.01017148        0.21034935        0.05534427
     212         -0.041055        0.000000        0.01592748        0.02672173        0.18538697        0.07186388
     213         -0.040634        0.000000        0.02099603        0.09881957        0.14874108        0.02200585
     214         -0.034814        0.000000        0.01874976        0.01157660        0.09305142        0.19047768
     215         -0.033225        0.000000        0.02440139        0.02239667        0.13238345        0.13444658
     216         -0.029892        0.000000        0.01518735        0.06302196        0.17735275        0.04255306
     217         -0.028707        0.000000        0.01929029        0.21971256        0.04971958        0.01774873
     218         -0.026131        0.000000        0.02489084        0.24099726        0.03828279        0.01904145
     219         -0.025776        0.000000        0.01868558        0.02202826        0.12182920        0.15017306
     220         -0.021640        0.000000        0.01392780        0.00596568        0.02166681        0.27019729
     221         -0.019686        0.000000        0.02018348        0.01668452        0.22406785        0.06246138
     222         -0.018146        0.000000        0.01850832        0.02321024        0.21455459        0.06217252
     223         -0.015526        0.000000        0.01336429        0.26951551        0.02868439        0.01059998
     224         -0.011868        0.000000        0.01026614        0.01065346        0.02038086        0.27569391
     225         -0.008819        0.000000        0.01450130        0.29653127        0.00844983        0.01440770
     226          0.067598        0.000000        0.00003889        0.00058350        0.00068853        0.00025241
     227          0.094019        0.000000        0.00005640        0.00048813        0.00139135        0.00062349
     228          0.095525        0.000000        0.00005729        0.00063293        0.00042714        0.00076839
     229          0.097661        0.000000        0.00010774        0.00085859        0.00177117        0.00091113
     230          0.106305        0.000000        0.00010240        0.00115388        0.00085671        0.00080071
     231          0.116722        0.000000        0.00012167        0.00063745        0.00171715        0.00087054
     232          0.119555        0.000000        0.00007535        0.00079518        0.00106655        0.00029171
     233          0.131647        0.000000        0.00001131        0.00010985        0.00022485        0.00027636
     234          0.144751        0.000000        0.00000586        0.00015507        0.00009091        0.00012788
     235          0.200226        0.000000        0.00000403        0.00009688        0.00002919        0.00002290
     236          0.220504        0.000000        0.00000678        0.00020476        0.00056069        0.00023091
     237          0.272058        0.000000        0.00000360        0.00016865        0.00011460        0.00007641
     238          0.283711        0.000000        0.00006436        0.00156388        0.00010589        0.00081426
     239          0.290155        0.000000        0.00024532        0.00144271        0.00140428        0.00279073
     240          0.291252        0.000000        0.00062476        0.00396471        0.00051440        0.00304676
     241          0.294690        0.000000        0.00027827        0.00408478        0.00035108        0.00191621
     242          0.295790        0.000000        0.00092421        0.00327299        0.00836764        0.00367844
     243          0.298827        0.000000        0.00008195        0.00427771        0.00065521        0.00152065
     244          0.302494        0.000000        0.00088541        0.00644589        0.00524222        0.00386448
     245          0.304404        0.000000        0.00087198        0.00457731        0.00626741        0.00489897
     246          0.310762        0.000000        0.00024103        0.00441454        0.00009497        0.00323550
     247          0.311179        0.000000        0.00061621        0.00956502        0.00092359        0.00169294
     248          0.313659        0.000000        0.00064697        0.00023754        0.01097845        0.00073557
     249          0.329507        0.000000        0.00050023        0.00109867        0.00162365        0.00418124
     250          0.333163        0.000000        0.00024548        0.00795580        0.00130611        0.00228428
     251          0.343059        0.000000        0.00100582        0.00633495        0.00779747        0.00427074
     252          0.351147        0.000000        0.00110295        0.00495400        0.00989478        0.00407409
     253          0.352434        0.000000        0.00107349        0.00844183        0.00562012        0.00505112
     254          0.437470        0.000000        0.00001545        0.00027132        0.00042065        0.00013857
     255          0.444702        0.000000        0.00002598        0.00061014        0.00007523        0.00053934
     256          0.452418        0.000000        0.00001136        0.00034028        0.00015975        0.00027971
     257          0.456806        0.000000        0.00004012        0.00014383        0.00021636        0.00020603
     258          0.461893        0.000000        0.00003150        0.00012380        0.00008095        0.00017011
     259          0.464544        0.000000        0.00001620        0.00015577        0.00010619        0.00012329