# Projected DOS for atomic kind N at iteration step i = 0, E(Fermi) =    -0.180287 a.u.
#     MO Eigenvalue [a.u.]      Occupation                 s                py                pz                px
       1         -0.980568        1.000000        0.62648925        0.00000469        0.00018332        0.00019147
       2         -0.959232        1.000000        0.62328961        0.00009058        0.00006653        0.00097751
       3         -0.951787        1.000000        0.61913966        0.00118900        0.00023299        0.00023556
       4         -0.945348        1.000000        0.61466832        0.00000285        0.00001758        0.00021803
       5         -0.938961        1.000000        0.61305818        0.00001609        0.00007626        0.00019836
       6         -0.930117        1.000000        0.61074001        0.00001326        0.00000338        0.00009389
       7         -0.926491        1.000000        0.61212742        0.00000556        0.00007368        0.00013621
       8         -0.711226        1.000000        0.01387763        0.00155737        0.00481203        0.20659004
       9         -0.694889        1.000000        0.02075788        0.00023923        0.09654364        0.10344992
      10         -0.693871        1.000000        0.01583637        0.02347573        0.11835521        0.07397368
      11         -0.687747        1.000000        0.01519826        0.00003742        0.02580407        0.16818900
      12         -0.682911        1.000000        0.01524824        0.00059044        0.00323083        0.19528711
      13         -0.675101        1.000000        0.01632923        0.00141256        0.00358153        0.19232442
      14         -0.673588        1.000000        0.01674571        0.00000087        0.00837361        0.18198606
      15         -0.608901        1.000000        0.00049848        0.00263050        0.60601015        0.00515003
      16         -0.606545        1.000000        0.00053279        0.02653721        0.00489640        0.00010195
      17         -0.599291        1.000000        0.00030116        0.02933676        0.00417681        0.00037531
      18         -0.598578        1.000000        0.00065233        0.01703986        0.00469947        0.00050017
      19         -0.596707        1.000000        0.00066313        0.03585336        0.05247108        0.00793218
      20         -0.596019        1.000000        0.00007105        0.56452298        0.00433677        0.00180080
      21         -0.592336        1.000000        0.00050111        0.07584977        0.01239930        0.00553424
      22         -0.591675        1.000000        0.00005864        0.37251387        0.07028107        0.00191406
      23         -0.588621        1.000000        0.00010892        0.00936325        0.01059994        0.00264046
      24         -0.588033        1.000000        0.00009550        0.04443957        0.05401138        0.03517768
      25         -0.587513        1.000000        0.00057399        0.06278487        0.02461853        0.01505466
      26         -0.586045        1.000000        0.00027123        0.03256944        0.03019834        0.01168710
      27         -0.583281        1.000000        0.00017215        0.03069538        0.08536852        0.06271377
      28         -0.581045        1.000000        0.00044166        0.03521690        0.12042895        0.08182845
      29         -0.579838        1.000000        0.00014867        0.02415900        0.01279747        0.00651036
      30         -0.577601        1.000000        0.00050151        0.02364781        0.00631534        0.02662388
      31         -0.575384        1.000000        0.00019724        0.02479064        0.02619625        0.00715367
      32         -0.574713        1.000000        0.00013078        0.15977407        0.00779782        0.00147672
      33         -0.574374        1.000000        0.00013551        0.01020370        0.00860319        0.00023991
      34         -0.573906        1.000000        0.00024348        0.02972747        0.01070529        0.00676223
      35         -0.573265        1.000000        0.00005113        0.01314028        0.00678750        0.00030577
      36         -0.571863        1.000000        0.00001392        0.00589994        0.00425125        0.00096472
      37         -0.571258        1.000000        0.00047872        0.00736788        0.06441608        0.00783364
      38         -0.571019        1.000000        0.00026465        0.00737702        0.08655325        0.00704396
      39         -0.570366        1.000000        0.00029747        0.00963366        0.02475305        0.00199419
      40         -0.569168        1.000000        0.00088513        0.01174503        0.07134882        0.07710509
      41         -0.569131        1.000000        0.00061468        0.00747582        0.04696615        0.04460224
      42         -0.567217        1.000000        0.00010442        0.12151683        0.02387040        0.01021877
      43         -0.566444        1.000000        0.00112400        0.01252410        0.12452554        0.20442846
      44         -0.564663        1.000000        0.00095330        0.22977353        0.01354204        0.00415545
      45         -0.563520        1.000000        0.00001606        0.00704635        0.00036706        0.00018186
      46         -0.563152        1.000000        0.00023182        0.01692596        0.09600416        0.04404062
      47         -0.562701        1.000000        0.00001113        0.00187572        0.00110383        0.00110554
      48         -0.562602        1.000000        0.00009746        0.01550545        0.02770753        0.00562816
      49         -0.562492        1.000000        0.00024920        0.13366397        0.04911846        0.01927992
      50         -0.561834        1.000000        0.00060963        0.05558024        0.07860753        0.02579760
      51         -0.561610        1.000000        0.00013435        0.01415682        0.00790236        0.01431113
      52         -0.560252        1.000000        0.00000272        0.00102022        0.00025266        0.00020020
      53         -0.559948        1.000000        0.00018906        0.05018308        0.09987897        0.01192107
      54         -0.559424        1.000000        0.00025702        0.08079389        0.05434232        0.01023395
      55         -0.557360        1.000000        0.00261629        0.32950187        0.09245562        0.01565537
      56         -0.556696        1.000000        0.00053224        0.06824229        0.01901442        0.00143674
      57         -0.556531        1.000000        0.00087078        0.10518154        0.25863223        0.01328353
      58         -0.554843        1.000000        0.00000665        0.00782424        0.00011015        0.00021806
      59         -0.553242        1.000000        0.00000089        0.00378223        0.00006935        0.00005864
      60         -0.550398        1.000000        0.00000437        0.49550548        0.01886309        0.00283946
      61         -0.545844        1.000000        0.00001583        0.20921388        0.19788965        0.00604833
      62         -0.543836        1.000000        0.00009814        0.29530029        0.11729779        0.00629243
      63         -0.542752        1.000000        0.00004010        0.01872061        0.48278942        0.00777684
      64         -0.537481        1.000000        0.00045639        0.18631524        0.25182409        0.01509191
      65         -0.498254        1.000000        0.00872530        0.00024823        0.00173318        0.43489276
      66         -0.481372        1.000000        0.00774112        0.05104654        0.28340174        0.09355216
      67         -0.476717        1.000000        0.00564334        0.01854788        0.16030032        0.26269125
      68         -0.468145        1.000000        0.00955966        0.00002043        0.04888297        0.38417156
      69         -0.463982        1.000000        0.00853616        0.00027968        0.00777771        0.34272063
      70         -0.463321        1.000000        0.00107442        0.00026891        0.00192930        0.05059792
      71         -0.462772        1.000000        0.00072815        0.00014138        0.00153934        0.02238850
      72         -0.459002        1.000000        0.00010933        0.00036347        0.00018013        0.00419548
      73         -0.456743        1.000000        0.00221585        0.00090604        0.00233826        0.09221131
      74         -0.456603        1.000000        0.00137447        0.00073437        0.00129900        0.06639263
      75         -0.455374        1.000000        0.00620994        0.00341785        0.00293321        0.29812050
      76         -0.453482        1.000000        0.00544458        0.00019695        0.01591699        0.26230992
      77         -0.451858        1.000000        0.00246858        0.00011351        0.00683783        0.11914328
      78         -0.449245        1.000000        0.00000453        0.00007334        0.00074558        0.00111247
      79         -0.446107        1.000000        0.00006764        0.00007377        0.00025163        0.00843205
      80         -0.424050        1.000000        0.00002160        0.03046957        0.00235693        0.00020621
      81         -0.420894        1.000000        0.00004495        0.00244882        0.02406686        0.00003678
      82         -0.411349        1.000000        0.00004164        0.02148819        0.00669503        0.01026931
      83         -0.408326        1.000000        0.00026081        0.02776240        0.01408501        0.00772811
      84         -0.407962        1.000000        0.00014105        0.00313919        0.01349400        0.02233089
      85         -0.405555        1.000000        0.00000108        0.02596026        0.01014286        0.00151816
      86         -0.403643        1.000000        0.00000208        0.01107002        0.02232842        0.00336198
      87         -0.401602        1.000000        0.00007621        0.02105999        0.00018082        0.00923786
      88         -0.399763        1.000000        0.00000837        0.00351520        0.03596786        0.00123614
      89         -0.396374        1.000000        0.00000020        0.03285434        0.00187938        0.00013497
      90         -0.391341        1.000000        0.00000475        0.03393771        0.00647565        0.00026684
      91         -0.390929        1.000000        0.00000136        0.03174627        0.00569408        0.00039769
      92         -0.389635        1.000000        0.00000089        0.00437185        0.03340444        0.00067485
      93         -0.389578        1.000000        0.00000402        0.00732019        0.02981053        0.00133321
      94         -0.282166        1.000000        0.00018157        0.00057414        0.00015292        0.00006840
      95         -0.280696        1.000000        0.00037836        0.00037782        0.00028292        0.00012676
      96         -0.279789        1.000000        0.00014498        0.00169349        0.00032002        0.00022314
      97         -0.271051        1.000000        0.00013653        0.00087193        0.00024904        0.00006270
      98         -0.269619        1.000000        0.00009519        0.00092303        0.00023695        0.00003193
      99         -0.267455        1.000000        0.00011597        0.00054309        0.00105498        0.00014665
     100         -0.266222        1.000000        0.00016269        0.00086898        0.00016462        0.00014762
     101         -0.264380        1.000000        0.00008413        0.00020110        0.00016775        0.00008412
     102         -0.263356        1.000000        0.00025543        0.00017045        0.00139779        0.00004334
     103         -0.262570        1.000000        0.00035915        0.00028194        0.00019477        0.00025728
     104         -0.261425        1.000000        0.00004318        0.00024889        0.00007679        0.00004772
     105         -0.261023        1.000000        0.00019316        0.00007611        0.00066869        0.00019527
     106         -0.256948        1.000000        0.00014661        0.00028665        0.00027017        0.00015235
     107         -0.253859        1.000000        0.00028018        0.00060749        0.00047711        0.00021974
     108         -0.248280        1.000000        0.00125048        0.00063285        0.00111983        0.00121639
     109         -0.247420        1.000000        0.00118396        0.00076787        0.00171802        0.00100814
     110         -0.244198        1.000000        0.00026034        0.00031758        0.00025893        0.00020513
     111         -0.243103        1.000000        0.00020476        0.00007683        0.00015296        0.00008659
     112         -0.241620        1.000000        0.00133011        0.00182421        0.00017523        0.00083376
     113         -0.239545        1.000000        0.00082366        0.00061973        0.00040400        0.00065494
     114         -0.238571        1.000000        0.00033333        0.00075482        0.00052537        0.00034457
     115         -0.237551        1.000000        0.00023401        0.00112028        0.00021026        0.00016063
     116         -0.236884        1.000000        0.00244915        0.00178707        0.00153985        0.00206824
     117         -0.232585        1.000000        0.00431866        0.00082623        0.00437382        0.00265122
     118         -0.231732        1.000000        0.00072600        0.00165491        0.00039285        0.00046790
     119         -0.230406        1.000000        0.00265330        0.00087625        0.00041948        0.00104064
     120         -0.228905        1.000000        0.00009748        0.00008189        0.00024182        0.00011754
     121         -0.228023        1.000000        0.00079737        0.00451347        0.00118190        0.00025432
     122         -0.226521        1.000000        0.00076507        0.00166607        0.00170759        0.00030819
     123         -0.225971        1.000000        0.00059402        0.00239560        0.00028462        0.00030766
     124         -0.223312        1.000000        0.00177079        0.00357479        0.00234239        0.00124943
     125         -0.221701        1.000000        0.00019118        0.00209676        0.00026258        0.00027332
     126         -0.220517        1.000000        0.00099686        0.00130158        0.00206742        0.00033770
     127         -0.218193        1.000000        0.00091550        0.00443531        0.00074124        0.00091013
     128         -0.217820        1.000000        0.00110451        0.00312135        0.00013272        0.00049961
     129         -0.216360        1.000000        0.00098246        0.00078443        0.00484893        0.00042603
     130         -0.215585        1.000000        0.00040174        0.00290617        0.00033439        0.00078948
     131         -0.213804        1.000000        0.00048414        0.00236640        0.00141814        0.00052248
     132         -0.212552        1.000000        0.00066662        0.00041557        0.00518498        0.00034644
     133         -0.210903        1.000000        0.00088783        0.00052957        0.00155561        0.00045260
     134         -0.209646        1.000000        0.00058758        0.00076103        0.00181242        0.00014898
     135         -0.208801        1.000000        0.00008870        0.00038626        0.00019620        0.00009541
     136         -0.208248        1.000000        0.00015816        0.00032161        0.00109410        0.00012145
     137         -0.207268        1.000000        0.00008143        0.00043804        0.00063813        0.00007133
     138         -0.205965        1.000000        0.00069361        0.00131035        0.00144796        0.00046440
     139         -0.205677        1.000000        0.00042737        0.00056093        0.00073883        0.00011655
     140         -0.204988        1.000000        0.00004656        0.00046972        0.00064977        0.00034509
     141         -0.204046        1.000000        0.00028515        0.00051130        0.00114691        0.00004934
     142         -0.202936        1.000000        0.00012299        0.00017797        0.00072343        0.00026672
     143         -0.202601        1.000000        0.00045424        0.00113381        0.00090506        0.00058484
     144         -0.201313        1.000000        0.00012437        0.00064005        0.00019003        0.00018192
     145         -0.200516        1.000000        0.00103519        0.00156869        0.00054144        0.00065193
     146         -0.199658        1.000000        0.00031795        0.00056255        0.00174064        0.00005187
     147         -0.199054        1.000000        0.00027435        0.00148026        0.00067761        0.00028365
     148         -0.198009        1.000000        0.00036009        0.00074138        0.00056164        0.00026619
     149         -0.197674        1.000000        0.00089176        0.00490649        0.00306252        0.00060580
     150         -0.196917        1.000000        0.00051805        0.00170019        0.00065264        0.00038416
     151         -0.196672        1.000000        0.00122994        0.00148036        0.00519381        0.00009906
     152         -0.195710        1.000000        0.00052559        0.00038434        0.00278877        0.00008129
     153         -0.195402        1.000000        0.00048261        0.00220807        0.00071869        0.00029110
     154         -0.195357        1.000000        0.00002524        0.00002699        0.00050329        0.00001966
     155         -0.194931        1.000000        0.00021237        0.00087920        0.00122829        0.00008158
     156         -0.194334        1.000000        0.00028735        0.00012100        0.00150432        0.00023316
     157         -0.193565        1.000000        0.00026289        0.00038117        0.00016043        0.00005629
     158         -0.192952        1.000000        0.00014781        0.00009852        0.00032408        0.00016091
     159         -0.192606        1.000000        0.00046172        0.00023872        0.00073409        0.00009143
     160         -0.192516        1.000000        0.00025356        0.00012734        0.00051602        0.00019922
     161         -0.192010        1.000000        0.00007007        0.00015573        0.00028006        0.00014176
     162         -0.191783        1.000000        0.00006916        0.00015077        0.00006686        0.00005735
     163         -0.191377        1.000000        0.00024762        0.00043134        0.00007425        0.00010817
     164         -0.191021        1.000000        0.00016727        0.00012925        0.00028563        0.00005773
     165         -0.190799        1.000000        0.00009040        0.00015257        0.00052386        0.00004818
     166         -0.189926        1.000000        0.00026248        0.00049249        0.00022731        0.00012468
     167         -0.189591        1.000000        0.00092111        0.00080190        0.00156817        0.00009292
     168         -0.189374        1.000000        0.00010585        0.00023675        0.00027174        0.00003858
     169         -0.188958        1.000000        0.00007803        0.00032930        0.00012282        0.00028392
     170         -0.188422        1.000000        0.00006363        0.00011822        0.00016822        0.00005665
     171         -0.188156        1.000000        0.00019948        0.00066098        0.00132670        0.00007519
     172         -0.187839        1.000000        0.00022713        0.00008841        0.00046224        0.00008524
     173         -0.187523        1.000000        0.00003307        0.00043936        0.00366194        0.00022749
     174         -0.187160        1.000000        0.00016041        0.00013747        0.00042205        0.00007957
     175         -0.186957        1.000000        0.00007861        0.00024423        0.00045112        0.00014476
     176         -0.186633        1.000000        0.00011802        0.00024700        0.00099591        0.00007062
     177         -0.185813        1.000000        0.00004611        0.00023158        0.00006683        0.00007815
     178         -0.185623        1.000000        0.00009720        0.00051606        0.00018625        0.00014053
     179         -0.185260        1.000000        0.00002790        0.00005227        0.00066169        0.00002729
     180         -0.185108        1.000000        0.00020330        0.00032645        0.00010535        0.00007869
     181         -0.184459        1.000000        0.00005210        0.00009782        0.00024349        0.00004638
     182         -0.184159        1.000000        0.00009180        0.00040997        0.00025953        0.00018608
     183         -0.183927        1.000000        0.00013573        0.00034764        0.00002642        0.00005861
     184         -0.183513        1.000000        0.00008718        0.00016983        0.00006587        0.00018594
     185         -0.183418        1.000000        0.00013666        0.00027357        0.00025797        0.00003856
     186         -0.182726        1.000000        0.00006286        0.00024237        0.00010040        0.00004471
     187         -0.182531        1.000000        0.00016194        0.00005647        0.00033932        0.00016603
     188         -0.182261        1.000000        0.00004526        0.00013448        0.00023009        0.00021617
     189         -0.182078        1.000000        0.00004159        0.00015127        0.00008547        0.00003915
     190         -0.180981        1.000000        0.00005634        0.00022104        0.00016608        0.00006069
     191         -0.180775        1.000000        0.00001054        0.00007970        0.00005418        0.00001442
     192         -0.180634        1.000000        0.00005217        0.00004251        0.00005370        0.00002324
     193         -0.180358        1.000000        0.00004757        0.00009911        0.00001518        0.00005601
     194         -0.180287        1.000000        0.00010807        0.00041738        0.00023645        0.00009084
     195         -0.180269        0.000000        0.00006904        0.00013437        0.00014068        0.00005165
     196         -0.180075        0.000000        0.00011564        0.00030796        0.00004922        0.00002628
     197         -0.179566        0.000000        0.00002834        0.00019987        0.00003511        0.00004388
     198         -0.179318        0.000000        0.00001178        0.00012624        0.00004129        0.00002484
     199         -0.178523        0.000000        0.00003917        0.00009990        0.00004917        0.00002836
     200         -0.176971        0.000000        0.00002026        0.00006691        0.00006184        0.00002769
     201         -0.173042        0.000000        0.00000573        0.00001307        0.00000440        0.00001271
     202         -0.072433        0.000000        0.00002180        0.00012479        0.00003239        0.00002485
     203         -0.064772        0.000000        0.00013358        0.00003018        0.00002457        0.00003860
     204         -0.064066        0.000000        0.00006302        0.00006627        0.00003591        0.00003811
     205         -0.062622        0.000000        0.00002365        0.00004659        0.00000754        0.00001703
     206         -0.061608        0.000000        0.00003864        0.00000977        0.00001820        0.00004524
     207         -0.057886        0.000000        0.00001348        0.00007629        0.00006363        0.00002900
     208         -0.057447        0.000000        0.00002318        0.00003596        0.00001687        0.00002019
     209         -0.051972        0.000000        0.00003326        0.00000691        0.00002230        0.00002021
     210         -0.048127        0.000000        0.00003244        0.00002826        0.00001827        0.00002212
     211         -0.047050        0.000000        0.00003441        0.00007986        0.00012712        0.00001357
     212         -0.041055        0.000000        0.00002743        0.00006266        0.00006194        0.00003009
     213         -0.040634        0.000000        0.00015147        0.00014847        0.00006389        0.00012327
     214         -0.034814        0.000000        0.00005983        0.00001370        0.00001021        0.00002054
     215         -0.033225        0.000000        0.00008627        0.00003684        0.00007954        0.00000712
     216         -0.029892        0.000000        0.00001142        0.00006202        0.00006476        0.00001231
     217         -0.028707        0.000000        0.00000338        0.00035815        0.00018777        0.00001687
     218         -0.026131        0.000000        0.00021349        0.00001095        0.00042873        0.00002349
     219         -0.025776        0.000000        0.00008073        0.00001810        0.00005080        0.00000679
     220         -0.021640        0.000000        0.00015951        0.00003961        0.00005424        0.00000255
     221         -0.019686        0.000000        0.00008480        0.00009125        0.00008426        0.00000854
     222         -0.018146        0.000000        0.00006572        0.00007814        0.00006102        0.00001078
     223         -0.015526        0.000000        0.00004389        0.00004684        0.00003075        0.00002979
     224         -0.011868        0.000000        0.00001548        0.00001742        0.00001256        0.00000127
     225         -0.008819        0.000000        0.00002017        0.00013876        0.00001708        0.00001835
     226          0.067598        0.000000        0.10487311        0.00013407        0.00275789        0.24249691
     227          0.094019        0.000000        0.13612061        0.00159182        0.12720043        0.09054166
     228          0.095525        0.000000        0.13430807        0.01681750        0.09023673        0.11088702
     229          0.097661        0.000000        0.10016080        0.00003514        0.03076402        0.22744173
     230          0.106305        0.000000        0.10639990        0.00000586        0.00649567        0.24871554
     231          0.116722        0.000000        0.10390126        0.00006163        0.01418777        0.24525935
     232          0.119555        0.000000        0.10305217        0.00272632        0.00229968        0.25685079
     233          0.131647        0.000000        0.02878835        0.16989492        0.00219689        0.13243867
     234          0.144751        0.000000        0.02896930        0.03443708        0.20366016        0.06855643
     235          0.200226        0.000000        0.03706810        0.21041792        0.06423520        0.02580418
     236          0.220504        0.000000        0.08813483        0.12243068        0.07743391        0.04883885
     237          0.272058        0.000000        0.11732015        0.00141926        0.19400513        0.03066448
     238          0.283711        0.000000        0.01238353        0.25296747        0.05111751        0.01222507
     239          0.290155        0.000000        0.00058667        0.00888197        0.27392463        0.04189320
     240          0.291252        0.000000        0.00108174        0.28847241        0.02474208        0.00918110
     241          0.294690        0.000000        0.00695221        0.30600172        0.00905408        0.00539388
     242          0.295790        0.000000        0.00280290        0.02455128        0.26990736        0.01615667
     243          0.298827        0.000000        0.00126095        0.12786940        0.08782483        0.10358092
     244          0.302494        0.000000        0.00184524        0.29797014        0.01525932        0.00040196
     245          0.304404        0.000000        0.00143056        0.02666569        0.27829088        0.00728041
     246          0.310762        0.000000        0.16798506        0.02606221        0.00031881        0.14613296
     247          0.311179        0.000000        0.00125350        0.28766998        0.02867169        0.00153754
     248          0.313659        0.000000        0.00048199        0.01622916        0.28120206        0.01961785
     249          0.329507        0.000000        0.20067768        0.02011057        0.08760830        0.03529287
     250          0.333163        0.000000        0.21776295        0.01770804        0.05245737        0.05554902
     251          0.343059        0.000000        0.23317460        0.00559325        0.00935497        0.09494838
     252          0.351147        0.000000        0.23978182        0.00248582        0.00539591        0.09662513
     253          0.352434        0.000000        0.24138781        0.00038052        0.00552274        0.09724149
     254          0.437470        0.000000        0.00007300        0.00255479        0.01602578        0.00002452
     255          0.444702        0.000000        0.00000591        0.01937035        0.00126448        0.00264198
     256          0.452418        0.000000        0.00006252        0.01141038        0.00222510        0.00002243
     257          0.456806        0.000000        0.00169087        0.00493099        0.01334096        0.00225923
     258          0.461893        0.000000        0.00001030        0.01303941        0.00401877        0.00743334
     259          0.464544        0.000000        0.00000973        0.01662526        0.00918753        0.00005666