100
Lattice="31.7900009155 0.0 0.0 0.0 31.0900001526 0.0 0.0 0.0 30.3899993896" Properties=species:S:1:pos:R:3 i=414 E=-2585.3183009725 pbc="F F F"
I       11.54347435      12.78483919       8.50473732
I       18.13715553      12.29966913       8.58693359
I       12.16372337      18.86161726       8.77666052
I       19.81043882      17.45647074       8.73656974
I       10.83032644       9.30688803      11.24265972
I       19.34952678       9.09993621      11.69388479
I        7.78349806      13.26916521      11.81212803
I       10.58964320      12.11725884      14.37175536
I       12.24487739      15.37518722      12.06060483
I       14.79139697      11.78018668      11.48140281
I       18.40203550      12.02192256      14.88658857
I       17.77404698      15.29813975      12.01036627
I       21.76787505      13.24860564      11.78098478
I        9.24768474      18.79192899      12.66072979
I       12.54175271      18.16728183      15.32544381
I       12.40487795      21.91657616      12.65807950
I       15.73978332      18.87667142      11.70194005
I       18.92394232      18.50653968      14.85699929
I       18.99577807      22.55074253      12.33462407
I       22.03180567      18.35069552      11.28279443
I       13.27808812       8.77251651      17.53081313
I       18.14600287       8.97293622      18.45803235
I        9.56238555      11.45553314      17.83615765
I       13.32364846      11.55043364      21.51374995
I       12.02034973      14.79762238      18.69313721
I       15.47442037      12.51611048      17.56194247
I       18.59700874      12.13367198      21.72491505
I       18.67019560      15.42625946      18.52353504
I       21.70879103      11.93995413      18.06229406
I        9.39786655      18.73589296      18.28010616
I       12.74342459      18.39738571      20.95819646
I       12.04204326      23.21505494      17.76214123
I       15.52312594      18.23640302      17.54861228
I       18.53265855      18.67034635      21.99289970
I       17.55588664      21.95334079      18.79962375
I       21.48209439      19.04627471      18.46225254
Pb      11.84981730      12.24147233      11.49153954
Pb      18.81581070      12.36474030      11.79331981
Pb      12.30918869      18.84611587      11.91846503
Pb      18.82083680      19.36057512      11.90816465
Pb      12.70263668      11.68426657      18.60226350
Pb      18.71842770      12.02718484      18.67362391
Pb      12.31781958      19.78001149      18.21756137
Pb      18.41589714      18.74784647      18.96444501
C       14.94231255      15.34193444       8.57656789
C       15.13646537       8.98681635      14.20211300
C        8.86237857      15.48997168      15.43215060
C       15.23633438      15.23250210      14.89273577
C       21.29099198      15.11315602      15.54982578
C       15.48433906      21.37275822      15.03661998
C       15.35148775      15.21503044      21.01112637
N       16.49124245      15.40385121       8.80208613
N       16.31748473       8.75549187      15.19207094
N       10.40490506      15.35050171      15.62114472
N       16.70252576      15.23759405      15.45846524
N       22.85026322      15.00908978      15.69430092
N       17.00854916      21.38001397      15.40244822
N       16.14749399      15.75386325      22.23550413
H       14.76557628      15.16818799       7.54258405
H       14.52829799      16.26826130       8.89832500
H       14.55889636      14.54073034       9.16366687
H       16.93269389      16.17659586       8.26905199
H       16.94081864      14.50398746       8.50261397
H       16.72433778      15.52453706       9.82514568
H       15.53387914       9.05439517      13.21798576
H       14.63465237       9.88367300      14.46542874
H       14.49100386       8.15577235      14.28998207
H       16.89400890       9.60593811      15.24558055
H       17.01999270       7.90006669      14.78245261
H       15.95502012       8.56844424      16.13027552
H        8.66907822      15.53565210      14.38888277
H        8.55006451      16.38324317      15.91336596
H        8.39673410      14.63965820      15.86924413
H       10.90229071      16.20057599      15.26585792
H       10.74478819      14.50541506      15.10616634
H       10.67253175      15.23927901      16.63081484
H       15.29732235      15.15083569      13.83555465
H       14.77433285      16.14501210      15.17909182
H       14.73465356      14.40041011      15.32019177
H       17.25711557      16.00260856      15.02047052
H       17.17025237      14.32375980      15.24882226
H       16.71536869      15.37997932      16.49146585
H       21.03265785      14.75225145      14.57826202
H       21.01503021      16.13305544      15.65223319
H       20.82472047      14.51741407      16.28246248
H       23.30588632      15.61941663      14.92482364
H       23.18430955      13.99839722      15.56297514
H       23.13276409      15.30903584      16.63882863
H       15.39399353      21.21390862      13.98934722
H       15.06437476      22.30195303      15.32792805
H       15.03285359      20.57024033      15.56805760
H       17.53186395      22.04422033      14.79729112
H       17.42872409      20.42770118      15.24809085
H       17.15713543      21.62502650      16.41984271
H       16.02175485      14.89203536      20.27309494
H       14.74410837      16.01553956      20.61510745
H       14.73166400      14.41643914      21.33558192
H       16.75293058      16.54118503      21.95893981
H       16.73855223      15.00095147      22.61708315
H       15.42983033      16.13231292      23.06365291
