# Projected DOS for atomic kind I at iteration step i = 0, E(Fermi) =    -0.180604 a.u.
#     MO Eigenvalue [a.u.]      Occupation                 s                py                pz                px
       1         -0.980610        1.000000        0.00000358        0.00003081        0.00002710        0.00000559
       2         -0.959299        1.000000        0.00001897        0.00008848        0.00000837        0.00006659
       3         -0.951829        1.000000        0.00003878        0.00006361        0.00015702        0.00012112
       4         -0.945395        1.000000        0.00015300        0.00035847        0.00046860        0.00017216
       5         -0.938990        1.000000        0.00019102        0.00029247        0.00036708        0.00019166
       6         -0.930187        1.000000        0.00029567        0.00062699        0.00038355        0.00019903
       7         -0.926542        1.000000        0.00022617        0.00032796        0.00047505        0.00017539
       8         -0.711274        1.000000        0.00036279        0.00017134        0.00021150        0.00016631
       9         -0.694966        1.000000        0.00063491        0.00016113        0.00043250        0.00005659
      10         -0.693947        1.000000        0.00072540        0.00028376        0.00012077        0.00029753
      11         -0.687800        1.000000        0.00173544        0.00036920        0.00043464        0.00049897
      12         -0.682967        1.000000        0.00190844        0.00029040        0.00033237        0.00020164
      13         -0.675190        1.000000        0.00247096        0.00029303        0.00041349        0.00019861
      14         -0.673658        1.000000        0.00263906        0.00044791        0.00048265        0.00029371
      15         -0.608955        1.000000        0.00265327        0.00015270        0.00013293        0.00001417
      16         -0.607542        1.000000        0.86012424        0.00655578        0.00330722        0.00362002
      17         -0.599352        1.000000        0.82389916        0.00432297        0.00336070        0.00299191
      18         -0.598050        1.000000        0.87661908        0.00133834        0.00231978        0.00231891
      19         -0.596577        1.000000        0.69934389        0.00299242        0.00363619        0.00272218
      20         -0.596052        1.000000        0.10473778        0.00045968        0.00064936        0.00039908
      21         -0.592395        1.000000        0.77022172        0.00304512        0.00327528        0.00552028
      22         -0.591722        1.000000        0.20486996        0.00198663        0.00143304        0.00204643
      23         -0.588870        1.000000        0.85643800        0.00333655        0.00504157        0.00571525
      24         -0.588072        1.000000        0.71218310        0.00147457        0.00221479        0.00336419
      25         -0.587284        1.000000        0.80383532        0.00131804        0.00206011        0.00452265
      26         -0.585707        1.000000        0.80024440        0.00232754        0.00364136        0.00279766
      27         -0.583883        1.000000        0.64738006        0.00237503        0.00369203        0.00331981
      28         -0.581124        1.000000        0.57350979        0.00172443        0.00168361        0.00133908
      29         -0.579805        1.000000        0.87236272        0.00130077        0.00173037        0.00156390
      30         -0.578294        1.000000        0.85133724        0.00163680        0.00340465        0.00270746
      31         -0.577059        1.000000        0.87525212        0.00245256        0.00391434        0.00408820
      32         -0.575898        1.000000        0.66946368        0.00453590        0.00189146        0.00212302
      33         -0.575390        1.000000        0.85241073        0.00180131        0.00348313        0.00183261
      34         -0.574684        1.000000        0.83797726        0.00235978        0.00373075        0.00205762
      35         -0.573712        1.000000        0.92973084        0.00064512        0.00178303        0.00110175
      36         -0.572881        1.000000        0.86548986        0.00121895        0.00379713        0.00052447
      37         -0.572306        1.000000        0.91478986        0.00165381        0.00250122        0.00145715
      38         -0.571712        1.000000        0.73165056        0.00220840        0.00324356        0.00128741
      39         -0.570644        1.000000        0.94772742        0.00068934        0.00243925        0.00291112
      40         -0.569417        1.000000        0.91464096        0.00291008        0.00119339        0.00215264
      41         -0.568774        1.000000        0.49116855        0.00148145        0.00363405        0.00085762
      42         -0.567282        1.000000        0.83046157        0.00042827        0.00152641        0.00177424
      43         -0.566962        1.000000        0.72312639        0.00182685        0.00172642        0.00322611
      44         -0.566359        1.000000        0.95152109        0.00141481        0.00069201        0.00057693
      45         -0.566192        1.000000        0.57143674        0.00075737        0.00233212        0.00083035
      46         -0.565403        1.000000        0.70610542        0.00267477        0.00040091        0.00067081
      47         -0.564243        1.000000        0.76894757        0.00100272        0.00208739        0.00049941
      48         -0.563249        1.000000        0.66122868        0.00107476        0.00120152        0.00061284
      49         -0.563070        1.000000        0.81385697        0.00072417        0.00073400        0.00111842
      50         -0.562462        1.000000        0.72192277        0.00082699        0.00050300        0.00085946
      51         -0.561757        1.000000        0.97585330        0.00100366        0.00003304        0.00098175
      52         -0.560499        1.000000        0.44880946        0.00124302        0.00212002        0.00024169
      53         -0.559960        1.000000        0.80740170        0.00055780        0.00062550        0.00057060
      54         -0.559294        1.000000        0.95519062        0.00038812        0.00196264        0.00050127
      55         -0.558127        1.000000        0.86476759        0.00298446        0.00174741        0.00100114
      56         -0.557616        1.000000        0.22761615        0.00038515        0.00031893        0.00031733
      57         -0.556842        1.000000        0.35793831        0.00052399        0.00078382        0.00063435
      58         -0.555001        1.000000        0.98354039        0.00009501        0.00069911        0.00084980
      59         -0.554299        1.000000        0.97684232        0.00127977        0.00008324        0.00018818
      60         -0.550566        1.000000        0.12835402        0.00555109        0.00133005        0.00178019
      61         -0.546424        1.000000        0.29013950        0.00072499        0.00231512        0.00078333
      62         -0.544193        1.000000        0.26297050        0.00152698        0.00070506        0.00062903
      63         -0.543030        1.000000        0.14231108        0.00195577        0.00199973        0.00236299
      64         -0.537150        1.000000        0.26880212        0.00213800        0.00183898        0.00122659
      65         -0.498297        1.000000        0.00176688        0.00050876        0.00055884        0.00047032
      66         -0.481445        1.000000        0.00122703        0.00106967        0.00055451        0.00094392
      67         -0.476783        1.000000        0.00164406        0.00092653        0.00138121        0.00046994
      68         -0.468185        1.000000        0.00418722        0.00261159        0.00309226        0.00186509
      69         -0.464051        1.000000        0.02913175        0.01035315        0.01094267        0.01164036
      70         -0.463347        1.000000        0.13203667        0.03506207        0.03597105        0.04214467
      71         -0.462907        1.000000        0.15552543        0.03917916        0.03907958        0.04770436
      72         -0.459010        1.000000        0.13093605        0.02992315        0.04154707        0.04429986
      73         -0.456828        1.000000        0.12021081        0.03312839        0.03527809        0.02726673
      74         -0.456771        1.000000        0.08886552        0.02256995        0.02957223        0.03450467
      75         -0.455442        1.000000        0.04350103        0.00951581        0.01158221        0.01324584
      76         -0.453595        1.000000        0.05144829        0.01277059        0.01801443        0.01083875
      77         -0.452002        1.000000        0.07637006        0.01719721        0.02745261        0.01980603
      78         -0.449290        1.000000        0.14550778        0.02882332        0.03523665        0.03339343
      79         -0.446618        1.000000        0.12552200        0.02726196        0.03007826        0.02140412
      80         -0.424092        1.000000        0.00143939        0.00217111        0.00069898        0.00153141
      81         -0.420954        1.000000        0.00185115        0.00095941        0.00251753        0.00138196
      82         -0.411451        1.000000        0.00087966        0.00177272        0.00172445        0.00021365
      83         -0.408431        1.000000        0.00030100        0.00030658        0.00089562        0.00022348
      84         -0.408057        1.000000        0.00133550        0.00227681        0.00092867        0.00212075
      85         -0.405612        1.000000        0.00193296        0.00320151        0.00347493        0.00320699
      86         -0.403726        1.000000        0.00202638        0.00329247        0.00236963        0.00602608
      87         -0.401652        1.000000        0.00150137        0.00316054        0.00089650        0.00252924
      88         -0.399833        1.000000        0.00124238        0.00087665        0.00332257        0.00100356
      89         -0.396458        1.000000        0.00107351        0.00225090        0.00059585        0.00135709
      90         -0.391422        1.000000        0.00146775        0.00415218        0.00230105        0.00222157
      91         -0.391022        1.000000        0.00099611        0.00257241        0.00145912        0.00153290
      92         -0.389719        1.000000        0.00139938        0.00221564        0.00316224        0.00133392
      93         -0.389667        1.000000        0.00169203        0.00308492        0.00363266        0.00157077
      94         -0.282629        1.000000        0.01556611        0.01936143        0.54396642        0.19320923
      95         -0.280664        1.000000        0.01262373        0.02265315        0.27235876        0.43104193
      96         -0.278992        1.000000        0.00918073        0.09788193        0.29060221        0.36232940
      97         -0.271385        1.000000        0.01478509        0.54064861        0.05957668        0.10493643
      98         -0.269422        1.000000        0.01171394        0.26793919        0.03376151        0.41410259
      99         -0.267947        1.000000        0.01370969        0.44253730        0.23242805        0.04652146
     100         -0.266171        1.000000        0.01417961        0.25824322        0.19369101        0.31062557
     101         -0.264605        1.000000        0.01534403        0.12950757        0.29949832        0.31239002
     102         -0.263733        1.000000        0.01530294        0.22807717        0.31081114        0.17043694
     103         -0.262994        1.000000        0.01227586        0.20977896        0.29174914        0.22620547
     104         -0.262175        1.000000        0.01352336        0.49494338        0.12364379        0.10742521
     105         -0.261266        1.000000        0.02092483        0.07556752        0.38335215        0.25502739
     106         -0.257423        1.000000        0.01328755        0.11877539        0.40367183        0.22323171
     107         -0.254013        1.000000        0.01199991        0.11505713        0.37583187        0.27727766
     108         -0.248854        1.000000        0.01427617        0.32520866        0.23401774        0.21425905
     109         -0.247947        1.000000        0.01570032        0.23257351        0.32580357        0.20219116
     110         -0.244969        1.000000        0.01372148        0.16380158        0.22317537        0.39370898
     111         -0.243570        1.000000        0.01636267        0.20937604        0.23999884        0.30503985
     112         -0.242379        1.000000        0.01129731        0.19790826        0.33404883        0.28536695
     113         -0.239692        1.000000        0.01455137        0.30879462        0.22565434        0.25030665
     114         -0.239024        1.000000        0.01313218        0.21182298        0.33803705        0.23729476
     115         -0.238253        1.000000        0.01301829        0.31979654        0.40447785        0.06142614
     116         -0.237457        1.000000        0.00964174        0.34753564        0.20523933        0.28984806
     117         -0.232992        1.000000        0.00629019        0.32317160        0.37577139        0.19142388
     118         -0.232364        1.000000        0.00633240        0.41632656        0.23565539        0.23374412
     119         -0.231054        1.000000        0.00588340        0.35495822        0.32379131        0.20265387
     120         -0.229642        1.000000        0.00449668        0.10780956        0.22422454        0.60598519
     121         -0.228623        1.000000        0.00413301        0.35328872        0.31977298        0.26222409
     122         -0.227288        1.000000        0.00371312        0.54607687        0.13605520        0.19997899
     123         -0.226315        1.000000        0.00857824        0.23382571        0.25197550        0.38959478
     124         -0.223535        1.000000        0.00391491        0.48842090        0.16209325        0.29178239
     125         -0.222097        1.000000        0.00616567        0.37767408        0.36440645        0.16261566
     126         -0.221108        1.000000        0.00531516        0.27631151        0.26847463        0.40205899
     127         -0.218597        1.000000        0.00163298        0.19185800        0.20569018        0.56424024
     128         -0.217673        1.000000        0.00476102        0.50820424        0.23272725        0.19792600
     129         -0.216866        1.000000        0.00108506        0.45188068        0.29253064        0.22626189
     130         -0.215834        1.000000        0.00410898        0.51224525        0.24181756        0.18864242
     131         -0.214474        1.000000        0.00100027        0.48550038        0.24044437        0.24817032
     132         -0.213008        1.000000        0.00219612        0.49303150        0.21473808        0.24534892
     133         -0.211578        1.000000        0.00073935        0.36601669        0.41777797        0.19482260
     134         -0.210051        1.000000        0.00064426        0.34578990        0.42199210        0.21820581
     135         -0.209376        1.000000        0.00082803        0.32388323        0.37069665        0.28896101
     136         -0.208382        1.000000        0.00058056        0.49282828        0.26083343        0.22644292
     137         -0.207322        1.000000        0.00119313        0.18658831        0.60400980        0.18889189
     138         -0.206804        1.000000        0.00041933        0.38563209        0.29301724        0.30508095
     139         -0.206154        1.000000        0.00114257        0.21039960        0.43668294        0.33665681
     140         -0.205578        1.000000        0.00066186        0.45107520        0.25618799        0.28022120
     141         -0.205045        1.000000        0.00072367        0.41155177        0.33954361        0.23741308
     142         -0.203951        1.000000        0.00052807        0.34876362        0.44903526        0.19080384
     143         -0.202892        1.000000        0.00079963        0.39737978        0.26080908        0.32920057
     144         -0.201651        1.000000        0.00177741        0.36303255        0.28000430        0.34175536
     145         -0.201023        1.000000        0.00076950        0.30317916        0.37977180        0.30566048
     146         -0.200559        1.000000        0.00057423        0.43584376        0.17701030        0.37688318
     147         -0.199475        1.000000        0.00108373        0.37650742        0.22884423        0.38174223
     148         -0.199060        1.000000        0.00136864        0.49414794        0.27499296        0.21607925
     149         -0.198489        1.000000        0.00126077        0.30136992        0.19170060        0.49145877
     150         -0.197777        1.000000        0.00119346        0.29047716        0.49974566        0.20111394
     151         -0.197420        1.000000        0.00180201        0.40080512        0.31882032        0.26620835
     152         -0.196377        1.000000        0.00175550        0.28883417        0.46873508        0.21991150
     153         -0.196281        1.000000        0.00074734        0.26737594        0.22796241        0.49205312
     154         -0.196129        1.000000        0.00093961        0.39246657        0.23303559        0.36102102
     155         -0.195514        1.000000        0.00187074        0.28603941        0.36813187        0.32480539
     156         -0.195154        1.000000        0.00114395        0.25248928        0.46663980        0.27022738
     157         -0.194586        1.000000        0.00084720        0.39939355        0.36142105        0.22733171
     158         -0.193932        1.000000        0.00070298        0.36388267        0.30109340        0.31616458
     159         -0.193003        1.000000        0.00097627        0.31024498        0.34996062        0.32841061
     160         -0.192747        1.000000        0.00101415        0.31104584        0.35684782        0.31331624
     161         -0.192505        1.000000        0.00074616        0.31542629        0.29580944        0.37692130
     162         -0.192153        1.000000        0.00088507        0.40756073        0.30263605        0.27234605
     163         -0.191479        1.000000        0.00111706        0.24103226        0.34759195        0.39677621
     164         -0.191005        1.000000        0.00043015        0.21086416        0.25834405        0.52256159
     165         -0.190550        1.000000        0.00068313        0.55196288        0.16429298        0.27325559
     166         -0.190299        1.000000        0.00103727        0.24526312        0.47575315        0.26864367
     167         -0.189879        1.000000        0.00062528        0.24089840        0.23620440        0.50258738
     168         -0.189709        1.000000        0.00054783        0.20042571        0.46509473        0.32525597
     169         -0.189533        1.000000        0.00063270        0.30077933        0.12765699        0.56130060
     170         -0.189031        1.000000        0.00081717        0.41523331        0.30102161        0.26895564
     171         -0.188839        1.000000        0.00045507        0.09409894        0.20782952        0.68748652
     172         -0.188612        1.000000        0.00054495        0.12261381        0.38599259        0.48626832
     173         -0.188366        1.000000        0.00053497        0.29824929        0.31225122        0.37529391
     174         -0.187975        1.000000        0.00073621        0.28204643        0.34327091        0.36681353
     175         -0.187904        1.000000        0.00121417        0.15478787        0.45133858        0.37760308
     176         -0.187410        1.000000        0.00071669        0.43103916        0.17568023        0.37420134
     177         -0.186857        1.000000        0.00046320        0.23738841        0.36591929        0.39064118
     178         -0.186640        1.000000        0.00042922        0.35711412        0.24500736        0.38285952
     179         -0.186473        1.000000        0.00061621        0.21206601        0.47480013        0.29908659
     180         -0.186117        1.000000        0.00064596        0.41286163        0.33685980        0.23994831
     181         -0.186052        1.000000        0.00049934        0.24822804        0.38150030        0.35983193
     182         -0.185293        1.000000        0.00022949        0.09158850        0.45206035        0.45161300
     183         -0.185176        1.000000        0.00077173        0.29665927        0.29627375        0.38209121
     184         -0.185020        1.000000        0.00022931        0.33619404        0.43515792        0.20731702
     185         -0.184517        1.000000        0.00050735        0.36994055        0.22390977        0.39231277
     186         -0.184022        1.000000        0.00056132        0.28299463        0.39620445        0.30732896
     187         -0.183997        1.000000        0.00046336        0.35295515        0.29802836        0.33737892
     188         -0.183677        1.000000        0.00037051        0.15380046        0.33610864        0.48175116
     189         -0.182924        1.000000        0.00035848        0.43075412        0.20341048        0.35807560
     190         -0.182749        1.000000        0.00049478        0.17572211        0.39676669        0.39196497
     191         -0.182107        1.000000        0.00052494        0.35470582        0.26662475        0.33341493
     192         -0.181780        1.000000        0.00020318        0.66366842        0.07884910        0.25338766
     193         -0.181339        1.000000        0.00064576        0.45169221        0.23511608        0.29051147
     194         -0.181036        1.000000        0.00021369        0.39040251        0.11707793        0.48004271
     195         -0.180604        1.000000        0.00045540        0.16508349        0.62597704        0.19550576
     196         -0.180449        0.000000        0.00205456        0.23230686        0.38373356        0.35782260
     197         -0.180244        0.000000        0.00039184        0.25770564        0.51884099        0.21211591
     198         -0.179472        0.000000        0.00031639        0.35797101        0.23774776        0.33599131
     199         -0.178619        0.000000        0.00020077        0.30680923        0.26380583        0.33377059
     200         -0.176910        0.000000        0.00023359        0.19921142        0.28188186        0.42574787
     201         -0.174053        0.000000        0.00056155        0.23223484        0.48511615        0.16780467
     202         -0.072600        0.000000        0.02019405        0.12461007        0.08492948        0.01781241
     203         -0.064909        0.000000        0.02854096        0.09544799        0.05761811        0.08491672
     204         -0.064185        0.000000        0.02663952        0.07894169        0.09153182        0.07608751
     205         -0.062672        0.000000        0.02196601        0.08680255        0.05482421        0.11905796
     206         -0.061672        0.000000        0.02303282        0.03518276        0.09765492        0.11317145
     207         -0.057991        0.000000        0.02402485        0.08321371        0.09445258        0.08651963
     208         -0.057532        0.000000        0.02136459        0.13830458        0.04622366        0.07985319
     209         -0.052254        0.000000        0.02565321        0.19138432        0.04157872        0.02380581
     210         -0.048420        0.000000        0.01906266        0.06063721        0.01858210        0.18524781
     211         -0.047217        0.000000        0.02425328        0.00987382        0.20884860        0.05547016
     212         -0.041069        0.000000        0.01696083        0.04429400        0.18104655        0.05387082
     213         -0.040889        0.000000        0.01991442        0.08083542        0.15036454        0.03933612
     214         -0.034724        0.000000        0.01952693        0.01306532        0.09701975        0.18330615
     215         -0.033273        0.000000        0.02366663        0.02185762        0.12871017        0.13890161
     216         -0.030304        0.000000        0.01467016        0.04743903        0.19419642        0.03962230
     217         -0.028944        0.000000        0.01990479        0.23217964        0.03429154        0.01952284
     218         -0.026478        0.000000        0.02501904        0.23892272        0.03863427        0.01681498
     219         -0.025704        0.000000        0.01865436        0.01989718        0.11782263        0.15886012
     220         -0.021607        0.000000        0.01384908        0.00584083        0.02070729        0.27114311
     221         -0.019674        0.000000        0.01989698        0.01719836        0.22403164        0.06079890
     222         -0.018155        0.000000        0.01859397        0.02401571        0.21002845        0.06513548
     223         -0.015696        0.000000        0.01330515        0.26565094        0.03017898        0.01040574
     224         -0.012135        0.000000        0.01034593        0.01077390        0.01943919        0.27666851
     225         -0.009109        0.000000        0.01458333        0.29295909        0.00908197        0.01495448
     226          0.067563        0.000000        0.00003874        0.00058237        0.00068661        0.00025135
     227          0.093947        0.000000        0.00005597        0.00048903        0.00136976        0.00062204
     228          0.095452        0.000000        0.00005696        0.00063223        0.00042562        0.00076400
     229          0.097634        0.000000        0.00010763        0.00085901        0.00176663        0.00091053
     230          0.106245        0.000000        0.00010311        0.00112686        0.00085842        0.00078224
     231          0.116676        0.000000        0.00012168        0.00063481        0.00172797        0.00086581
     232          0.119473        0.000000        0.00007507        0.00079564        0.00106273        0.00029262
     233          0.131558        0.000000        0.00001125        0.00011114        0.00022606        0.00027279
     234          0.144630        0.000000        0.00000584        0.00015481        0.00009057        0.00012642
     235          0.200192        0.000000        0.00000402        0.00009676        0.00002852        0.00002298
     236          0.220463        0.000000        0.00000677        0.00020466        0.00055764        0.00023082
     237          0.271988        0.000000        0.00000359        0.00016776        0.00011431        0.00007609
     238          0.283659        0.000000        0.00006448        0.00156167        0.00010439        0.00081633
     239          0.290102        0.000000        0.00024661        0.00145159        0.00142002        0.00280115
     240          0.291181        0.000000        0.00062076        0.00397050        0.00050384        0.00303113
     241          0.294683        0.000000        0.00026872        0.00392710        0.00030359        0.00187276
     242          0.295753        0.000000        0.00093432        0.00336192        0.00842879        0.00371608
     243          0.298812        0.000000        0.00008224        0.00426096        0.00064922        0.00151068
     244          0.302444        0.000000        0.00088958        0.00644220        0.00530437        0.00385929
     245          0.304331        0.000000        0.00086807        0.00457502        0.00622309        0.00491567
     246          0.310680        0.000000        0.00024095        0.00441344        0.00009436        0.00323375
     247          0.311108        0.000000        0.00061578        0.00954308        0.00094167        0.00169525
     248          0.313594        0.000000        0.00064928        0.00023117        0.01099298        0.00073403
     249          0.329496        0.000000        0.00050271        0.00111449        0.00163530        0.00417792
     250          0.333131        0.000000        0.00024078        0.00792288        0.00130173        0.00227076
     251          0.343046        0.000000        0.00100318        0.00631073        0.00777541        0.00427071
     252          0.351080        0.000000        0.00110368        0.00495660        0.00988006        0.00407657
     253          0.352360        0.000000        0.00107027        0.00842183        0.00561188        0.00505845
     254          0.437408        0.000000        0.00001544        0.00027152        0.00042114        0.00013780
     255          0.444693        0.000000        0.00002571        0.00060795        0.00007415        0.00053297
     256          0.452383        0.000000        0.00001136        0.00033976        0.00015937        0.00027926
     257          0.456708        0.000000        0.00003995        0.00014377        0.00021554        0.00020597
     258          0.461800        0.000000        0.00003147        0.00012358        0.00008118        0.00016992
     259          0.464457        0.000000        0.00001617        0.00015577        0.00010573        0.00012323