# Projected DOS for atomic kind H at iteration step i = 0, E(Fermi) =    -0.180287 a.u.
#     MO Eigenvalue [a.u.]      Occupation                 s
       1         -0.980568        1.000000        0.27411900
       2         -0.959232        1.000000        0.26902845
       3         -0.951787        1.000000        0.26593135
       4         -0.945348        1.000000        0.28335785
       5         -0.938961        1.000000        0.28182634
       6         -0.930117        1.000000        0.28125482
       7         -0.926491        1.000000        0.28097435
       8         -0.711226        1.000000        0.33283804
       9         -0.694889        1.000000        0.34438482
      10         -0.693871        1.000000        0.33395423
      11         -0.687747        1.000000        0.34494857
      12         -0.682911        1.000000        0.34233520
      13         -0.675101        1.000000        0.34431208
      14         -0.673588        1.000000        0.34775780
      15         -0.608901        1.000000        0.33365164
      16         -0.606545        1.000000        0.02619266
      17         -0.599291        1.000000        0.02170932
      18         -0.598578        1.000000        0.01786973
      19         -0.596707        1.000000        0.06181291
      20         -0.596019        1.000000        0.30195775
      21         -0.592336        1.000000        0.05910914
      22         -0.591675        1.000000        0.24684200
      23         -0.588621        1.000000        0.01444961
      24         -0.588033        1.000000        0.07987503
      25         -0.587513        1.000000        0.05856087
      26         -0.586045        1.000000        0.04619149
      27         -0.583281        1.000000        0.10081929
      28         -0.581045        1.000000        0.13385624
      29         -0.579838        1.000000        0.02800256
      30         -0.577601        1.000000        0.03272141
      31         -0.575384        1.000000        0.03470304
      32         -0.574713        1.000000        0.10625182
      33         -0.574374        1.000000        0.01265115
      34         -0.573906        1.000000        0.02566080
      35         -0.573265        1.000000        0.01337360
      36         -0.571863        1.000000        0.00690785
      37         -0.571258        1.000000        0.05077403
      38         -0.571019        1.000000        0.06238245
      39         -0.570366        1.000000        0.02319474
      40         -0.569168        1.000000        0.09256827
      41         -0.569131        1.000000        0.05780760
      42         -0.567217        1.000000        0.08699413
      43         -0.566444        1.000000        0.18397113
      44         -0.564663        1.000000        0.13197819
      45         -0.563520        1.000000        0.00441554
      46         -0.563152        1.000000        0.08158915
      47         -0.562701        1.000000        0.00210476
      48         -0.562602        1.000000        0.02607571
      49         -0.562492        1.000000        0.10526290
      50         -0.561834        1.000000        0.08480786
      51         -0.561610        1.000000        0.01898974
      52         -0.560252        1.000000        0.00095807
      53         -0.559948        1.000000        0.08395683
      54         -0.559424        1.000000        0.07594864
      55         -0.557360        1.000000        0.23032495
      56         -0.556696        1.000000        0.05341572
      57         -0.556531        1.000000        0.19770986
      58         -0.554843        1.000000        0.00460944
      59         -0.553242        1.000000        0.00214057
      60         -0.550398        1.000000        0.27711678
      61         -0.545844        1.000000        0.20146251
      62         -0.543836        1.000000        0.21778981
      63         -0.542752        1.000000        0.26324791
      64         -0.537481        1.000000        0.22807781
      65         -0.498254        1.000000        0.18653079
      66         -0.481372        1.000000        0.19372860
      67         -0.476717        1.000000        0.18433764
      68         -0.468145        1.000000        0.17308755
      69         -0.463982        1.000000        0.14962638
      70         -0.463321        1.000000        0.02203010
      71         -0.462772        1.000000        0.01062486
      72         -0.459002        1.000000        0.00242889
      73         -0.456743        1.000000        0.04031277
      74         -0.456603        1.000000        0.02817413
      75         -0.455374        1.000000        0.12616610
      76         -0.453482        1.000000        0.11215261
      77         -0.451858        1.000000        0.05121868
      78         -0.449245        1.000000        0.00074100
      79         -0.446107        1.000000        0.00346890
      80         -0.424050        1.000000        0.41729855
      81         -0.420894        1.000000        0.41420434
      82         -0.411349        1.000000        0.42075853
      83         -0.408326        1.000000        0.42510485
      84         -0.407962        1.000000        0.42151804
      85         -0.405555        1.000000        0.42148564
      86         -0.403643        1.000000        0.41866712
      87         -0.401602        1.000000        0.41575404
      88         -0.399763        1.000000        0.42416619
      89         -0.396374        1.000000        0.41957171
      90         -0.391341        1.000000        0.42258000
      91         -0.390929        1.000000        0.42338776
      92         -0.389635        1.000000        0.42161406
      93         -0.389578        1.000000        0.42116034
      94         -0.282166        1.000000        0.00036043
      95         -0.280696        1.000000        0.00048191
      96         -0.279789        1.000000        0.00110816
      97         -0.271051        1.000000        0.00046944
      98         -0.269619        1.000000        0.00029431
      99         -0.267455        1.000000        0.00038711
     100         -0.266222        1.000000        0.00023406
     101         -0.264380        1.000000        0.00021626
     102         -0.263356        1.000000        0.00048892
     103         -0.262570        1.000000        0.00044757
     104         -0.261425        1.000000        0.00023037
     105         -0.261023        1.000000        0.00034408
     106         -0.256948        1.000000        0.00038261
     107         -0.253859        1.000000        0.00043315
     108         -0.248280        1.000000        0.00116872
     109         -0.247420        1.000000        0.00114542
     110         -0.244198        1.000000        0.00030222
     111         -0.243103        1.000000        0.00050255
     112         -0.241620        1.000000        0.00086222
     113         -0.239545        1.000000        0.00081727
     114         -0.238571        1.000000        0.00044763
     115         -0.237551        1.000000        0.00037714
     116         -0.236884        1.000000        0.00183947
     117         -0.232585        1.000000        0.00235733
     118         -0.231732        1.000000        0.00088470
     119         -0.230406        1.000000        0.00143632
     120         -0.228905        1.000000        0.00052341
     121         -0.228023        1.000000        0.00100726
     122         -0.226521        1.000000        0.00080094
     123         -0.225971        1.000000        0.00075445
     124         -0.223312        1.000000        0.00221384
     125         -0.221701        1.000000        0.00047424
     126         -0.220517        1.000000        0.00104346
     127         -0.218193        1.000000        0.00124281
     128         -0.217820        1.000000        0.00117180
     129         -0.216360        1.000000        0.00091759
     130         -0.215585        1.000000        0.00063076
     131         -0.213804        1.000000        0.00121406
     132         -0.212552        1.000000        0.00124658
     133         -0.210903        1.000000        0.00125074
     134         -0.209646        1.000000        0.00119082
     135         -0.208801        1.000000        0.00039245
     136         -0.208248        1.000000        0.00057314
     137         -0.207268        1.000000        0.00034824
     138         -0.205965        1.000000        0.00142314
     139         -0.205677        1.000000        0.00085816
     140         -0.204988        1.000000        0.00034600
     141         -0.204046        1.000000        0.00064570
     142         -0.202936        1.000000        0.00072552
     143         -0.202601        1.000000        0.00086109
     144         -0.201313        1.000000        0.00037226
     145         -0.200516        1.000000        0.00124286
     146         -0.199658        1.000000        0.00080716
     147         -0.199054        1.000000        0.00055170
     148         -0.198009        1.000000        0.00047184
     149         -0.197674        1.000000        0.00185455
     150         -0.196917        1.000000        0.00068536
     151         -0.196672        1.000000        0.00175801
     152         -0.195710        1.000000        0.00080210
     153         -0.195402        1.000000        0.00101765
     154         -0.195357        1.000000        0.00029975
     155         -0.194931        1.000000        0.00054344
     156         -0.194334        1.000000        0.00058973
     157         -0.193565        1.000000        0.00038784
     158         -0.192952        1.000000        0.00028963
     159         -0.192606        1.000000        0.00067270
     160         -0.192516        1.000000        0.00070894
     161         -0.192010        1.000000        0.00024512
     162         -0.191783        1.000000        0.00019072
     163         -0.191377        1.000000        0.00029285
     164         -0.191021        1.000000        0.00018651
     165         -0.190799        1.000000        0.00024985
     166         -0.189926        1.000000        0.00050223
     167         -0.189591        1.000000        0.00106086
     168         -0.189374        1.000000        0.00032401
     169         -0.188958        1.000000        0.00019904
     170         -0.188422        1.000000        0.00018321
     171         -0.188156        1.000000        0.00040020
     172         -0.187839        1.000000        0.00033501
     173         -0.187523        1.000000        0.00052313
     174         -0.187160        1.000000        0.00042205
     175         -0.186957        1.000000        0.00022448
     176         -0.186633        1.000000        0.00040722
     177         -0.185813        1.000000        0.00019879
     178         -0.185623        1.000000        0.00023104
     179         -0.185260        1.000000        0.00017389
     180         -0.185108        1.000000        0.00027741
     181         -0.184459        1.000000        0.00016014
     182         -0.184159        1.000000        0.00029379
     183         -0.183927        1.000000        0.00023921
     184         -0.183513        1.000000        0.00024644
     185         -0.183418        1.000000        0.00019236
     186         -0.182726        1.000000        0.00018657
     187         -0.182531        1.000000        0.00033144
     188         -0.182261        1.000000        0.00024036
     189         -0.182078        1.000000        0.00015103
     190         -0.180981        1.000000        0.00008998
     191         -0.180775        1.000000        0.00008039
     192         -0.180634        1.000000        0.00006705
     193         -0.180358        1.000000        0.00015307
     194         -0.180287        1.000000        0.00016849
     195         -0.180269        0.000000        0.00016741
     196         -0.180075        0.000000        0.00017926
     197         -0.179566        0.000000        0.00015522
     198         -0.179318        0.000000        0.00014138
     199         -0.178523        0.000000        0.00014450
     200         -0.176971        0.000000        0.00006790
     201         -0.173042        0.000000        0.00002310
     202         -0.072433        0.000000        0.00010808
     203         -0.064772        0.000000        0.00014212
     204         -0.064066        0.000000        0.00014348
     205         -0.062622        0.000000        0.00007385
     206         -0.061608        0.000000        0.00016262
     207         -0.057886        0.000000        0.00014075
     208         -0.057447        0.000000        0.00009961
     209         -0.051972        0.000000        0.00006630
     210         -0.048127        0.000000        0.00010562
     211         -0.047050        0.000000        0.00017765
     212         -0.041055        0.000000        0.00014664
     213         -0.040634        0.000000        0.00033515
     214         -0.034814        0.000000        0.00009665
     215         -0.033225        0.000000        0.00019238
     216         -0.029892        0.000000        0.00010254
     217         -0.028707        0.000000        0.00033459
     218         -0.026131        0.000000        0.00052184
     219         -0.025776        0.000000        0.00013868
     220         -0.021640        0.000000        0.00025468
     221         -0.019686        0.000000        0.00021656
     222         -0.018146        0.000000        0.00015111
     223         -0.015526        0.000000        0.00008922
     224         -0.011868        0.000000        0.00004596
     225         -0.008819        0.000000        0.00011650
     226          0.067598        0.000000        0.00366501
     227          0.094019        0.000000        0.05421295
     228          0.095525        0.000000        0.04102029
     229          0.097661        0.000000        0.00353359
     230          0.106305        0.000000        0.00433999
     231          0.116722        0.000000        0.00357644
     232          0.119555        0.000000        0.00391096
     233          0.131647        0.000000        0.61898262
     234          0.144751        0.000000        0.62768486
     235          0.200226        0.000000        0.66090332
     236          0.220504        0.000000        0.65787308
     237          0.272058        0.000000        0.65155517
     238          0.283711        0.000000        0.66215052
     239          0.290155        0.000000        0.66310044
     240          0.291252        0.000000        0.66245706
     241          0.294690        0.000000        0.65893512
     242          0.295790        0.000000        0.66338795
     243          0.298827        0.000000        0.66509348
     244          0.302494        0.000000        0.66149454
     245          0.304404        0.000000        0.66252198
     246          0.310762        0.000000        0.64567558
     247          0.311179        0.000000        0.66012385
     248          0.313659        0.000000        0.66112050
     249          0.329507        0.000000        0.64101065
     250          0.333163        0.000000        0.63783999
     251          0.343059        0.000000        0.63135803
     252          0.351147        0.000000        0.62963863
     253          0.352434        0.000000        0.62964766
     254          0.437470        0.000000        0.58963078
     255          0.444702        0.000000        0.58791255
     256          0.452418        0.000000        0.59170421
     257          0.456806        0.000000        0.58603186
     258          0.461893        0.000000        0.58337480
     259          0.464544        0.000000        0.58413210
     260          0.466570        0.000000        0.58302464
     261          0.469296        0.000000        0.58359122
     262          0.470352        0.000000        0.58784864
     263          0.471579        0.000000        0.58155611
     264          0.474478        0.000000        0.58181654
     265          0.477952        0.000000        0.58075166
     266          0.479346        0.000000        0.58231714
     267          0.483440        0.000000        0.58192331
     268          0.557278        0.000000        0.55417467
     269          0.562420        0.000000        0.55184067
     270          0.564401        0.000000        0.55346461
     271          0.566214        0.000000        0.55238872
     272          0.574175        0.000000        0.55254714
     273          0.576177        0.000000        0.55233939
     274          0.578613        0.000000        0.55204653
