# Projected DOS for atomic kind Pb at iteration step i = 0, E(Fermi) =    -0.180604 a.u.
#     MO Eigenvalue [a.u.]      Occupation                 s                py                pz                px
       1         -0.980610        1.000000        0.00000002        0.00000014        0.00000019        0.00000016
       2         -0.959299        1.000000        0.00000010        0.00000220        0.00000277        0.00000123
       3         -0.951829        1.000000        0.00000004        0.00000084        0.00000062        0.00000036
       4         -0.945395        1.000000        0.00000039        0.00000475        0.00000486        0.00000234
       5         -0.938990        1.000000        0.00000042        0.00000523        0.00000376        0.00000242
       6         -0.930187        1.000000        0.00000031        0.00000260        0.00000343        0.00000070
       7         -0.926542        1.000000        0.00000290        0.00001763        0.00005104        0.00001163
       8         -0.711274        1.000000        0.00001035        0.00001566        0.00001683        0.00001036
       9         -0.694966        1.000000        0.00000948        0.00001022        0.00000450        0.00001263
      10         -0.693947        1.000000        0.00001805        0.00002779        0.00001704        0.00001822
      11         -0.687800        1.000000        0.00001562        0.00002716        0.00002175        0.00000776
      12         -0.682967        1.000000        0.00003667        0.00003671        0.00001941        0.00001185
      13         -0.675190        1.000000        0.00002143        0.00002481        0.00002048        0.00000299
      14         -0.673658        1.000000        0.00005413        0.00003337        0.00010204        0.00005102
      15         -0.608955        1.000000        0.00015536        0.00002223        0.00000332        0.00004089
      16         -0.607542        1.000000        0.05463253        0.00017306        0.01142188        0.00100366
      17         -0.599352        1.000000        0.08845287        0.00185021        0.00348225        0.01368867
      18         -0.598050        1.000000        0.04794773        0.00541336        0.00991575        0.00276211
      19         -0.596577        1.000000        0.06310127        0.00830399        0.00364611        0.00292282
      20         -0.596052        1.000000        0.00742345        0.00115436        0.00064232        0.00066051
      21         -0.592395        1.000000        0.06192402        0.00188625        0.00880881        0.00214185
      22         -0.591722        1.000000        0.01788667        0.00026221        0.00408933        0.00020372
      23         -0.588870        1.000000        0.07905259        0.00205933        0.00768693        0.01694125
      24         -0.588072        1.000000        0.02229317        0.00344582        0.00617162        0.00544748
      25         -0.587284        1.000000        0.02462003        0.00166725        0.00895847        0.00518554
      26         -0.585707        1.000000        0.03881533        0.00224896        0.00590727        0.01055346
      27         -0.583883        1.000000        0.03575915        0.00235599        0.00349903        0.01253274
      28         -0.581124        1.000000        0.00834531        0.00377618        0.00627648        0.00694425
      29         -0.579805        1.000000        0.02928329        0.00118253        0.00624157        0.01866569
      30         -0.578294        1.000000        0.04500075        0.00349891        0.01037741        0.00933784
      31         -0.577059        1.000000        0.06993006        0.00476829        0.00838761        0.00877446
      32         -0.575898        1.000000        0.01710113        0.00118760        0.01126617        0.00167051
      33         -0.575390        1.000000        0.02796430        0.00134534        0.01719716        0.00792420
      34         -0.574684        1.000000        0.04426818        0.00289432        0.01687193        0.00740542
      35         -0.573712        1.000000        0.01587846        0.01206971        0.00735319        0.01077359
      36         -0.572881        1.000000        0.00996304        0.01699043        0.00557821        0.00341675
      37         -0.572306        1.000000        0.02366249        0.00910555        0.01227672        0.01088198
      38         -0.571712        1.000000        0.01085752        0.02277139        0.00419871        0.00076584
      39         -0.570644        1.000000        0.00421425        0.00060571        0.00191875        0.00169084
      40         -0.569417        1.000000        0.02863469        0.02757291        0.00117612        0.00760048
      41         -0.568774        1.000000        0.00458403        0.00415360        0.00319247        0.00243420
      42         -0.567282        1.000000        0.00702957        0.00077154        0.00462678        0.01459231
      43         -0.566962        1.000000        0.02689303        0.00063842        0.00182846        0.01599332
      44         -0.566359        1.000000        0.00279982        0.01067819        0.00531962        0.00215812
      45         -0.566192        1.000000        0.00608529        0.00370129        0.00408202        0.00522390
      46         -0.565403        1.000000        0.00558189        0.00853799        0.00653284        0.00197745
      47         -0.564243        1.000000        0.00211764        0.01160120        0.00766010        0.00258463
      48         -0.563249        1.000000        0.00089486        0.00361075        0.01293125        0.00526299
      49         -0.563070        1.000000        0.00169857        0.00096468        0.00869626        0.01584233
      50         -0.562462        1.000000        0.00095525        0.00225125        0.00614771        0.01301235
      51         -0.561757        1.000000        0.00060692        0.00902180        0.00008004        0.00988846
      52         -0.560499        1.000000        0.00052878        0.00505346        0.00221348        0.00280867
      53         -0.559960        1.000000        0.00128682        0.01268989        0.00035692        0.00199439
      54         -0.559294        1.000000        0.00665021        0.00190955        0.02320793        0.00078512
      55         -0.558127        1.000000        0.01735687        0.01575262        0.00170670        0.00093228
      56         -0.557616        1.000000        0.00098187        0.00136120        0.00282602        0.00055578
      57         -0.556842        1.000000        0.00273319        0.00411550        0.00068507        0.00459048
      58         -0.555001        1.000000        0.00008753        0.00011339        0.00004078        0.00079661
      59         -0.554299        1.000000        0.00642652        0.01125895        0.00042314        0.00003080
      60         -0.550566        1.000000        0.00213352        0.00044907        0.00242474        0.00021949
      61         -0.546424        1.000000        0.00025848        0.00117766        0.00385867        0.00001656
      62         -0.544193        1.000000        0.00135170        0.00499015        0.00084424        0.00026632
      63         -0.543030        1.000000        0.00381930        0.00309561        0.00034412        0.00033262
      64         -0.537150        1.000000        0.00640906        0.00355126        0.00044797        0.00042263
      65         -0.498297        1.000000        0.00041621        0.00002178        0.00001990        0.00000106
      66         -0.481445        1.000000        0.00269312        0.00000586        0.00002326        0.00001628
      67         -0.476783        1.000000        0.00262138        0.00004139        0.00000430        0.00001401
      68         -0.468185        1.000000        0.01338774        0.00004503        0.00006703        0.00002331
      69         -0.464051        1.000000        0.15454928        0.00015666        0.00031815        0.00038474
      70         -0.463347        1.000000        0.58803789        0.00094136        0.00112988        0.00093874
      71         -0.462907        1.000000        0.67707992        0.00074737        0.00090427        0.00086050
      72         -0.459010        1.000000        0.74046551        0.00076514        0.00106360        0.00112338
      73         -0.456828        1.000000        0.63936334        0.00027264        0.00040704        0.00074163
      74         -0.456771        1.000000        0.57813877        0.00029947        0.00033463        0.00104798
      75         -0.455442        1.000000        0.23778339        0.00015681        0.00006275        0.00032632
      76         -0.453595        1.000000        0.30342869        0.00015811        0.00042264        0.00018534
      77         -0.452002        1.000000        0.54653099        0.00006246        0.00036901        0.00016225
      78         -0.449290        1.000000        0.75174391        0.00037245        0.00035912        0.00062093
      79         -0.446618        1.000000        0.77237454        0.00039289        0.00012796        0.00040022
      80         -0.424092        1.000000        0.00103630        0.00010048        0.00009597        0.00000916
      81         -0.420954        1.000000        0.00028345        0.00004391        0.00012525        0.00000370
      82         -0.411451        1.000000        0.00050574        0.00003524        0.00003164        0.00007170
      83         -0.408431        1.000000        0.00006006        0.00001331        0.00003418        0.00002260
      84         -0.408057        1.000000        0.00009527        0.00004679        0.00006309        0.00006587
      85         -0.405612        1.000000        0.00104363        0.00003369        0.00006994        0.00020189
      86         -0.403726        1.000000        0.00065607        0.00010651        0.00012083        0.00008386
      87         -0.401652        1.000000        0.00058234        0.00008016        0.00011645        0.00004041
      88         -0.399833        1.000000        0.00011423        0.00010543        0.00009419        0.00002876
      89         -0.396458        1.000000        0.00005897        0.00009184        0.00003434        0.00006202
      90         -0.391422        1.000000        0.00019390        0.00005169        0.00008902        0.00011064
      91         -0.391022        1.000000        0.00005934        0.00001411        0.00008049        0.00006521
      92         -0.389719        1.000000        0.00059096        0.00008025        0.00009506        0.00003816
      93         -0.389667        1.000000        0.00035245        0.00014789        0.00024306        0.00035628
      94         -0.282629        1.000000        0.00206091        0.00436733        0.14003374        0.07978307
      95         -0.280664        1.000000        0.00871802        0.01585475        0.09565308        0.13888031
      96         -0.278992        1.000000        0.00930411        0.05515505        0.08882735        0.08077256
      97         -0.271385        1.000000        0.00338284        0.22513581        0.02300196        0.02557466
      98         -0.269422        1.000000        0.01046719        0.08357738        0.00433702        0.17198178
      99         -0.267947        1.000000        0.00290458        0.14506670        0.08942472        0.02432208
     100         -0.266171        1.000000        0.00283388        0.05589833        0.04471304        0.11783736
     101         -0.264605        1.000000        0.00242266        0.03699032        0.10748290        0.09507637
     102         -0.263733        1.000000        0.00266398        0.11141653        0.11355042        0.04400902
     103         -0.262994        1.000000        0.00233467        0.08823889        0.08264628        0.08413623
     104         -0.262175        1.000000        0.00120195        0.18671940        0.02021192        0.05082614
     105         -0.261266        1.000000        0.00111023        0.01888515        0.16781532        0.07511454
     106         -0.257423        1.000000        0.00144834        0.02306828        0.14507775        0.06886016
     107         -0.254013        1.000000        0.00776812        0.06179394        0.08929553        0.05778096
     108         -0.248854        1.000000        0.00250254        0.04338054        0.08699281        0.07127473
     109         -0.247947        1.000000        0.00246978        0.03811194        0.11426179        0.06139427
     110         -0.244969        1.000000        0.00134926        0.03167855        0.03676610        0.13314212
     111         -0.243570        1.000000        0.00053665        0.02837410        0.04678534        0.15158579
     112         -0.242379        1.000000        0.00324770        0.02311080        0.09277517        0.04418217
     113         -0.239692        1.000000        0.00307606        0.08622926        0.04971100        0.05797500
     114         -0.239024        1.000000        0.00422684        0.07138590        0.07082965        0.04934614
     115         -0.238253        1.000000        0.00440920        0.09170948        0.08938768        0.01281219
     116         -0.237457        1.000000        0.00391881        0.07608596        0.02138801        0.03575306
     117         -0.232992        1.000000        0.00332152        0.04865517        0.01008934        0.02568568
     118         -0.232364        1.000000        0.00282788        0.06356966        0.01788407        0.01604534
     119         -0.231054        1.000000        0.00347720        0.07438783        0.01532019        0.00996233
     120         -0.229642        1.000000        0.00261219        0.02413808        0.01064739        0.01776941
     121         -0.228623        1.000000        0.00212042        0.01512352        0.01869614        0.01642360
     122         -0.227288        1.000000        0.00546173        0.08951491        0.00749270        0.00432240
     123         -0.226315        1.000000        0.00562942        0.00915762        0.01232803        0.08278991
     124         -0.223535        1.000000        0.00376507        0.00724979        0.00724866        0.02212985
     125         -0.222097        1.000000        0.01160616        0.03667756        0.01857812        0.01680342
     126         -0.221108        1.000000        0.00644824        0.00641933        0.01875737        0.00877987
     127         -0.218597        1.000000        0.00111393        0.00521082        0.00352128        0.01592895
     128         -0.217673        1.000000        0.00804164        0.01433219        0.01891948        0.00771870
     129         -0.216866        1.000000        0.00061162        0.00831919        0.00516138        0.00392450
     130         -0.215834        1.000000        0.00598097        0.01589314        0.01704925        0.00658792
     131         -0.214474        1.000000        0.00183487        0.00694031        0.00179009        0.00515623
     132         -0.213008        1.000000        0.00294036        0.01582267        0.00647892        0.01061998
     133         -0.211578        1.000000        0.00082058        0.00707114        0.00433729        0.00195683
     134         -0.210051        1.000000        0.00179425        0.00127617        0.00292112        0.00212760
     135         -0.209376        1.000000        0.00246229        0.00447473        0.00212114        0.00369767
     136         -0.208382        1.000000        0.00401774        0.00341571        0.00261778        0.00489401
     137         -0.207322        1.000000        0.00323373        0.00437260        0.00509473        0.00430871
     138         -0.206804        1.000000        0.00173217        0.00263773        0.00062698        0.00359544
     139         -0.206154        1.000000        0.00239978        0.00399216        0.00191108        0.00279360
     140         -0.205578        1.000000        0.00230947        0.00187452        0.00297035        0.00180725
     141         -0.205045        1.000000        0.00193252        0.00197082        0.00116517        0.00209682
     142         -0.203951        1.000000        0.00072507        0.00390406        0.00288981        0.00066076
     143         -0.202892        1.000000        0.00312048        0.00161417        0.00125256        0.00178983
     144         -0.201651        1.000000        0.00171181        0.00141515        0.00182761        0.00123436
     145         -0.201023        1.000000        0.00272548        0.00163740        0.00080306        0.00178005
     146         -0.200559        1.000000        0.00253972        0.00086154        0.00086686        0.00109863
     147         -0.199475        1.000000        0.00335678        0.00177627        0.00308900        0.00107626
     148         -0.199060        1.000000        0.00220433        0.00147035        0.00096697        0.00076631
     149         -0.198489        1.000000        0.00554058        0.00046926        0.00235249        0.00185816
     150         -0.197777        1.000000        0.00231576        0.00093755        0.00083310        0.00080691
     151         -0.197420        1.000000        0.00151078        0.00050818        0.00160805        0.00100026
     152         -0.196377        1.000000        0.00685927        0.00299527        0.00202337        0.00080197
     153         -0.196281        1.000000        0.00442775        0.00164890        0.00147845        0.00140837
     154         -0.196129        1.000000        0.00356116        0.00177583        0.00180908        0.00180348
     155         -0.195514        1.000000        0.00435432        0.00137431        0.00160151        0.00118617
     156         -0.195154        1.000000        0.00289512        0.00150047        0.00098138        0.00058889
     157         -0.194586        1.000000        0.00458475        0.00201812        0.00112423        0.00147850
     158         -0.193932        1.000000        0.00917560        0.00304590        0.00228117        0.00087403
     159         -0.193003        1.000000        0.00366860        0.00081433        0.00152777        0.00191150
     160         -0.192747        1.000000        0.00975202        0.00204461        0.00255088        0.00116679
     161         -0.192505        1.000000        0.00475258        0.00187892        0.00148955        0.00123940
     162         -0.192153        1.000000        0.00951949        0.00285244        0.00185307        0.00081496
     163         -0.191479        1.000000        0.00751004        0.00216399        0.00105792        0.00144119
     164         -0.191005        1.000000        0.00361841        0.00094266        0.00135200        0.00055437
     165         -0.190550        1.000000        0.00559336        0.00146765        0.00074544        0.00034105
     166         -0.190299        1.000000        0.00221486        0.00069010        0.00096635        0.00017340
     167         -0.189879        1.000000        0.01297927        0.00196721        0.00124142        0.00235093
     168         -0.189709        1.000000        0.00456329        0.00027091        0.00056650        0.00137064
     169         -0.189533        1.000000        0.00469945        0.00113915        0.00159059        0.00080534
     170         -0.189031        1.000000        0.00749450        0.00073948        0.00130356        0.00186419
     171         -0.188839        1.000000        0.00712148        0.00069285        0.00062342        0.00058730
     172         -0.188612        1.000000        0.00154291        0.00010327        0.00032058        0.00066955
     173         -0.188366        1.000000        0.00927372        0.00064723        0.00117607        0.00115543
     174         -0.187975        1.000000        0.00303523        0.00043136        0.00069502        0.00135006
     175         -0.187904        1.000000        0.00401306        0.00047040        0.00042081        0.00146740
     176         -0.187410        1.000000        0.01152434        0.00074015        0.00210171        0.00207284
     177         -0.186857        1.000000        0.00222245        0.00067933        0.00083638        0.00049631
     178         -0.186640        1.000000        0.00913139        0.00131601        0.00064930        0.00175517
     179         -0.186473        1.000000        0.00925995        0.00045395        0.00057093        0.00145115
     180         -0.186117        1.000000        0.00655042        0.00059559        0.00023778        0.00097964
     181         -0.186052        1.000000        0.00561618        0.00032311        0.00094594        0.00139618
     182         -0.185293        1.000000        0.00168222        0.00060345        0.00060701        0.00054133
     183         -0.185176        1.000000        0.01662456        0.00096417        0.00316191        0.00206042
     184         -0.185020        1.000000        0.01645577        0.00074254        0.00149699        0.00161180
     185         -0.184517        1.000000        0.00895730        0.00052506        0.00142870        0.00108107
     186         -0.184022        1.000000        0.00788623        0.00168248        0.00062436        0.00148492
     187         -0.183997        1.000000        0.00881313        0.00043513        0.00038668        0.00086777
     188         -0.183677        1.000000        0.02119168        0.00203594        0.00240795        0.00146740
     189         -0.182924        1.000000        0.00432736        0.00078432        0.00033854        0.00064425
     190         -0.182749        1.000000        0.02786661        0.00214427        0.00265132        0.00155980
     191         -0.182107        1.000000        0.03621639        0.00191700        0.00225123        0.00372402
     192         -0.181780        1.000000        0.00225318        0.00010533        0.00012599        0.00035178
     193         -0.181339        1.000000        0.01770591        0.00041635        0.00166823        0.00158438
     194         -0.181036        1.000000        0.01049324        0.00016733        0.00002774        0.00079719
     195         -0.180604        1.000000        0.01124612        0.00028291        0.00041775        0.00059612
     196         -0.180449        0.000000        0.02109156        0.00051996        0.00088380        0.00080788
     197         -0.180244        0.000000        0.00880127        0.00022892        0.00085261        0.00064472
     198         -0.179472        0.000000        0.06055455        0.00165555        0.00110602        0.00384101
     199         -0.178619        0.000000        0.08751712        0.00110330        0.00338481        0.00293010
     200         -0.176910        0.000000        0.08647942        0.00024586        0.00364016        0.00175984
     201         -0.174053        0.000000        0.10929342        0.00143594        0.00055412        0.00285536
     202         -0.072600        0.000000        0.00462985        0.44368694        0.23647179        0.06712519
     203         -0.064909        0.000000        0.00887507        0.25929695        0.16369803        0.30107748
     204         -0.064185        0.000000        0.00721608        0.22766888        0.25789417        0.23353828
     205         -0.062672        0.000000        0.00303211        0.28660279        0.07599795        0.35151469
     206         -0.061672        0.000000        0.00230236        0.03516978        0.36243020        0.33061600
     207         -0.057991        0.000000        0.00177551        0.26973487        0.22228243        0.21754889
     208         -0.057532        0.000000        0.00223424        0.41770935        0.11062245        0.18338486
     209         -0.052254        0.000000        0.00316733        0.60360933        0.02780579        0.08278539
     210         -0.048420        0.000000        0.00324315        0.09982948        0.03346017        0.57949515
     211         -0.047217        0.000000        0.00100777        0.03835557        0.60778301        0.05393390
     212         -0.041069        0.000000        0.00190706        0.11059644        0.46095857        0.12962988
     213         -0.040889        0.000000        0.00206155        0.17734320        0.45801402        0.07108704
     214         -0.034724        0.000000        0.00133710        0.05713162        0.17580881        0.45245499
     215         -0.033273        0.000000        0.00121480        0.04174201        0.22292848        0.42041907
     216         -0.030304        0.000000        0.00067978        0.10245638        0.48778249        0.11286841
     217         -0.028944        0.000000        0.00025051        0.56215153        0.08514628        0.04551547
     218         -0.026478        0.000000        0.00028510        0.52489898        0.13279252        0.02126159
     219         -0.025704        0.000000        0.00214248        0.02235158        0.25051975        0.40933178
     220         -0.021607        0.000000        0.00157648        0.03842383        0.04126504        0.60658119
     221         -0.019674        0.000000        0.00112713        0.02385120        0.53071452        0.12178008
     222         -0.018155        0.000000        0.00114363        0.04487099        0.49851739        0.13724490
     223         -0.015696        0.000000        0.00024391        0.58553308        0.07788203        0.01646147
     224         -0.012135        0.000000        0.00160164        0.01218592        0.06804013        0.60082236
     225         -0.009109        0.000000        0.00039175        0.60250938        0.00272372        0.06241817
     226          0.067563        0.000000        0.00000417        0.00005878        0.00011581        0.00004167
     227          0.093947        0.000000        0.00000321        0.00011996        0.00004950        0.00001203
     228          0.095452        0.000000        0.00000332        0.00006540        0.00009777        0.00002131
     229          0.097634        0.000000        0.00000375        0.00006026        0.00007822        0.00007018
     230          0.106245        0.000000        0.00000018        0.00000414        0.00002870        0.00000258
     231          0.116676        0.000000        0.00000046        0.00011404        0.00016264        0.00003718
     232          0.119473        0.000000        0.00000092        0.00003238        0.00002669        0.00000939
     233          0.131558        0.000000        0.00000030        0.00001413        0.00000286        0.00000567
     234          0.144630        0.000000        0.00000256        0.00001319        0.00004464        0.00000446
     235          0.200192        0.000000        0.00000045        0.00000657        0.00000366        0.00000414
     236          0.220463        0.000000        0.00000634        0.00000786        0.00000169        0.00008928
     237          0.271988        0.000000        0.00000122        0.00000040        0.00000615        0.00002071
     238          0.283659        0.000000        0.00000186        0.00000509        0.00004084        0.00000190
     239          0.290102        0.000000        0.00000469        0.00001276        0.00004570        0.00001907
     240          0.291181        0.000000        0.00000151        0.00010320        0.00006413        0.00001850
     241          0.294683        0.000000        0.00000094        0.00002318        0.00002353        0.00000420
     242          0.295753        0.000000        0.00000262        0.00009317        0.00023982        0.00000447
     243          0.298812        0.000000        0.00000697        0.00005811        0.00001987        0.00001079
     244          0.302444        0.000000        0.00000182        0.00003392        0.00001193        0.00001000
     245          0.304331        0.000000        0.00000996        0.00009404        0.00013154        0.00002240
     246          0.310680        0.000000        0.00000136        0.00001625        0.00011555        0.00001213
     247          0.311108        0.000000        0.00000566        0.00005569        0.00008089        0.00002137
     248          0.313594        0.000000        0.00000063        0.00000307        0.00004226        0.00002076
     249          0.329496        0.000000        0.00001714        0.00005783        0.00005394        0.00003409
     250          0.333131        0.000000        0.00000302        0.00004509        0.00002703        0.00008591
     251          0.343046        0.000000        0.00000423        0.00000551        0.00000386        0.00001248
     252          0.351080        0.000000        0.00000059        0.00004856        0.00006771        0.00002410
     253          0.352360        0.000000        0.00000815        0.00009189        0.00010343        0.00001297
     254          0.437408        0.000000        0.00000061        0.00002430        0.00002707        0.00002501
     255          0.444693        0.000000        0.00000079        0.00000622        0.00001825        0.00000369
     256          0.452383        0.000000        0.00000339        0.00002300        0.00004167        0.00001618
     257          0.456708        0.000000        0.00000250        0.00001774        0.00000934        0.00000373
     258          0.461800        0.000000        0.00000021        0.00000108        0.00000680        0.00000095
     259          0.464457        0.000000        0.00000082        0.00001424        0.00001801        0.00002758