# Projected DOS for atomic kind C at iteration step i = 0, E(Fermi) =    -0.180287 a.u.
#     MO Eigenvalue [a.u.]      Occupation                 s                py                pz                px
       1         -0.980568        1.000000        0.05519367        0.00016453        0.00037415        0.04321238
       2         -0.959232        1.000000        0.06021074        0.00526983        0.02812702        0.01275118
       3         -0.951787        1.000000        0.06574240        0.00092514        0.01945501        0.02676659
       4         -0.945348        1.000000        0.05780366        0.00000008        0.00556479        0.03720267
       5         -0.938961        1.000000        0.05993092        0.00007318        0.00080434        0.04296280
       6         -0.930117        1.000000        0.06180378        0.00038435        0.00062223        0.04357382
       7         -0.926491        1.000000        0.06140556        0.00000001        0.00231325        0.04167719
       8         -0.711226        1.000000        0.43885758        0.00000937        0.00007717        0.00041770
       9         -0.694889        1.000000        0.43158674        0.00009047        0.00086012        0.00077930
      10         -0.693871        1.000000        0.43230125        0.00015182        0.00032886        0.00012458
      11         -0.687747        1.000000        0.44149789        0.00000927        0.00007754        0.00112344
      12         -0.682911        1.000000        0.43957575        0.00000706        0.00005235        0.00085419
      13         -0.675101        1.000000        0.43733098        0.00000539        0.00002193        0.00125786
      14         -0.673588        1.000000        0.43942579        0.00001350        0.00002606        0.00155140
      15         -0.608901        1.000000        0.00050659        0.00017328        0.04676657        0.00148380
      16         -0.606545        1.000000        0.00003279        0.00280017        0.00053857        0.00008438
      17         -0.599291        1.000000        0.00013638        0.00461538        0.00055393        0.00020382
      18         -0.598578        1.000000        0.00086869        0.00256331        0.00062945        0.00082590
      19         -0.596707        1.000000        0.00038976        0.00346737        0.00635066        0.00130906
      20         -0.596019        1.000000        0.00037162        0.05174148        0.00050576        0.00098786
      21         -0.592336        1.000000        0.00029129        0.00561083        0.00182228        0.00053616
      22         -0.591675        1.000000        0.00014869        0.03018254        0.00724418        0.00017328
      23         -0.588621        1.000000        0.00017151        0.00130187        0.00112617        0.00018520
      24         -0.588033        1.000000        0.00017960        0.00343271        0.00476800        0.00400852
      25         -0.587513        1.000000        0.00035564        0.00549468        0.00247674        0.00172269
      26         -0.586045        1.000000        0.00023117        0.00267956        0.00297377        0.00123778
      27         -0.583281        1.000000        0.00016417        0.00322501        0.00784371        0.00751253
      28         -0.581045        1.000000        0.00029830        0.00264290        0.01005846        0.01076568
      29         -0.579838        1.000000        0.00033597        0.00171272        0.00079120        0.00076318
      30         -0.577601        1.000000        0.00039844        0.00316383        0.00107686        0.00317685
      31         -0.575384        1.000000        0.00011959        0.00305727        0.00246331        0.00051032
      32         -0.574713        1.000000        0.00004551        0.01405564        0.00095087        0.00015360
      33         -0.574374        1.000000        0.00024331        0.00088424        0.00074011        0.00035243
      34         -0.573906        1.000000        0.00017792        0.00254943        0.00089870        0.00048450
      35         -0.573265        1.000000        0.00004168        0.00131585        0.00049022        0.00022734
      36         -0.571863        1.000000        0.00001292        0.00070053        0.00036184        0.00027545
      37         -0.571258        1.000000        0.00051669        0.00073995        0.00547773        0.00161970
      38         -0.571019        1.000000        0.00038842        0.00075086        0.00640858        0.00169833
      39         -0.570366        1.000000        0.00022890        0.00092910        0.00240424        0.00027760
      40         -0.569168        1.000000        0.00043253        0.00159935        0.00772856        0.00672183
      41         -0.569131        1.000000        0.00035735        0.00099745        0.00493253        0.00421942
      42         -0.567217        1.000000        0.00004687        0.01162980        0.00244797        0.00100235
      43         -0.566444        1.000000        0.00022700        0.00152528        0.01720570        0.02045610
      44         -0.564663        1.000000        0.00020097        0.02591715        0.00174620        0.00085147
      45         -0.563520        1.000000        0.00001245        0.00076004        0.00002669        0.00004734
      46         -0.563152        1.000000        0.00007515        0.00204462        0.01018092        0.00534123
      47         -0.562701        1.000000        0.00005311        0.00027111        0.00021308        0.00029166
      48         -0.562602        1.000000        0.00007764        0.00174856        0.00326988        0.00026802
      49         -0.562492        1.000000        0.00007156        0.01360083        0.00531084        0.00104428
      50         -0.561834        1.000000        0.00059855        0.00655179        0.00704223        0.00325752
      51         -0.561610        1.000000        0.00012510        0.00132482        0.00083386        0.00129050
      52         -0.560252        1.000000        0.00001953        0.00025192        0.00013851        0.00009972
      53         -0.559948        1.000000        0.00015493        0.00588975        0.01069390        0.00130431
      54         -0.559424        1.000000        0.00009147        0.00936324        0.00601385        0.00150840
      55         -0.557360        1.000000        0.00113673        0.04604702        0.00698947        0.00537737
      56         -0.556696        1.000000        0.00026797        0.00710265        0.00221213        0.00005221
      57         -0.556531        1.000000        0.00041615        0.01102263        0.02745603        0.00131810
      58         -0.554843        1.000000        0.00002963        0.00057840        0.00006454        0.00000342
      59         -0.553242        1.000000        0.00000757        0.00045773        0.00003471        0.00002244
      60         -0.550398        1.000000        0.00003016        0.05355051        0.00201959        0.00015467
      61         -0.545844        1.000000        0.00006355        0.02532895        0.02455554        0.00133002
      62         -0.543836        1.000000        0.00008537        0.03357512        0.01293223        0.00038764
      63         -0.542752        1.000000        0.00001969        0.00230149        0.05646863        0.00152128
      64         -0.537481        1.000000        0.00006759        0.02384460        0.03182197        0.00100658
      65         -0.498254        1.000000        0.03106181        0.00211454        0.00287297        0.32803044
      66         -0.481372        1.000000        0.03055097        0.04508515        0.20508072        0.08326090
      67         -0.476717        1.000000        0.02507782        0.00320110        0.14834220        0.18454593
      68         -0.468145        1.000000        0.02384335        0.00005232        0.04386335        0.29138480
      69         -0.463982        1.000000        0.02158916        0.00119439        0.00682950        0.27125831
      70         -0.463321        1.000000        0.00297416        0.00047246        0.00085639        0.04052791
      71         -0.462772        1.000000        0.00160500        0.00010875        0.00143640        0.01742689
      72         -0.459002        1.000000        0.00021940        0.00048297        0.00031819        0.00318140
      73         -0.456743        1.000000        0.00524443        0.00058355        0.00161160        0.07375862
      74         -0.456603        1.000000        0.00383480        0.00047522        0.00118225        0.05241746
      75         -0.455374        1.000000        0.01721020        0.00141733        0.00470858        0.23641397
      76         -0.453482        1.000000        0.01405272        0.00017344        0.00972590        0.20856347
      77         -0.451858        1.000000        0.00679693        0.00062438        0.00612301        0.09227929
      78         -0.449245        1.000000        0.00013325        0.00008762        0.00050465        0.00102581
      79         -0.446107        1.000000        0.00052000        0.00032994        0.00031817        0.00634003
      80         -0.424050        1.000000        0.00002093        0.49493421        0.04297603        0.00463732
      81         -0.420894        1.000000        0.00000263        0.04480297        0.50471866        0.00251302
      82         -0.411349        1.000000        0.00001772        0.26657220        0.11918960        0.14974673
      83         -0.408326        1.000000        0.00000515        0.24546687        0.19658494        0.08113987
      84         -0.407962        1.000000        0.00009775        0.06424895        0.19202369        0.27608783
      85         -0.405555        1.000000        0.00002576        0.36260402        0.14506847        0.02008901
      86         -0.403643        1.000000        0.00002630        0.16395508        0.31803005        0.04771022
      87         -0.401602        1.000000        0.00013673        0.41248951        0.00567415        0.12647394
      88         -0.399763        1.000000        0.00003064        0.03394149        0.48066692        0.01368056
      89         -0.396374        1.000000        0.00000237        0.50188678        0.03805789        0.00010223
      90         -0.391341        1.000000        0.00001745        0.44419245        0.07618211        0.00574971
      91         -0.390929        1.000000        0.00000182        0.45325902        0.07092386        0.00780365
      92         -0.389635        1.000000        0.00001613        0.06101394        0.46031756        0.00935933
      93         -0.389578        1.000000        0.00002504        0.09708752        0.41538928        0.01713314
      94         -0.282166        1.000000        0.00004138        0.00010832        0.00029860        0.00009178
      95         -0.280696        1.000000        0.00008503        0.00022630        0.00016908        0.00015410
      96         -0.279789        1.000000        0.00015345        0.00164653        0.00065538        0.00022311
      97         -0.271051        1.000000        0.00010444        0.00061077        0.00025712        0.00003023
      98         -0.269619        1.000000        0.00002340        0.00029891        0.00013360        0.00002149
      99         -0.267455        1.000000        0.00006905        0.00047924        0.00018254        0.00022840
     100         -0.266222        1.000000        0.00003570        0.00012580        0.00013851        0.00011743
     101         -0.264380        1.000000        0.00003653        0.00020741        0.00028634        0.00007087
     102         -0.263356        1.000000        0.00001679        0.00036851        0.00080366        0.00015145
     103         -0.262570        1.000000        0.00011241        0.00013708        0.00031761        0.00044636
     104         -0.261425        1.000000        0.00029107        0.00019699        0.00017211        0.00006956
     105         -0.261023        1.000000        0.00019547        0.00046701        0.00014367        0.00015103
     106         -0.256948        1.000000        0.00013111        0.00082109        0.00015144        0.00011801
     107         -0.253859        1.000000        0.00021639        0.00045542        0.00024679        0.00023900
     108         -0.248280        1.000000        0.00060889        0.00056289        0.00032113        0.00109723
     109         -0.247420        1.000000        0.00051037        0.00110704        0.00014152        0.00074629
     110         -0.244198        1.000000        0.00029991        0.00023721        0.00013402        0.00012339
     111         -0.243103        1.000000        0.00006242        0.00056560        0.00016925        0.00022506
     112         -0.241620        1.000000        0.00023938        0.00113711        0.00018256        0.00063176
     113         -0.239545        1.000000        0.00023664        0.00090583        0.00013041        0.00060055
     114         -0.238571        1.000000        0.00023243        0.00018410        0.00067125        0.00032641
     115         -0.237551        1.000000        0.00014564        0.00043288        0.00036616        0.00009373
     116         -0.236884        1.000000        0.00026846        0.00069402        0.00035006        0.00115565
     117         -0.232585        1.000000        0.00012238        0.00025999        0.00072218        0.00178656
     118         -0.231732        1.000000        0.00043127        0.00036928        0.00051898        0.00024170
     119         -0.230406        1.000000        0.00014422        0.00052690        0.00072163        0.00090564
     120         -0.228905        1.000000        0.00015291        0.00027216        0.00007713        0.00007258
     121         -0.228023        1.000000        0.00026224        0.00033979        0.00013873        0.00039644
     122         -0.226521        1.000000        0.00061321        0.00036213        0.00018690        0.00087098
     123         -0.225971        1.000000        0.00023014        0.00084001        0.00037627        0.00040147
     124         -0.223312        1.000000        0.00010003        0.00048806        0.00091605        0.00049890
     125         -0.221701        1.000000        0.00042248        0.00074130        0.00021918        0.00012820
     126         -0.220517        1.000000        0.00050676        0.00060069        0.00022392        0.00060271
     127         -0.218193        1.000000        0.00046726        0.00069857        0.00011639        0.00032374
     128         -0.217820        1.000000        0.00035261        0.00047783        0.00064704        0.00069243
     129         -0.216360        1.000000        0.00033047        0.00032601        0.00012215        0.00080325
     130         -0.215585        1.000000        0.00022186        0.00035111        0.00043057        0.00060548
     131         -0.213804        1.000000        0.00055054        0.00177955        0.00027337        0.00050977
     132         -0.212552        1.000000        0.00022917        0.00009257        0.00092253        0.00048665
     133         -0.210903        1.000000        0.00050190        0.00054090        0.00103852        0.00068681
     134         -0.209646        1.000000        0.00044302        0.00049187        0.00069792        0.00024377
     135         -0.208801        1.000000        0.00015641        0.00013810        0.00088624        0.00006402
     136         -0.208248        1.000000        0.00049454        0.00055236        0.00076305        0.00029423
     137         -0.207268        1.000000        0.00004367        0.00036618        0.00049312        0.00003070
     138         -0.205965        1.000000        0.00043940        0.00079961        0.00078086        0.00041428
     139         -0.205677        1.000000        0.00014441        0.00024053        0.00064635        0.00025014
     140         -0.204988        1.000000        0.00010684        0.00005265        0.00019748        0.00010805
     141         -0.204046        1.000000        0.00014953        0.00013194        0.00026094        0.00017891
     142         -0.202936        1.000000        0.00033901        0.00013310        0.00028760        0.00007530
     143         -0.202601        1.000000        0.00019489        0.00016460        0.00033750        0.00017593
     144         -0.201313        1.000000        0.00007492        0.00026654        0.00026967        0.00004188
     145         -0.200516        1.000000        0.00004746        0.00021027        0.00029082        0.00059960
     146         -0.199658        1.000000        0.00015124        0.00028322        0.00044816        0.00039687
     147         -0.199054        1.000000        0.00004134        0.00017620        0.00012667        0.00021840
     148         -0.198009        1.000000        0.00019325        0.00015437        0.00024392        0.00015964
     149         -0.197674        1.000000        0.00008591        0.00034663        0.00009917        0.00031231
     150         -0.196917        1.000000        0.00016134        0.00022346        0.00020515        0.00025075
     151         -0.196672        1.000000        0.00011353        0.00007736        0.00032722        0.00021113
     152         -0.195710        1.000000        0.00008364        0.00010085        0.00032863        0.00014099
     153         -0.195402        1.000000        0.00003173        0.00093003        0.00037558        0.00024056
     154         -0.195357        1.000000        0.00019822        0.00025200        0.00038515        0.00024790
     155         -0.194931        1.000000        0.00014843        0.00040228        0.00023510        0.00013671
     156         -0.194334        1.000000        0.00006926        0.00044192        0.00020526        0.00006632
     157         -0.193565        1.000000        0.00006321        0.00018194        0.00010375        0.00027326
     158         -0.192952        1.000000        0.00005706        0.00009790        0.00050134        0.00013885
     159         -0.192606        1.000000        0.00007235        0.00022552        0.00019166        0.00021754
     160         -0.192516        1.000000        0.00018517        0.00013273        0.00005763        0.00014344
     161         -0.192010        1.000000        0.00014892        0.00008452        0.00035125        0.00010482
     162         -0.191783        1.000000        0.00011029        0.00020724        0.00072929        0.00005888
     163         -0.191377        1.000000        0.00007314        0.00015334        0.00028324        0.00008631
     164         -0.191021        1.000000        0.00010876        0.00052577        0.00028256        0.00003356
     165         -0.190799        1.000000        0.00008481        0.00018521        0.00021271        0.00009023
     166         -0.189926        1.000000        0.00008180        0.00016577        0.00011440        0.00007960
     167         -0.189591        1.000000        0.00009062        0.00010523        0.00006409        0.00024338
     168         -0.189374        1.000000        0.00005069        0.00015618        0.00005511        0.00028960
     169         -0.188958        1.000000        0.00017576        0.00010253        0.00018335        0.00007985
     170         -0.188422        1.000000        0.00008177        0.00004952        0.00012242        0.00002370
     171         -0.188156        1.000000        0.00017911        0.00011313        0.00007113        0.00009159
     172         -0.187839        1.000000        0.00008269        0.00015396        0.00010586        0.00013386
     173         -0.187523        1.000000        0.00010474        0.00011665        0.00008293        0.00006409
     174         -0.187160        1.000000        0.00001828        0.00005417        0.00007724        0.00027137
     175         -0.186957        1.000000        0.00006536        0.00001473        0.00031405        0.00002546
     176         -0.186633        1.000000        0.00001833        0.00006529        0.00026927        0.00005779
     177         -0.185813        1.000000        0.00004976        0.00022897        0.00012810        0.00008262
     178         -0.185623        1.000000        0.00007293        0.00006158        0.00035920        0.00003637
     179         -0.185260        1.000000        0.00002794        0.00005170        0.00009232        0.00005755
     180         -0.185108        1.000000        0.00007942        0.00002893        0.00010306        0.00016974
     181         -0.184459        1.000000        0.00012660        0.00020293        0.00018171        0.00003137
     182         -0.184159        1.000000        0.00010572        0.00013290        0.00006402        0.00005910
     183         -0.183927        1.000000        0.00003311        0.00011008        0.00015846        0.00004456
     184         -0.183513        1.000000        0.00005070        0.00024084        0.00014790        0.00005247
     185         -0.183418        1.000000        0.00009305        0.00011963        0.00022049        0.00013166
     186         -0.182726        1.000000        0.00003230        0.00013876        0.00006087        0.00007805
     187         -0.182531        1.000000        0.00006063        0.00007311        0.00003098        0.00003054
     188         -0.182261        1.000000        0.00017413        0.00006378        0.00026908        0.00003320
     189         -0.182078        1.000000        0.00004217        0.00021883        0.00008083        0.00011215
     190         -0.180981        1.000000        0.00013911        0.00006903        0.00011795        0.00003087
     191         -0.180775        1.000000        0.00001786        0.00000860        0.00012940        0.00001603
     192         -0.180634        1.000000        0.00001650        0.00001550        0.00001744        0.00001805
     193         -0.180358        1.000000        0.00008501        0.00001592        0.00021866        0.00002144
     194         -0.180287        1.000000        0.00001782        0.00003732        0.00002531        0.00016384
     195         -0.180269        0.000000        0.00002758        0.00003353        0.00013265        0.00002980
     196         -0.180075        0.000000        0.00000784        0.00010902        0.00001153        0.00008227
     197         -0.179566        0.000000        0.00003631        0.00016419        0.00011760        0.00001883
     198         -0.179318        0.000000        0.00003064        0.00002678        0.00009160        0.00003285
     199         -0.178523        0.000000        0.00003626        0.00005156        0.00004445        0.00001765
     200         -0.176971        0.000000        0.00002701        0.00008650        0.00006044        0.00001586
     201         -0.173042        0.000000        0.00000777        0.00002000        0.00002960        0.00000661
     202         -0.072433        0.000000        0.00006279        0.00010761        0.00002778        0.00003627
     203         -0.064772        0.000000        0.00003985        0.00001239        0.00004107        0.00010747
     204         -0.064066        0.000000        0.00000836        0.00004861        0.00002807        0.00002421
     205         -0.062622        0.000000        0.00000916        0.00000627        0.00000786        0.00000659
     206         -0.061608        0.000000        0.00004006        0.00008868        0.00000820        0.00001686
     207         -0.057886        0.000000        0.00005749        0.00002603        0.00002241        0.00002411
     208         -0.057447        0.000000        0.00001072        0.00001949        0.00005042        0.00002341
     209         -0.051972        0.000000        0.00001283        0.00000834        0.00000669        0.00003152
     210         -0.048127        0.000000        0.00007976        0.00009961        0.00004551        0.00000676
     211         -0.047050        0.000000        0.00000463        0.00001674        0.00001186        0.00001354
     212         -0.041055        0.000000        0.00005791        0.00005173        0.00001428        0.00004343
     213         -0.040634        0.000000        0.00014649        0.00010684        0.00012431        0.00007892
     214         -0.034814        0.000000        0.00002349        0.00002676        0.00000776        0.00006247
     215         -0.033225        0.000000        0.00002881        0.00007261        0.00001063        0.00007761
     216         -0.029892        0.000000        0.00003180        0.00002260        0.00000208        0.00003024
     217         -0.028707        0.000000        0.00001016        0.00001348        0.00004154        0.00000471
     218         -0.026131        0.000000        0.00002356        0.00001720        0.00001737        0.00007167
     219         -0.025776        0.000000        0.00004186        0.00005119        0.00004005        0.00002105
     220         -0.021640        0.000000        0.00002046        0.00001736        0.00002221        0.00004089
     221         -0.019686        0.000000        0.00000603        0.00000681        0.00006374        0.00003454
     222         -0.018146        0.000000        0.00003286        0.00000200        0.00000626        0.00006265
     223         -0.015526        0.000000        0.00001135        0.00001337        0.00003325        0.00004073
     224         -0.011868        0.000000        0.00001292        0.00000464        0.00000351        0.00000657
     225         -0.008819        0.000000        0.00001596        0.00000306        0.00002018        0.00002122
     226          0.067598        0.000000        0.08595775        0.00319463        0.00720309        0.54793386
     227          0.094019        0.000000        0.07324165        0.00831611        0.20933090        0.29670098
     228          0.095525        0.000000        0.08159155        0.06261516        0.31799658        0.14245347
     229          0.097661        0.000000        0.07926767        0.00007117        0.07119462        0.48367107
     230          0.106305        0.000000        0.08001831        0.00084133        0.01083938        0.53939478
     231          0.116722        0.000000        0.08068407        0.00014239        0.02886407        0.51966193
     232          0.119555        0.000000        0.08105619        0.00442087        0.00919132        0.53419395
     233          0.131647        0.000000        0.00964066        0.00077769        0.01264363        0.02399146
     234          0.144751        0.000000        0.00815855        0.00368214        0.01856604        0.00584090
     235          0.200226        0.000000        0.00042918        0.00075437        0.00021874        0.00000121
     236          0.220504        0.000000        0.00200328        0.00080540        0.00049767        0.00087396
     237          0.272058        0.000000        0.00185100        0.00002332        0.00276551        0.00000427
     238          0.283711        0.000000        0.00009941        0.00579192        0.00051608        0.00015023
     239          0.290155        0.000000        0.00000927        0.00005391        0.00515259        0.00043102
     240          0.291252        0.000000        0.00003150        0.00515884        0.00043440        0.00010552
     241          0.294690        0.000000        0.00031672        0.00614609        0.00020060        0.00031281
     242          0.295790        0.000000        0.00010844        0.00043325        0.00580357        0.00026747
     243          0.298827        0.000000        0.00007608        0.00402067        0.00195997        0.00168244
     244          0.302494        0.000000        0.00007000        0.00632416        0.00008837        0.00005095
     245          0.304404        0.000000        0.00000643        0.00090781        0.00596490        0.00005856
     246          0.310762        0.000000        0.00298678        0.00035278        0.00092526        0.00142910
     247          0.311179        0.000000        0.00001388        0.00643394        0.00114252        0.00019170
     248          0.313659        0.000000        0.00002210        0.00012839        0.00808436        0.00044865
     249          0.329507        0.000000        0.00379599        0.00100457        0.00171066        0.00122217
     250          0.333163        0.000000        0.00402493        0.00102736        0.00095711        0.00072013
     251          0.343059        0.000000        0.00551410        0.00037172        0.00017276        0.00007727
     252          0.351147        0.000000        0.00533381        0.00040302        0.00007293        0.00009620
     253          0.352434        0.000000        0.00513890        0.00001145        0.00017615        0.00009100
     254          0.437470        0.000000        0.00085295        0.05776061        0.33059330        0.00156142
     255          0.444702        0.000000        0.00341323        0.30292126        0.00941024        0.07178039
     256          0.452418        0.000000        0.00242132        0.33406836        0.05427975        0.00293062
     257          0.456806        0.000000        0.00017165        0.11486036        0.18583979        0.09023463
     258          0.461893        0.000000        0.00014394        0.27264852        0.05077762        0.06813788
     259          0.464544        0.000000        0.00070760        0.25780122        0.13067745        0.00034049