# Projected DOS for atomic kind C at iteration step i = 0, E(Fermi) =    -0.111168 a.u.
#     MO Eigenvalue [a.u.]      Occupation                 s                py                pz                px
       1         -0.906229        1.000000        0.00000009        0.00000027        0.00000008        0.00000000
       2         -0.902011        1.000000        0.00000000        0.00000000        0.00000000        0.00000001
       3         -0.899768        1.000000        0.00000072        0.00000075        0.00000101        0.00000228
       4         -0.898956        1.000000        0.00000002        0.00000000        0.00000001        0.00000002
       5         -0.897436        1.000000        0.00000064        0.00000007        0.00000023        0.00000032
       6         -0.893488        1.000000        0.00000003        0.00000001        0.00000008        0.00000002
       7         -0.893314        1.000000        0.00000017        0.00000000        0.00000006        0.00000024
       8         -0.892228        1.000000        0.00000002        0.00000000        0.00000001        0.00000003
       9         -0.891855        1.000000        0.00000000        0.00000000        0.00000000        0.00000000
      10         -0.891604        1.000000        0.00000008        0.00000002        0.00000000        0.00000008
      11         -0.887061        1.000000        0.00000009        0.00000006        0.00000000        0.00000000
      12         -0.886307        1.000000        0.00000003        0.00000001        0.00000000        0.00000000
      13         -0.885528        1.000000        0.06046721        0.00015721        0.00557605        0.03816261
      14         -0.884536        1.000000        0.00109285        0.00008212        0.00034192        0.00048523
      15         -0.883183        1.000000        0.05948158        0.00000006        0.01214812        0.03129790
      16         -0.881886        1.000000        0.00000001        0.00000001        0.00000001        0.00000001
      17         -0.881072        1.000000        0.00010595        0.00000012        0.00003506        0.00005062
      18         -0.880815        1.000000        0.00000101        0.00000008        0.00000026        0.00000058
      19         -0.880151        1.000000        0.00004326        0.00001456        0.00001021        0.00001620
      20         -0.878676        1.000000        0.00000000        0.00000032        0.00000046        0.00000096
      21         -0.877396        1.000000        0.00000070        0.00000026        0.00000107        0.00000688
      22         -0.877141        1.000000        0.00000582        0.00000883        0.00000636        0.00000027
      23         -0.875955        1.000000        0.00000145        0.00000007        0.00000114        0.00000052
      24         -0.875899        1.000000        0.00000013        0.00000001        0.00000037        0.00000003
      25         -0.872960        1.000000        0.00000162        0.00000034        0.00000108        0.00000043
      26         -0.870595        1.000000        0.00000676        0.00000210        0.00000149        0.00000217
      27         -0.870520        1.000000        0.00044799        0.00014009        0.00010534        0.00013747
      28         -0.869499        1.000000        0.06346426        0.00606369        0.00013052        0.03855733
      29         -0.869167        1.000000        0.00000007        0.00000047        0.00000058        0.00000100
      30         -0.868231        1.000000        0.00001200        0.00000026        0.00000151        0.00001290
      31         -0.867351        1.000000        0.00002630        0.00000057        0.00000027        0.00002752
      32         -0.865917        1.000000        0.00000371        0.00000002        0.00000481        0.00000019
      33         -0.863792        1.000000        0.00006473        0.00000091        0.00000237        0.00006372
      34         -0.862569        1.000000        0.00018661        0.00000827        0.00002042        0.00006012
      35         -0.861565        1.000000        0.00007175        0.00000197        0.00001987        0.00002763
      36         -0.861384        1.000000        0.00717615        0.00019177        0.00198202        0.00271639
      37         -0.860832        1.000000        0.00000013        0.00000017        0.00000125        0.00000196
      38         -0.860061        1.000000        0.00036079        0.00010908        0.00008228        0.00009232
      39         -0.859984        1.000000        0.00000000        0.00000002        0.00000009        0.00000007
      40         -0.859942        1.000000        0.00000616        0.00000231        0.00011425        0.00000090
      41         -0.858807        1.000000        0.00660295        0.00017092        0.00184527        0.00239938
      42         -0.857688        1.000000        0.00000023        0.00000003        0.00000262        0.00000314
      43         -0.855725        1.000000        0.00000335        0.00000000        0.00000275        0.00000080
      44         -0.855265        1.000000        0.00000035        0.00000010        0.00000306        0.00000414
      45         -0.854546        1.000000        0.00001087        0.00000103        0.00000033        0.00001027
      46         -0.854081        1.000000        0.00006932        0.00000206        0.00004458        0.00002699
      47         -0.852687        1.000000        0.03330967        0.00985452        0.00746594        0.00740415
      48         -0.852463        1.000000        0.00273413        0.00080804        0.00061232        0.00060580
      49         -0.850443        1.000000        0.00000938        0.00000003        0.00002054        0.00000319
      50         -0.849476        1.000000        0.00000038        0.00000070        0.00000156        0.00000244
      51         -0.848522        1.000000        0.00001132        0.00000133        0.00000601        0.00000220
      52         -0.848463        1.000000        0.00002239        0.00000502        0.00000527        0.00000558
      53         -0.848364        1.000000        0.00678178        0.00197262        0.00149929        0.00140233
      54         -0.846974        1.000000        0.00000077        0.00000029        0.00000379        0.00000599
      55         -0.846330        1.000000        0.00011773        0.00000641        0.00007103        0.00002668
      56         -0.845537        1.000000        0.00000483        0.00000026        0.00003398        0.00006687
      57         -0.845446        1.000000        0.00009556        0.00000499        0.00002279        0.00002711
      58         -0.843877        1.000000        0.00000210        0.00000060        0.00000046        0.00000040
      59         -0.843168        1.000000        0.00000005        0.00000017        0.00000047        0.00000109
      60         -0.842759        1.000000        0.00000260        0.00000002        0.00000065        0.00000083
      61         -0.842650        1.000000        0.05069439        0.00047107        0.01273773        0.01621847
      62         -0.842256        1.000000        0.00000002        0.00000004        0.00000006        0.00000015
      63         -0.841264        1.000000        0.00000184        0.00000147        0.00000773        0.00000979
      64         -0.840214        1.000000        0.00118480        0.00000624        0.00001219        0.00097303
      65         -0.837594        1.000000        0.00187479        0.00015951        0.00083917        0.00045128
      66         -0.837527        1.000000        0.00016873        0.00000603        0.00000981        0.00012733
      67         -0.837245        1.000000        0.00000000        0.00000001        0.00000000        0.00000001
      68         -0.837111        1.000000        0.00000519        0.00000140        0.00002291        0.00000058
      69         -0.837058        1.000000        0.00000016        0.00000005        0.00000005        0.00000005
      70         -0.836314        1.000000        0.00004003        0.00000368        0.00001696        0.00001012
      71         -0.835576        1.000000        0.00233480        0.00063896        0.00049118        0.00039802
      72         -0.834939        1.000000        0.00000179        0.00000040        0.00000041        0.00000032
      73         -0.834233        1.000000        0.00000200        0.00000274        0.00000549        0.00000774
      74         -0.833619        1.000000        0.00100695        0.00010832        0.00037163        0.00026738
      75         -0.830626        1.000000        0.01179161        0.00317699        0.00246164        0.00177001
      76         -0.830612        1.000000        0.00497743        0.00134707        0.00103300        0.00076179
      77         -0.830142        1.000000        0.01355300        0.00004075        0.00321656        0.00385002
      78         -0.828566        1.000000        0.00000465        0.00000033        0.00000101        0.00000266
      79         -0.828323        1.000000        0.00000002        0.00000001        0.00000001        0.00000004
      80         -0.828086        1.000000        0.00014108        0.00000107        0.00008344        0.00005079
      81         -0.827138        1.000000        0.00000005        0.00000016        0.00000011        0.00000021
      82         -0.825986        1.000000        0.00049068        0.00003634        0.00020365        0.00011699
      83         -0.824255        1.000000        0.00834271        0.00003611        0.00020156        0.00582445
      84         -0.824186        1.000000        0.00000050        0.00000030        0.00000133        0.00000156
      85         -0.823340        1.000000        0.00072783        0.00017443        0.00013651        0.00012884
      86         -0.822306        1.000000        0.00000000        0.00000000        0.00000000        0.00000000
      87         -0.819530        1.000000        0.00000074        0.00002202        0.00001901        0.00000127
      88         -0.817999        1.000000        0.00027320        0.00004202        0.00000021        0.00017914
      89         -0.817505        1.000000        0.01445561        0.00110701        0.00454352        0.00369917
      90         -0.816929        1.000000        0.00000236        0.00000126        0.00000961        0.00000118
      91         -0.815376        1.000000        0.00000002        0.00000011        0.00000003        0.00000007
      92         -0.814795        1.000000        0.01264035        0.00097331        0.00374646        0.00328965
      93         -0.814747        1.000000        0.00179926        0.00013874        0.00053268        0.00046880
      94         -0.814638        1.000000        0.00075926        0.00005798        0.00022485        0.00019761
      95         -0.813569        1.000000        0.00000036        0.00000005        0.00000018        0.00000024
      96         -0.813454        1.000000        0.00000031        0.00000007        0.00000006        0.00000003
      97         -0.811324        1.000000        0.00006730        0.00000486        0.00001887        0.00001883
      98         -0.808512        1.000000        0.02756215        0.00186172        0.00752999        0.00724436
      99         -0.808315        1.000000        0.00005945        0.00003257        0.00000521        0.00020213
     100         -0.807191        1.000000        0.00001292        0.00003920        0.00002754        0.00006882
     101         -0.803634        1.000000        0.00000086        0.00000045        0.00000101        0.00000015
     102         -0.800437        1.000000        0.00000002        0.00000000        0.00000009        0.00000034
     103         -0.799960        1.000000        0.00000000        0.00000000        0.00000001        0.00000003
     104         -0.796070        1.000000        0.00000000        0.00000000        0.00000000        0.00000000
     105         -0.793523        1.000000        0.00000000        0.00000000        0.00000000        0.00000001
     106         -0.791372        1.000000        0.00000000        0.00000000        0.00000000        0.00000000
     107         -0.790678        1.000000        0.07254879        0.00112562        0.00168936        0.03709447
     108         -0.787351        1.000000        0.01774582        0.00093179        0.00355651        0.00456479
     109         -0.786916        1.000000        0.00000062        0.00000002        0.00000043        0.00000014
     110         -0.786487        1.000000        0.00005122        0.00021449        0.00007978        0.00003167
     111         -0.779709        1.000000        0.00015022        0.00000690        0.00002869        0.00003140
     112         -0.630417        1.000000        0.43804787        0.00018625        0.00041073        0.00077151
     113         -0.627283        1.000000        0.43873191        0.00000074        0.00025817        0.00083014
     114         -0.616952        1.000000        0.43744754        0.00019220        0.00000796        0.00198440
     115         -0.614874        1.000000        0.43021666        0.00000386        0.00386802        0.00401108
     116         -0.593016        1.000000        0.43539506        0.00027725        0.00099005        0.00107312
     117         -0.592772        1.000000        0.00168946        0.00012495        0.00006006        0.00001211
     118         -0.577770        1.000000        0.00017398        0.00010683        0.00000512        0.00003025
     119         -0.576063        1.000000        0.42722505        0.00090078        0.00223989        0.00403511
     120         -0.574103        1.000000        0.00105840        0.00054551        0.00004447        0.00012896
     121         -0.570753        1.000000        0.42067519        0.00029555        0.00044176        0.00788812
     122         -0.568747        1.000000        0.00017318        0.00018073        0.00004668        0.00003837
     123         -0.553952        1.000000        0.00068289        0.00001803        0.00006552        0.00013661
     124         -0.543590        1.000000        0.00495010        0.00043581        0.00024857        0.00020019
     125         -0.537672        1.000000        0.00027977        0.00048682        0.00061614        0.00012242
     126         -0.532880        1.000000        0.00054701        0.00012761        0.00006714        0.00007701
     127         -0.532379        1.000000        0.00012082        0.00704862        0.00122458        0.00043876
     128         -0.531128        1.000000        0.00024169        0.00357112        0.00050588        0.00020320
     129         -0.527802        1.000000        0.00007913        0.00274674        0.00078217        0.00033719
     130         -0.526313        1.000000        0.00066702        0.00029451        0.00484620        0.00095079
     131         -0.525284        1.000000        0.00042612        0.00047971        0.00148348        0.00095446
     132         -0.524916        1.000000        0.00057610        0.00073896        0.00074564        0.00053401
     133         -0.524104        1.000000        0.00018651        0.00041841        0.00195514        0.00040991
     134         -0.522859        1.000000        0.00023733        0.00173371        0.00117023        0.00014556
     135         -0.521135        1.000000        0.00007825        0.00066838        0.00041078        0.00032583
     136         -0.520704        1.000000        0.00051815        0.00224064        0.00181149        0.00138881
     137         -0.518501        1.000000        0.00014703        0.00248805        0.00128926        0.00079462
     138         -0.517134        1.000000        0.00015979        0.01450613        0.00081292        0.00003841
     139         -0.513743        1.000000        0.00021812        0.00372276        0.00462878        0.00107071
     140         -0.513442        1.000000        0.00019138        0.00100941        0.00148431        0.00086088
     141         -0.512403        1.000000        0.00021179        0.00117542        0.00233244        0.00078386
     142         -0.511980        1.000000        0.00004828        0.00170445        0.00080414        0.00026268
     143         -0.511180        1.000000        0.00027983        0.00028858        0.00044043        0.00002298
     144         -0.508735        1.000000        0.00038490        0.00229756        0.00465742        0.00102444
     145         -0.508014        1.000000        0.00006365        0.00036216        0.00022175        0.00008559
     146         -0.507298        1.000000        0.00040998        0.00511864        0.00399037        0.00119360
     147         -0.507097        1.000000        0.00008926        0.00037792        0.00151759        0.00040175
     148         -0.506756        1.000000        0.00016606        0.00494426        0.01091092        0.00349537
     149         -0.505738        1.000000        0.00007921        0.00522383        0.00387191        0.00082513
     150         -0.504724        1.000000        0.00010110        0.00080105        0.00643625        0.00193920
     151         -0.503790        1.000000        0.00015566        0.01813230        0.02285663        0.00150757
     152         -0.503130        1.000000        0.00007621        0.00071700        0.00062958        0.00005656
     153         -0.501974        1.000000        0.00019364        0.00198050        0.00013773        0.00012591
     154         -0.500484        1.000000        0.00020747        0.00275581        0.00410041        0.00330253
     155         -0.499215        1.000000        0.00003900        0.00073829        0.00083185        0.00057134
     156         -0.494404        1.000000        0.00098584        0.02395386        0.01615445        0.00909858
     157         -0.493101        1.000000        0.00008148        0.00243131        0.00031751        0.00027332
     158         -0.490430        1.000000        0.00039009        0.03177207        0.01304473        0.00868962
     159         -0.487925        1.000000        0.00002820        0.04569504        0.00441325        0.00803498
     160         -0.484372        1.000000        0.00007375        0.00268858        0.05486401        0.00227213
     161         -0.474225        1.000000        0.00040720        0.02243857        0.03343203        0.00252794
     162         -0.472411        1.000000        0.00049033        0.03383989        0.02199961        0.01643246
     163         -0.467611        1.000000        0.00004358        0.01449848        0.00412563        0.04230104
     164         -0.467257        1.000000        0.00007999        0.04152906        0.02187491        0.02351002
     165         -0.466394        1.000000        0.00000059        0.00000799        0.00000088        0.00000470
     166         -0.465444        1.000000        0.00000203        0.00003191        0.00002271        0.00003190
     167         -0.463578        1.000000        0.00000535        0.00002402        0.00001786        0.00001354
     168         -0.461164        1.000000        0.00000173        0.00002809        0.00002321        0.00002328
     169         -0.459876        1.000000        0.00004432        0.00002434        0.00094101        0.00025271
     170         -0.457909        1.000000        0.00000086        0.00001767        0.00002755        0.00001087
     171         -0.457140        1.000000        0.00000005        0.00002844        0.00004670        0.00001849
     172         -0.454620        1.000000        0.00000031        0.00000664        0.00001899        0.00000116
     173         -0.454557        1.000000        0.00000285        0.00000195        0.00000372        0.00000642
     174         -0.453293        1.000000        0.00000212        0.00002334        0.00002454        0.00018255
     175         -0.451986        1.000000        0.00000024        0.00000282        0.00000402        0.00000471
     176         -0.451650        1.000000        0.00000120        0.00000047        0.00001040        0.00000257
     177         -0.451124        1.000000        0.00000054        0.00000247        0.00000741        0.00000162
     178         -0.448386        1.000000        0.00000019        0.00001580        0.00000197        0.00000062
     179         -0.447956        1.000000        0.00000027        0.00000252        0.00000250        0.00000077
     180         -0.447381        1.000000        0.00000003        0.00000104        0.00000005        0.00000292
     181         -0.446051        1.000000        0.00000004        0.00000142        0.00000010        0.00000016
     182         -0.444604        1.000000        0.00000549        0.00125564        0.00205167        0.00032201
     183         -0.443529        1.000000        0.00000241        0.00004527        0.00014799        0.00002209
     184         -0.442578        1.000000        0.00000858        0.00011771        0.00015049        0.00019631
     185         -0.442058        1.000000        0.00007520        0.01824186        0.02311164        0.00341677
     186         -0.441615        1.000000        0.00001572        0.00003513        0.00006507        0.00001428
     187         -0.441565        1.000000        0.00000820        0.06550343        0.00972196        0.00185025
     188         -0.441209        1.000000        0.00000176        0.00001330        0.00001860        0.00000695
     189         -0.440943        1.000000        0.00003720        0.00574047        0.00864797        0.00133718
     190         -0.440780        1.000000        0.00000061        0.00015845        0.00002429        0.00000216
     191         -0.439772        1.000000        0.00001403        0.00012976        0.00042632        0.00013749
     192         -0.439643        1.000000        0.00000121        0.00001514        0.00001169        0.00001787
     193         -0.439468        1.000000        0.00000623        0.00003026        0.00008621        0.00008753
     194         -0.438766        1.000000        0.00011196        0.00032108        0.00036062        0.00006639
     195         -0.437781        1.000000        0.00000012        0.00000274        0.00000723        0.00000701
     196         -0.437088        1.000000        0.00000906        0.00163903        0.00044053        0.00021722
     197         -0.436981        1.000000        0.00000049        0.00006956        0.00001965        0.00000434
     198         -0.436264        1.000000        0.00000701        0.00028330        0.00005471        0.00009632
     199         -0.436228        1.000000        0.00000451        0.00006838        0.00004660        0.00001014
     200         -0.434519        1.000000        0.00000099        0.00001237        0.00000111        0.00000320
     201         -0.433651        1.000000        0.00000018        0.00000088        0.00001122        0.00000504
     202         -0.433395        1.000000        0.00002119        0.00123727        0.00187620        0.00033066
     203         -0.432893        1.000000        0.00058960        0.00154686        0.02526341        0.01722599
     204         -0.432315        1.000000        0.00037355        0.00049184        0.02050409        0.01339739
     205         -0.431074        1.000000        0.00000234        0.00077367        0.00000209        0.00000465
     206         -0.430777        1.000000        0.00000728        0.00002972        0.00000167        0.00006391
     207         -0.430194        1.000000        0.00000027        0.00092831        0.00001432        0.00000285
     208         -0.430141        1.000000        0.00000090        0.00036927        0.00002493        0.00001423
     209         -0.428751        1.000000        0.00000005        0.00002199        0.00000069        0.00000038
     210         -0.428715        1.000000        0.00000391        0.00000548        0.00024123        0.00015365
     211         -0.428257        1.000000        0.00000102        0.00340865        0.02022129        0.00051745
     212         -0.427617        1.000000        0.00000738        0.00003004        0.00076285        0.00018280
     213         -0.427504        1.000000        0.00004211        0.00006860        0.00056233        0.00031238
     214         -0.427280        1.000000        0.00000024        0.00000026        0.00000313        0.00000412
     215         -0.425210        1.000000        0.00000338        0.00005425        0.00117681        0.00017920
     216         -0.425118        1.000000        0.00000023        0.00004513        0.00003701        0.00000103
     217         -0.424987        1.000000        0.00000147        0.00001150        0.00001979        0.00003739
     218         -0.424859        1.000000        0.00000031        0.00001624        0.00000963        0.00000854
     219         -0.423450        1.000000        0.00000438        0.00000095        0.00035859        0.00017756
     220         -0.421971        1.000000        0.00002507        0.00000362        0.00329771        0.00086495
     221         -0.421818        1.000000        0.00000155        0.00000057        0.00000644        0.00001236
     222         -0.420486        1.000000        0.00000084        0.00046874        0.00020028        0.00001912
     223         -0.419904        1.000000        0.00000177        0.00000024        0.00001693        0.00002510
     224         -0.418928        1.000000        0.00000431        0.00000826        0.00117445        0.00013578
     225         -0.418212        1.000000        0.00000300        0.00000059        0.00000533        0.00007976
     226         -0.418139        1.000000        0.00001060        0.00349385        0.00077874        0.00015240
     227         -0.417896        1.000000        0.00008876        0.01486709        0.00653610        0.00042658
     228         -0.417423        1.000000        0.00000509        0.00000533        0.00003867        0.00009798
     229         -0.416896        1.000000        0.00011287        0.02466608        0.00925661        0.00062209
     230         -0.416379        1.000000        0.00003165        0.00627936        0.00206278        0.00019080
     231         -0.414900        1.000000        0.00000452        0.00026813        0.00002356        0.00001654
     232         -0.414682        1.000000        0.00000153        0.00433514        0.00026291        0.00005638
     233         -0.414340        1.000000        0.00000597        0.00011471        0.00002257        0.00003151
     234         -0.414234        1.000000        0.00005039        0.00002289        0.00062058        0.00062971
     235         -0.413972        1.000000        0.00002687        0.00001145        0.00050309        0.00033393
     236         -0.413211        1.000000        0.00002033        0.00000198        0.00006352        0.00025651
     237         -0.412848        1.000000        0.00046539        0.00003038        0.00083421        0.00785942
     238         -0.412768        1.000000        0.00001693        0.00006586        0.00126084        0.00055337
     239         -0.412386        1.000000        0.00003348        0.00000330        0.00008849        0.00042924
     240         -0.412105        1.000000        0.00002533        0.00003806        0.00029937        0.00029873
     241         -0.411498        1.000000        0.02227940        0.00364728        0.05521161        0.26034194
     242         -0.410757        1.000000        0.00018459        0.00108025        0.00299754        0.00156157
     243         -0.410509        1.000000        0.00096594        0.00006034        0.00731357        0.01052995
     244         -0.410267        1.000000        0.00001537        0.00002173        0.00022591        0.00016062
     245         -0.409240        1.000000        0.00034947        0.00009766        0.00204095        0.00325104
     246         -0.408473        1.000000        0.00045311        0.00019571        0.00072677        0.00544336
     247         -0.407763        1.000000        0.02357267        0.00001780        0.07989613        0.22865022
     248         -0.405404        1.000000        0.00014726        0.00005021        0.00049014        0.00169922
     249         -0.404502        1.000000        0.00010957        0.00022107        0.00103694        0.00003886
     250         -0.402621        1.000000        0.00001068        0.00001330        0.00001892        0.00012457
     251         -0.402183        1.000000        0.00004022        0.00004048        0.00004601        0.00041361
     252         -0.402142        1.000000        0.00000954        0.00003668        0.00036800        0.00026710
     253         -0.401512        1.000000        0.00001917        0.00002203        0.00028250        0.00001721
     254         -0.399956        1.000000        0.00000253        0.00000264        0.00000848        0.00002815
     255         -0.399477        1.000000        0.00006346        0.00026894        0.00070064        0.00079155
     256         -0.398608        1.000000        0.00003186        0.00007488        0.00012641        0.00054526
     257         -0.397591        1.000000        0.00065711        0.00119986        0.00030633        0.00908534
     258         -0.397526        1.000000        0.00001193        0.00002009        0.00000609        0.00016816
     259         -0.397178        1.000000        0.01122945        0.02122606        0.00222464        0.16281741