# Projected DOS for atomic kind H at iteration step i = 0, E(Fermi) =    -0.112191 a.u.
#     MO Eigenvalue [a.u.]      Occupation                 s
       1         -0.906228        1.000000        0.25648586
       2         -0.902011        1.000000        0.25480918
       3         -0.899760        1.000000        0.24938350
       4         -0.898957        1.000000        0.25891807
       5         -0.897438        1.000000        0.25448566
       6         -0.893488        1.000000        0.25549826
       7         -0.893323        1.000000        0.25680575
       8         -0.892228        1.000000        0.25406952
       9         -0.891855        1.000000        0.25359945
      10         -0.891605        1.000000        0.25237466
      11         -0.887063        1.000000        0.25547268
      12         -0.886306        1.000000        0.25674581
      13         -0.885534        1.000000        0.28226948
      14         -0.884543        1.000000        0.28562877
      15         -0.883184        1.000000        0.28221566
      16         -0.881888        1.000000        0.25691848
      17         -0.881073        1.000000        0.25653353
      18         -0.880817        1.000000        0.25629016
      19         -0.880151        1.000000        0.27625409
      20         -0.878676        1.000000        0.28168600
      21         -0.877398        1.000000        0.25668387
      22         -0.877142        1.000000        0.26470750
      23         -0.875957        1.000000        0.25478736
      24         -0.875883        1.000000        0.25564382
      25         -0.872990        1.000000        0.25425164
      26         -0.870597        1.000000        0.25587805
      27         -0.870512        1.000000        0.25085650
      28         -0.869501        1.000000        0.28001634
      29         -0.869167        1.000000        0.26722023
      30         -0.868232        1.000000        0.26617819
      31         -0.867351        1.000000        0.26576590
      32         -0.865916        1.000000        0.26332438
      33         -0.863797        1.000000        0.25976072
      34         -0.862570        1.000000        0.26709671
      35         -0.862151        1.000000        0.28200394
      36         -0.861388        1.000000        0.24868092
      37         -0.860832        1.000000        0.25073711
      38         -0.860060        1.000000        0.24997006
      39         -0.859985        1.000000        0.26715681
      40         -0.859943        1.000000        0.26811085
      41         -0.858815        1.000000        0.24373067
      42         -0.857704        1.000000        0.27544177
      43         -0.855725        1.000000        0.26145164
      44         -0.855308        1.000000        0.26932665
      45         -0.854547        1.000000        0.24557175
      46         -0.854079        1.000000        0.25113802
      47         -0.852657        1.000000        0.26041973
      48         -0.852461        1.000000        0.25652538
      49         -0.850437        1.000000        0.22377454
      50         -0.849658        1.000000        0.25585727
      51         -0.849477        1.000000        0.23578685
      52         -0.848523        1.000000        0.26105495
      53         -0.848365        1.000000        0.23791390
      54         -0.846974        1.000000        0.25192469
      55         -0.846331        1.000000        0.25515141
      56         -0.845537        1.000000        0.24751256
      57         -0.845453        1.000000        0.24238624
      58         -0.843873        1.000000        0.24876707
      59         -0.843078        1.000000        0.24976658
      60         -0.842759        1.000000        0.25671167
      61         -0.842652        1.000000        0.24653802
      62         -0.842257        1.000000        0.23840423
      63         -0.841270        1.000000        0.24327910
      64         -0.840215        1.000000        0.25609344
      65         -0.837607        1.000000        0.25492143
      66         -0.837528        1.000000        0.23889903
      67         -0.837248        1.000000        0.21075984
      68         -0.837113        1.000000        0.22963703
      69         -0.837058        1.000000        0.25520924
      70         -0.836316        1.000000        0.25752512
      71         -0.835570        1.000000        0.21276596
      72         -0.835146        1.000000        0.24006462
      73         -0.834265        1.000000        0.22720805
      74         -0.833716        1.000000        0.24136261
      75         -0.832270        1.000000        0.22745807
      76         -0.830530        1.000000        0.18198474
      77         -0.830148        1.000000        0.19315980
      78         -0.828570        1.000000        0.24439900
      79         -0.828337        1.000000        0.24556612
      80         -0.828084        1.000000        0.21647984
      81         -0.827408        1.000000        0.21857157
      82         -0.825987        1.000000        0.21993554
      83         -0.824255        1.000000        0.24233194
      84         -0.824191        1.000000        0.18823985
      85         -0.823334        1.000000        0.18936760
      86         -0.822305        1.000000        0.25416668
      87         -0.819547        1.000000        0.25307398
      88         -0.818000        1.000000        0.22607909
      89         -0.817511        1.000000        0.22464437
      90         -0.816928        1.000000        0.20108145
      91         -0.815376        1.000000        0.16470271
      92         -0.814802        1.000000        0.21908261
      93         -0.814753        1.000000        0.20873763
      94         -0.814638        1.000000        0.25553199
      95         -0.814371        1.000000        0.19357584
      96         -0.814118        1.000000        0.19529011
      97         -0.813460        1.000000        0.24738683
      98         -0.808517        1.000000        0.24013054
      99         -0.808315        1.000000        0.24913785
     100         -0.807186        1.000000        0.12599418
     101         -0.803632        1.000000        0.18548759
     102         -0.801340        1.000000        0.16689279
     103         -0.797839        1.000000        0.23724398
     104         -0.797804        1.000000        0.16348715
     105         -0.796251        1.000000        0.24426850
     106         -0.793600        1.000000        0.24509724
     107         -0.791391        1.000000        0.24112941
     108         -0.790678        1.000000        0.24634909
     109         -0.787303        1.000000        0.19896437
     110         -0.786793        1.000000        0.24256030
     111         -0.786527        1.000000        0.08778690
     112         -0.630423        1.000000        0.34387759
     113         -0.627284        1.000000        0.34300585
     114         -0.616953        1.000000        0.34993684
     115         -0.614875        1.000000        0.37134982
     116         -0.593027        1.000000        0.34646404
     117         -0.592899        1.000000        0.01648713
     118         -0.577770        1.000000        0.00541329
     119         -0.576081        1.000000        0.36773802
     120         -0.574114        1.000000        0.00874143
     121         -0.570754        1.000000        0.37042504
     122         -0.568755        1.000000        0.01147207
     123         -0.554820        1.000000        0.00427478
     124         -0.543614        1.000000        0.00852839
     125         -0.537682        1.000000        0.00870573
     126         -0.532804        1.000000        0.00311083
     127         -0.532378        1.000000        0.06581761
     128         -0.531136        1.000000        0.04538635
     129         -0.527797        1.000000        0.02857023
     130         -0.526378        1.000000        0.04185836
     131         -0.525189        1.000000        0.02900823
     132         -0.524873        1.000000        0.01234751
     133         -0.524133        1.000000        0.02279084
     134         -0.523025        1.000000        0.02198645
     135         -0.521342        1.000000        0.03184022
     136         -0.520912        1.000000        0.02947616
     137         -0.519668        1.000000        0.03112239
     138         -0.518262        1.000000        0.02194832
     139         -0.517142        1.000000        0.11711051
     140         -0.513615        1.000000        0.05763817
     141         -0.513338        1.000000        0.03299321
     142         -0.512060        1.000000        0.02255634
     143         -0.511878        1.000000        0.02930405
     144         -0.510000        1.000000        0.02610194
     145         -0.508790        1.000000        0.05787655
     146         -0.508015        1.000000        0.00614035
     147         -0.507146        1.000000        0.06734183
     148         -0.506799        1.000000        0.12239160
     149         -0.505823        1.000000        0.04090611
     150         -0.504932        1.000000        0.09542312
     151         -0.503794        1.000000        0.20270561
     152         -0.503167        1.000000        0.01779173
     153         -0.502234        1.000000        0.05759958
     154         -0.500745        1.000000        0.04902204
     155         -0.499251        1.000000        0.03396282
     156         -0.494579        1.000000        0.11931202
     157         -0.494183        1.000000        0.10953126
     158         -0.490438        1.000000        0.22547675
     159         -0.487937        1.000000        0.27656182
     160         -0.484381        1.000000        0.25070172
     161         -0.474228        1.000000        0.31336152
     162         -0.472419        1.000000        0.28474199
     163         -0.467606        1.000000        0.31596506
     164         -0.467306        1.000000        0.29197406
     165         -0.466393        1.000000        0.34718239
     166         -0.465446        1.000000        0.32428645
     167         -0.463584        1.000000        0.35351222
     168         -0.461165        1.000000        0.34068524
     169         -0.459879        1.000000        0.34961542
     170         -0.457932        1.000000        0.34683168
     171         -0.457166        1.000000        0.33957180
     172         -0.454620        1.000000        0.35269813
     173         -0.454557        1.000000        0.35038168
     174         -0.453295        1.000000        0.33434735
     175         -0.451984        1.000000        0.35477540
     176         -0.451649        1.000000        0.35395539
     177         -0.451136        1.000000        0.33819810
     178         -0.448386        1.000000        0.34868033
     179         -0.447953        1.000000        0.34379954
     180         -0.447388        1.000000        0.35613308
     181         -0.446051        1.000000        0.34324365
     182         -0.444606        1.000000        0.34962322
     183         -0.443531        1.000000        0.34338210
     184         -0.442580        1.000000        0.34611520
     185         -0.442071        1.000000        0.33758268
     186         -0.441662        1.000000        0.33160448
     187         -0.441616        1.000000        0.34679733
     188         -0.441209        1.000000        0.33702051
     189         -0.440949        1.000000        0.33531223
     190         -0.440783        1.000000        0.34586454
     191         -0.439774        1.000000        0.34022093
     192         -0.439641        1.000000        0.33191656
     193         -0.439470        1.000000        0.33994256
     194         -0.438769        1.000000        0.35474243
     195         -0.437782        1.000000        0.33306182
     196         -0.437090        1.000000        0.34406186
     197         -0.436982        1.000000        0.34675675
     198         -0.436323        1.000000        0.34804799
     199         -0.436231        1.000000        0.34239995
     200         -0.434498        1.000000        0.35527516
     201         -0.433653        1.000000        0.34061446
     202         -0.433396        1.000000        0.34199596
     203         -0.432917        1.000000        0.34076683
     204         -0.432389        1.000000        0.34098299
     205         -0.431075        1.000000        0.34317801
     206         -0.430777        1.000000        0.36002213
     207         -0.430195        1.000000        0.34645086
     208         -0.430139        1.000000        0.34877698
     209         -0.428752        1.000000        0.33712980
     210         -0.428713        1.000000        0.33412842
     211         -0.428258        1.000000        0.34796170
     212         -0.427629        1.000000        0.33974288
     213         -0.427495        1.000000        0.33942699
     214         -0.427310        1.000000        0.33335231
     215         -0.425256        1.000000        0.34073172
     216         -0.425216        1.000000        0.34246875
     217         -0.424992        1.000000        0.34145615
     218         -0.424867        1.000000        0.34297617
     219         -0.423448        1.000000        0.33574350
     220         -0.421972        1.000000        0.33976298
     221         -0.421818        1.000000        0.33865690
     222         -0.420487        1.000000        0.34854357
     223         -0.419895        1.000000        0.35482196
     224         -0.418928        1.000000        0.34888290
     225         -0.418211        1.000000        0.34783789
     226         -0.418139        1.000000        0.34804118
     227         -0.417898        1.000000        0.33092689
     228         -0.417423        1.000000        0.33924193
     229         -0.416899        1.000000        0.32902378
     230         -0.416387        1.000000        0.33560707
     231         -0.414922        1.000000        0.33710155
     232         -0.414683        1.000000        0.34745851
     233         -0.414383        1.000000        0.34017225
     234         -0.414234        1.000000        0.33064807
     235         -0.413971        1.000000        0.33351557
     236         -0.413269        1.000000        0.34052876
     237         -0.412848        1.000000        0.34649114
     238         -0.412772        1.000000        0.34594166
     239         -0.412392        1.000000        0.34121911
     240         -0.412107        1.000000        0.32153823
     241         -0.411503        1.000000        0.18633456
     242         -0.410759        1.000000        0.31435970
     243         -0.410509        1.000000        0.33456795
     244         -0.410262        1.000000        0.34593733
     245         -0.409247        1.000000        0.10669570
     246         -0.408474        1.000000        0.33253852
     247         -0.407764        1.000000        0.19212478
     248         -0.405409        1.000000        0.34143725
     249         -0.404922        1.000000        0.35207770
     250         -0.402741        1.000000        0.33921344
     251         -0.402187        1.000000        0.33748312
     252         -0.402165        1.000000        0.34274492
     253         -0.401547        1.000000        0.35449434
     254         -0.399956        1.000000        0.36698061
     255         -0.399406        1.000000        0.06382521
     256         -0.398597        1.000000        0.19189917
     257         -0.397588        1.000000        0.30972113
     258         -0.397554        1.000000        0.34995816
     259         -0.397160        1.000000        0.16552647
     260         -0.396083        1.000000        0.20058032
     261         -0.395875        1.000000        0.30194125
     262         -0.395185        1.000000        0.22408915
     263         -0.394187        1.000000        0.15226842
     264         -0.392967        1.000000        0.25148777
     265         -0.392861        1.000000        0.34254168
     266         -0.392588        1.000000        0.36256372
     267         -0.391742        1.000000        0.34680731
     268         -0.391159        1.000000        0.19762979
     269         -0.390094        1.000000        0.14739138
     270         -0.390052        1.000000        0.12436253
     271         -0.388751        1.000000        0.07732301
     272         -0.387426        1.000000        0.03089793
     273         -0.386562        1.000000        0.33472460
     274         -0.386349        1.000000        0.31365039
     275         -0.381255        1.000000        0.36846138
     276         -0.379694        1.000000        0.36071608
     277         -0.378967        1.000000        0.04944030
     278         -0.378360        1.000000        0.29812137
     279         -0.377848        1.000000        0.36231439
     280         -0.376492        1.000000        0.35262610
     281         -0.376164        1.000000        0.18688965
     282         -0.375344        1.000000        0.34936016
     283         -0.372816        1.000000        0.19597922
     284         -0.362169        1.000000        0.34658868
     285         -0.360253        1.000000        0.35761472
     286         -0.357841        1.000000        0.35039139
     287         -0.356973        1.000000        0.35853382
     288         -0.350239        1.000000        0.17933344
     289         -0.348977        1.000000        0.17532672
     290         -0.347896        1.000000        0.42371736
     291         -0.346611        1.000000        0.35441692
     292         -0.344212        1.000000        0.41153884
     293         -0.343523        1.000000        0.41695473
     294         -0.342456        1.000000        0.19657328
     295         -0.342284        1.000000        0.41492274
     296         -0.338847        1.000000        0.21317224
     297         -0.338050        1.000000        0.37730497
     298         -0.336367        1.000000        0.42458406
     299         -0.332947        1.000000        0.41989424
     300         -0.327190        1.000000        0.15877626
     301         -0.323479        1.000000        0.17778066
     302         -0.323196        1.000000        0.14647616
     303         -0.321230        1.000000        0.20650954
     304         -0.320073        1.000000        0.17967792
     305         -0.316675        1.000000        0.25978938
     306         -0.316301        1.000000        0.16730162
     307         -0.313310        1.000000        0.21944339
     308         -0.312788        1.000000        0.15417448
     309         -0.311879        1.000000        0.15604932
     310         -0.311039        1.000000        0.14880101
     311         -0.310592        1.000000        0.12577610
     312         -0.308444        1.000000        0.37105373
     313         -0.307742        1.000000        0.31316955
     314         -0.306178        1.000000        0.33631162
     315         -0.303636        1.000000        0.14370531
     316         -0.301630        1.000000        0.15582571
     317         -0.300293        1.000000        0.12190182
     318         -0.299323        1.000000        0.13132770
     319         -0.298932        1.000000        0.41694339
     320         -0.298716        1.000000        0.13531649
     321         -0.296501        1.000000        0.39023146
     322         -0.296092        1.000000        0.13012565
     323         -0.295001        1.000000        0.13515579
     324         -0.292126        1.000000        0.11138508
     325         -0.291325        1.000000        0.11088763
     326         -0.290773        1.000000        0.03953257
     327         -0.286531        1.000000        0.08282440
     328         -0.286048        1.000000        0.13664988
     329         -0.285950        1.000000        0.11705598
     330         -0.285897        1.000000        0.11147537
     331         -0.283873        1.000000        0.11193078
     332         -0.283730        1.000000        0.10828083
     333         -0.283407        1.000000        0.13929248
     334         -0.283003        1.000000        0.12889326
     335         -0.282766        1.000000        0.11258603
     336         -0.281173        1.000000        0.11114289
     337         -0.278198        1.000000        0.11277693
     338         -0.276734        1.000000        0.11487278
     339         -0.275742        1.000000        0.10376292
     340         -0.273731        1.000000        0.10733748
     341         -0.272742        1.000000        0.09762962
     342         -0.271627        1.000000        0.01771690
     343         -0.269073        1.000000        0.04883574
     344         -0.268924        1.000000        0.13663567
     345         -0.266586        1.000000        0.08437416
     346         -0.265777        1.000000        0.10188998
     347         -0.264533        1.000000        0.09038381
     348         -0.261909        1.000000        0.03362058
     349         -0.261267        1.000000        0.07981208
     350         -0.261210        1.000000        0.07964029
     351         -0.259280        1.000000        0.08181001
     352         -0.258708        1.000000        0.08826097
     353         -0.257470        1.000000        0.09961251
     354         -0.257191        1.000000        0.08365696
     355         -0.256954        1.000000        0.09432174
     356         -0.254199        1.000000        0.07311550
     357         -0.252871        1.000000        0.06441425
     358         -0.249626        1.000000        0.08303569
     359         -0.249080        1.000000        0.08832512
     360         -0.248670        1.000000        0.07781153
     361         -0.246998        1.000000        0.07164912
     362         -0.243905        1.000000        0.05348149
     363         -0.242005        1.000000        0.04737202
     364         -0.241154        1.000000        0.05491788
     365         -0.240916        1.000000        0.07954107
     366         -0.240206        1.000000        0.06167313
     367         -0.238990        1.000000        0.08163586
     368         -0.237328        1.000000        0.05893609
     369         -0.236927        1.000000        0.05718718
     370         -0.235697        1.000000        0.07903713
     371         -0.235484        1.000000        0.06591575
     372         -0.235265        1.000000        0.07224765
     373         -0.233941        1.000000        0.06834806
     374         -0.233488        1.000000        0.04506416
     375         -0.231555        1.000000        0.02756338
     376         -0.229278        1.000000        0.08303734
     377         -0.227707        1.000000        0.02290082
     378         -0.227506        1.000000        0.05668500
     379         -0.227299        1.000000        0.04921612
     380         -0.225775        1.000000        0.01075153
     381         -0.224305        1.000000        0.00578590
     382         -0.223509        1.000000        0.03124548
     383         -0.223383        1.000000        0.02514084
     384         -0.223011        1.000000        0.02001123
     385         -0.221790        1.000000        0.02301179
     386         -0.220861        1.000000        0.02260934
     387         -0.220705        1.000000        0.03807123
     388         -0.220244        1.000000        0.02697043
     389         -0.218498        1.000000        0.01544049
     390         -0.217457        1.000000        0.08410755
     391         -0.217137        1.000000        0.07084963
     392         -0.215749        1.000000        0.00224420
     393         -0.215559        1.000000        0.04444383
     394         -0.215009        1.000000        0.01127044
     395         -0.214683        1.000000        0.02056471
     396         -0.214286        1.000000        0.01378279
     397         -0.214121        1.000000        0.04062499
     398         -0.213983        1.000000        0.04242021
     399         -0.213371        1.000000        0.01629767
     400         -0.213007        1.000000        0.03223322
     401         -0.212379        1.000000        0.01573009
     402         -0.211892        1.000000        0.01481779
     403         -0.211639        1.000000        0.01823659
     404         -0.210867        1.000000        0.02046965
     405         -0.210116        1.000000        0.03014275
     406         -0.209303        1.000000        0.01298739
     407         -0.208689        1.000000        0.01451563
     408         -0.208571        1.000000        0.07408345
     409         -0.207415        1.000000        0.03221955
     410         -0.207181        1.000000        0.00498871
     411         -0.206465        1.000000        0.02608014
     412         -0.206044        1.000000        0.01170576
     413         -0.205943        1.000000        0.01003816
     414         -0.205354        1.000000        0.01655181
     415         -0.204417        1.000000        0.00694606
     416         -0.204064        1.000000        0.01133942
     417         -0.202982        1.000000        0.00820619
     418         -0.202306        1.000000        0.00713944
     419         -0.201859        1.000000        0.01016084
     420         -0.201715        1.000000        0.01082080
     421         -0.201588        1.000000        0.01005504
     422         -0.201345        1.000000        0.01911797
     423         -0.200854        1.000000        0.02199358
     424         -0.200470        1.000000        0.00974716
     425         -0.200039        1.000000        0.00809823
     426         -0.199643        1.000000        0.00724079
     427         -0.199412        1.000000        0.00829658
     428         -0.198980        1.000000        0.02063137
     429         -0.198483        1.000000        0.01394577
     430         -0.198299        1.000000        0.02166315
     431         -0.198077        1.000000        0.00949487
     432         -0.197757        1.000000        0.05303845
     433         -0.197416        1.000000        0.01111981
     434         -0.196488        1.000000        0.00671835
     435         -0.196061        1.000000        0.02493402
     436         -0.195950        1.000000        0.00986503
     437         -0.195631        1.000000        0.00789581
     438         -0.195426        1.000000        0.00460355
     439         -0.194528        1.000000        0.00801232
     440         -0.194352        1.000000        0.01072749
     441         -0.194000        1.000000        0.01067732
     442         -0.193602        1.000000        0.01250183
     443         -0.193347        1.000000        0.00693490
     444         -0.193082        1.000000        0.00756477
     445         -0.192780        1.000000        0.00349877
     446         -0.192289        1.000000        0.01422121
     447         -0.191743        1.000000        0.04857695
     448         -0.190815        1.000000        0.00848267
     449         -0.189876        1.000000        0.00838444
     450         -0.189754        1.000000        0.00820684
     451         -0.189516        1.000000        0.00348999
     452         -0.189013        1.000000        0.00628985
     453         -0.188669        1.000000        0.00345978
     454         -0.188256        1.000000        0.00470075
     455         -0.188099        1.000000        0.00477980
     456         -0.187493        1.000000        0.00800348
     457         -0.186760        1.000000        0.01202185
     458         -0.186653        1.000000        0.00845779
     459         -0.186496        1.000000        0.00982952
     460         -0.186452        1.000000        0.01513595
     461         -0.185773        1.000000        0.00639747
     462         -0.185242        1.000000        0.00959366
     463         -0.184714        1.000000        0.00414451
     464         -0.184407        1.000000        0.00837992
     465         -0.183928        1.000000        0.00386457
     466         -0.183848        1.000000        0.00818281
     467         -0.182890        1.000000        0.00660913
     468         -0.182422        1.000000        0.00447503
     469         -0.181733        1.000000        0.01490966
     470         -0.181093        1.000000        0.01043241
     471         -0.180941        1.000000        0.02636741
     472         -0.180723        1.000000        0.03369306
     473         -0.180265        1.000000        0.01955477
     474         -0.179601        1.000000        0.00665442
     475         -0.179466        1.000000        0.00478235
     476         -0.179313        1.000000        0.00772440
     477         -0.178829        1.000000        0.00489888
     478         -0.178390        1.000000        0.00377070
     479         -0.177994        1.000000        0.00601059
     480         -0.177694        1.000000        0.00367293
     481         -0.177674        1.000000        0.00615352
     482         -0.176680        1.000000        0.00262328
     483         -0.176408        1.000000        0.00554248
     484         -0.176372        1.000000        0.00390092
     485         -0.176074        1.000000        0.00453002
     486         -0.175778        1.000000        0.00490213
     487         -0.175255        1.000000        0.00625036
     488         -0.175023        1.000000        0.00350037
     489         -0.174385        1.000000        0.00190907