# Projected DOS for atomic kind C at iteration step i = 0, E(Fermi) =    -0.112191 a.u.
#     MO Eigenvalue [a.u.]      Occupation                 s                py                pz                px
       1         -0.906228        1.000000        0.00000009        0.00000027        0.00000008        0.00000000
       2         -0.902011        1.000000        0.00000000        0.00000000        0.00000000        0.00000001
       3         -0.899760        1.000000        0.00000072        0.00000075        0.00000101        0.00000228
       4         -0.898957        1.000000        0.00000002        0.00000000        0.00000001        0.00000002
       5         -0.897438        1.000000        0.00000064        0.00000007        0.00000023        0.00000032
       6         -0.893488        1.000000        0.00000003        0.00000001        0.00000008        0.00000002
       7         -0.893323        1.000000        0.00000017        0.00000000        0.00000006        0.00000024
       8         -0.892228        1.000000        0.00000002        0.00000000        0.00000001        0.00000003
       9         -0.891855        1.000000        0.00000000        0.00000000        0.00000000        0.00000000
      10         -0.891605        1.000000        0.00000008        0.00000002        0.00000000        0.00000008
      11         -0.887063        1.000000        0.00000009        0.00000006        0.00000000        0.00000001
      12         -0.886306        1.000000        0.00000003        0.00000001        0.00000000        0.00000000
      13         -0.885534        1.000000        0.06046764        0.00015725        0.00557588        0.03816302
      14         -0.884543        1.000000        0.00109212        0.00008207        0.00034172        0.00048494
      15         -0.883184        1.000000        0.05948198        0.00000006        0.01214780        0.03129844
      16         -0.881888        1.000000        0.00000001        0.00000001        0.00000001        0.00000001
      17         -0.881073        1.000000        0.00010600        0.00000012        0.00003507        0.00005064
      18         -0.880817        1.000000        0.00000100        0.00000008        0.00000026        0.00000058
      19         -0.880151        1.000000        0.00004284        0.00001442        0.00001010        0.00001605
      20         -0.878676        1.000000        0.00000000        0.00000032        0.00000046        0.00000096
      21         -0.877398        1.000000        0.00000070        0.00000026        0.00000107        0.00000688
      22         -0.877142        1.000000        0.00000583        0.00000883        0.00000636        0.00000027
      23         -0.875957        1.000000        0.00000145        0.00000006        0.00000113        0.00000052
      24         -0.875883        1.000000        0.00000012        0.00000001        0.00000036        0.00000002
      25         -0.872990        1.000000        0.00000163        0.00000034        0.00000108        0.00000044
      26         -0.870597        1.000000        0.00000513        0.00000160        0.00000112        0.00000166
      27         -0.870512        1.000000        0.00044564        0.00013932        0.00010476        0.00013678
      28         -0.869501        1.000000        0.06346483        0.00606361        0.00013055        0.03855779
      29         -0.869167        1.000000        0.00000007        0.00000047        0.00000058        0.00000100
      30         -0.868232        1.000000        0.00001200        0.00000026        0.00000151        0.00001290
      31         -0.867351        1.000000        0.00002630        0.00000057        0.00000027        0.00002752
      32         -0.865916        1.000000        0.00000371        0.00000002        0.00000481        0.00000019
      33         -0.863797        1.000000        0.00006433        0.00000091        0.00000236        0.00006332
      34         -0.862570        1.000000        0.00018708        0.00000829        0.00002049        0.00006029
      35         -0.862151        1.000000        0.00000726        0.00000023        0.00000187        0.00000351
      36         -0.861388        1.000000        0.00722074        0.00019297        0.00199452        0.00273336
      37         -0.860832        1.000000        0.00000013        0.00000017        0.00000125        0.00000196
      38         -0.860060        1.000000        0.00035573        0.00010752        0.00008111        0.00009104
      39         -0.859985        1.000000        0.00000000        0.00000002        0.00000009        0.00000007
      40         -0.859943        1.000000        0.00000612        0.00000232        0.00011429        0.00000087
      41         -0.858815        1.000000        0.00662553        0.00017154        0.00185166        0.00240783
      42         -0.857704        1.000000        0.00000022        0.00000003        0.00000256        0.00000306
      43         -0.855725        1.000000        0.00000336        0.00000000        0.00000275        0.00000080
      44         -0.855308        1.000000        0.00000035        0.00000010        0.00000311        0.00000421
      45         -0.854547        1.000000        0.00001082        0.00000101        0.00000032        0.00001026
      46         -0.854079        1.000000        0.00006934        0.00000206        0.00004460        0.00002699
      47         -0.852657        1.000000        0.03255752        0.00962953        0.00729594        0.00723377
      48         -0.852461        1.000000        0.00363177        0.00107325        0.00081332        0.00080451
      49         -0.850437        1.000000        0.00000926        0.00000003        0.00002028        0.00000315
      50         -0.849658        1.000000        0.00000663        0.00000039        0.00000214        0.00000236
      51         -0.849477        1.000000        0.00000038        0.00000070        0.00000157        0.00000245
      52         -0.848523        1.000000        0.00001092        0.00000130        0.00000580        0.00000208
      53         -0.848365        1.000000        0.00683074        0.00198658        0.00150994        0.00141258
      54         -0.846974        1.000000        0.00000078        0.00000029        0.00000380        0.00000601
      55         -0.846331        1.000000        0.00011790        0.00000645        0.00007109        0.00002673
      56         -0.845537        1.000000        0.00000483        0.00000026        0.00003399        0.00006687
      57         -0.845453        1.000000        0.00009535        0.00000499        0.00002279        0.00002705
      58         -0.843873        1.000000        0.00000209        0.00000060        0.00000045        0.00000040
      59         -0.843078        1.000000        0.00000006        0.00000017        0.00000047        0.00000109
      60         -0.842759        1.000000        0.00000271        0.00000003        0.00000068        0.00000087
      61         -0.842652        1.000000        0.05068284        0.00047099        0.01273504        0.01621499
      62         -0.842257        1.000000        0.00000002        0.00000004        0.00000006        0.00000015
      63         -0.841270        1.000000        0.00000183        0.00000146        0.00000770        0.00000974
      64         -0.840215        1.000000        0.00118459        0.00000623        0.00001218        0.00097290
      65         -0.837607        1.000000        0.00188128        0.00016028        0.00084144        0.00045349
      66         -0.837528        1.000000        0.00016955        0.00000611        0.00001026        0.00012743
      67         -0.837248        1.000000        0.00000000        0.00000001        0.00000000        0.00000001
      68         -0.837113        1.000000        0.00000523        0.00000140        0.00002294        0.00000058
      69         -0.837058        1.000000        0.00000016        0.00000005        0.00000005        0.00000005
      70         -0.836316        1.000000        0.00003942        0.00000364        0.00001667        0.00000999
      71         -0.835570        1.000000        0.00225330        0.00061621        0.00047397        0.00038441
      72         -0.835146        1.000000        0.00000449        0.00000115        0.00000083        0.00000127
      73         -0.834265        1.000000        0.00000200        0.00000273        0.00000550        0.00000774
      74         -0.833716        1.000000        0.00086653        0.00009425        0.00031809        0.00023224
      75         -0.832270        1.000000        0.00016994        0.00001648        0.00006496        0.00004139
      76         -0.830530        1.000000        0.01662641        0.00449000        0.00345748        0.00250233
      77         -0.830148        1.000000        0.01356535        0.00004081        0.00321973        0.00385373
      78         -0.828570        1.000000        0.00000432        0.00000031        0.00000091        0.00000253
      79         -0.828337        1.000000        0.00000002        0.00000001        0.00000001        0.00000004
      80         -0.828084        1.000000        0.00014009        0.00000107        0.00008312        0.00005047
      81         -0.827408        1.000000        0.00000006        0.00000017        0.00000013        0.00000025
      82         -0.825987        1.000000        0.00049177        0.00003647        0.00020400        0.00011727
      83         -0.824255        1.000000        0.00834462        0.00003617        0.00020165        0.00582569
      84         -0.824191        1.000000        0.00000050        0.00000030        0.00000132        0.00000156
      85         -0.823334        1.000000        0.00074612        0.00017944        0.00014037        0.00013063
      86         -0.822305        1.000000        0.00000000        0.00000000        0.00000000        0.00000000
      87         -0.819547        1.000000        0.00000073        0.00002239        0.00001924        0.00000129
      88         -0.818000        1.000000        0.00027308        0.00004202        0.00000022        0.00017905
      89         -0.817511        1.000000        0.01446960        0.00110808        0.00454780        0.00370214
      90         -0.816928        1.000000        0.00000236        0.00000126        0.00000961        0.00000118
      91         -0.815376        1.000000        0.00000002        0.00000011        0.00000003        0.00000007
      92         -0.814802        1.000000        0.01241615        0.00095624        0.00368011        0.00322941
      93         -0.814753        1.000000        0.00176172        0.00013588        0.00052158        0.00045872
      94         -0.814638        1.000000        0.00067356        0.00005142        0.00019948        0.00017517
      95         -0.814371        1.000000        0.00043434        0.00003278        0.00012731        0.00011821
      96         -0.814118        1.000000        0.00000170        0.00000015        0.00000058        0.00000061
      97         -0.813460        1.000000        0.00000031        0.00000007        0.00000006        0.00000003
      98         -0.808517        1.000000        0.02752502        0.00185909        0.00751951        0.00723487
      99         -0.808315        1.000000        0.00005946        0.00003258        0.00000521        0.00020214
     100         -0.807186        1.000000        0.00001279        0.00003920        0.00002750        0.00006880
     101         -0.803632        1.000000        0.00000086        0.00000045        0.00000101        0.00000015
     102         -0.801340        1.000000        0.00000002        0.00000000        0.00000008        0.00000031
     103         -0.797839        1.000000        0.00000000        0.00000000        0.00000001        0.00000003
     104         -0.797804        1.000000        0.00000007        0.00000001        0.00000000        0.00000029
     105         -0.796251        1.000000        0.00000000        0.00000000        0.00000000        0.00000000
     106         -0.793600        1.000000        0.00000000        0.00000000        0.00000000        0.00000001
     107         -0.791391        1.000000        0.00000000        0.00000000        0.00000000        0.00000000
     108         -0.790678        1.000000        0.07254909        0.00112559        0.00168939        0.03709457
     109         -0.787303        1.000000        0.01789215        0.00093854        0.00358490        0.00459459
     110         -0.786793        1.000000        0.00005070        0.00021409        0.00007960        0.00003153
     111         -0.786527        1.000000        0.00000064        0.00000003        0.00000042        0.00000014
     112         -0.630423        1.000000        0.43804670        0.00018615        0.00041086        0.00077141
     113         -0.627284        1.000000        0.43872983        0.00000072        0.00025848        0.00082984
     114         -0.616953        1.000000        0.43744771        0.00019227        0.00000791        0.00198419
     115         -0.614875        1.000000        0.43021316        0.00000386        0.00386752        0.00401082
     116         -0.593027        1.000000        0.43286117        0.00027760        0.00098696        0.00106394
     117         -0.592899        1.000000        0.00419877        0.00012563        0.00006464        0.00001871
     118         -0.577770        1.000000        0.00017396        0.00010682        0.00000512        0.00003025
     119         -0.576081        1.000000        0.42702552        0.00090268        0.00223168        0.00403084
     120         -0.574114        1.000000        0.00105612        0.00054559        0.00004446        0.00012916
     121         -0.570754        1.000000        0.42066697        0.00029563        0.00044163        0.00788827
     122         -0.568755        1.000000        0.00017194        0.00018030        0.00004675        0.00003822
     123         -0.554820        1.000000        0.00071142        0.00001758        0.00006301        0.00013371
     124         -0.543614        1.000000        0.00495839        0.00043563        0.00024833        0.00019993
     125         -0.537682        1.000000        0.00027887        0.00048701        0.00061695        0.00012316
     126         -0.532804        1.000000        0.00054918        0.00012910        0.00006934        0.00007824
     127         -0.532378        1.000000        0.00012055        0.00704604        0.00122366        0.00043816
     128         -0.531136        1.000000        0.00024218        0.00359129        0.00050975        0.00020435
     129         -0.527797        1.000000        0.00007897        0.00273916        0.00078028        0.00033569
     130         -0.526378        1.000000        0.00058210        0.00026881        0.00490150        0.00090428
     131         -0.525189        1.000000        0.00059131        0.00061799        0.00199218        0.00122472
     132         -0.524873        1.000000        0.00040062        0.00061870        0.00035714        0.00032037
     133         -0.524133        1.000000        0.00020062        0.00051533        0.00164679        0.00033072
     134         -0.523025        1.000000        0.00021118        0.00168746        0.00090473        0.00022354
     135         -0.521342        1.000000        0.00029223        0.00083344        0.00148638        0.00074155
     136         -0.520912        1.000000        0.00024098        0.00046612        0.00082651        0.00048547
     137         -0.519668        1.000000        0.00073839        0.00253045        0.00089185        0.00061013
     138         -0.518262        1.000000        0.00032724        0.00173900        0.00095391        0.00075777
     139         -0.517142        1.000000        0.00015604        0.01442385        0.00082615        0.00004031
     140         -0.513615        1.000000        0.00016172        0.00416828        0.00484115        0.00105080
     141         -0.513338        1.000000        0.00020045        0.00067013        0.00232566        0.00116971
     142         -0.512060        1.000000        0.00021697        0.00037211        0.00121608        0.00041906
     143         -0.511878        1.000000        0.00010568        0.00200945        0.00094826        0.00030830
     144         -0.510000        1.000000        0.00036758        0.00146787        0.00108228        0.00002226
     145         -0.508790        1.000000        0.00033451        0.00248196        0.00435809        0.00094819
     146         -0.508015        1.000000        0.00008318        0.00031852        0.00023545        0.00009857
     147         -0.507146        1.000000        0.00008307        0.00310362        0.00525688        0.00163595
     148         -0.506799        1.000000        0.00011072        0.00716538        0.01076711        0.00348271
     149         -0.505823        1.000000        0.00003542        0.00370085        0.00104272        0.00015310
     150         -0.504932        1.000000        0.00003263        0.00119659        0.00865300        0.00253505
     151         -0.503794        1.000000        0.00015473        0.01804851        0.02276637        0.00150536
     152         -0.503167        1.000000        0.00006257        0.00079983        0.00067667        0.00005609
     153         -0.502234        1.000000        0.00016283        0.00167853        0.00034868        0.00005127
     154         -0.500745        1.000000        0.00022913        0.00288089        0.00410769        0.00348940
     155         -0.499251        1.000000        0.00003475        0.00056358        0.00066723        0.00044423
     156         -0.494579        1.000000        0.00054775        0.01383414        0.00871132        0.00486361
     157         -0.494183        1.000000        0.00051230        0.01284372        0.00782506        0.00449513
     158         -0.490438        1.000000        0.00039050        0.03181633        0.01305772        0.00870412
     159         -0.487937        1.000000        0.00002762        0.04577877        0.00444923        0.00803712
     160         -0.484381        1.000000        0.00007285        0.00270703        0.05486484        0.00228201
     161         -0.474228        1.000000        0.00040721        0.02244862        0.03342520        0.00252466
     162         -0.472419        1.000000        0.00048937        0.03371651        0.02209139        0.01650958
     163         -0.467606        1.000000        0.00004279        0.01450871        0.00413650        0.04231701
     164         -0.467306        1.000000        0.00008154        0.04171779        0.02186732        0.02348702
     165         -0.466393        1.000000        0.00000059        0.00000792        0.00000086        0.00000470
     166         -0.465446        1.000000        0.00000203        0.00003208        0.00002289        0.00003208
     167         -0.463584        1.000000        0.00000538        0.00002417        0.00001801        0.00001375
     168         -0.461165        1.000000        0.00000173        0.00002732        0.00002275        0.00002259
     169         -0.459879        1.000000        0.00004421        0.00002528        0.00093536        0.00025000
     170         -0.457932        1.000000        0.00000088        0.00001492        0.00002549        0.00000968
     171         -0.457166        1.000000        0.00000004        0.00002971        0.00004775        0.00001926
     172         -0.454620        1.000000        0.00000031        0.00000674        0.00001906        0.00000117
     173         -0.454557        1.000000        0.00000285        0.00000194        0.00000370        0.00000644
     174         -0.453295        1.000000        0.00000212        0.00002334        0.00002452        0.00018253
     175         -0.451984        1.000000        0.00000024        0.00000283        0.00000403        0.00000471
     176         -0.451649        1.000000        0.00000120        0.00000048        0.00001041        0.00000257
     177         -0.451136        1.000000        0.00000054        0.00000246        0.00000737        0.00000161
     178         -0.448386        1.000000        0.00000018        0.00001594        0.00000199        0.00000063
     179         -0.447953        1.000000        0.00000027        0.00000252        0.00000250        0.00000077
     180         -0.447388        1.000000        0.00000003        0.00000103        0.00000005        0.00000292
     181         -0.446051        1.000000        0.00000004        0.00000145        0.00000010        0.00000016
     182         -0.444606        1.000000        0.00000546        0.00127333        0.00204917        0.00032189
     183         -0.443531        1.000000        0.00000241        0.00004545        0.00014807        0.00002209
     184         -0.442580        1.000000        0.00000858        0.00011774        0.00015028        0.00019616
     185         -0.442071        1.000000        0.00007128        0.02102485        0.02236313        0.00333406
     186         -0.441662        1.000000        0.00001215        0.06260336        0.01065826        0.00185222
     187         -0.441616        1.000000        0.00001574        0.00004030        0.00006981        0.00001491
     188         -0.441209        1.000000        0.00000175        0.00001211        0.00001848        0.00000694
     189         -0.440949        1.000000        0.00003762        0.00577435        0.00876612        0.00135236
     190         -0.440783        1.000000        0.00000062        0.00012420        0.00002059        0.00000150
     191         -0.439774        1.000000        0.00001399        0.00012746        0.00042404        0.00013657
     192         -0.439641        1.000000        0.00000121        0.00001522        0.00001168        0.00001792
     193         -0.439470        1.000000        0.00000624        0.00003298        0.00008314        0.00008702
     194         -0.438769        1.000000        0.00011191        0.00032014        0.00035988        0.00006649
     195         -0.437782        1.000000        0.00000012        0.00000274        0.00000723        0.00000702
     196         -0.437090        1.000000        0.00000902        0.00163981        0.00044265        0.00021717
     197         -0.436982        1.000000        0.00000049        0.00006899        0.00001958        0.00000431
     198         -0.436323        1.000000        0.00000679        0.00025937        0.00005428        0.00009066
     199         -0.436231        1.000000        0.00000448        0.00006703        0.00004624        0.00000955
     200         -0.434498        1.000000        0.00000100        0.00001248        0.00000114        0.00000325
     201         -0.433653        1.000000        0.00000019        0.00000094        0.00001171        0.00000534
     202         -0.433396        1.000000        0.00002184        0.00123812        0.00190479        0.00034961
     203         -0.432917        1.000000        0.00055677        0.00149691        0.02364717        0.01615886
     204         -0.432389        1.000000        0.00041300        0.00066145        0.02193712        0.01450240
     205         -0.431075        1.000000        0.00000234        0.00077602        0.00000216        0.00000471
     206         -0.430777        1.000000        0.00000728        0.00002974        0.00000167        0.00006398
     207         -0.430195        1.000000        0.00000026        0.00097873        0.00001353        0.00000280
     208         -0.430139        1.000000        0.00000092        0.00031591        0.00002589        0.00001440
     209         -0.428752        1.000000        0.00000004        0.00002196        0.00000070        0.00000038
     210         -0.428713        1.000000        0.00000388        0.00000566        0.00023674        0.00015136
     211         -0.428258        1.000000        0.00000099        0.00341010        0.02023134        0.00051727
     212         -0.427629        1.000000        0.00000594        0.00002844        0.00077037        0.00017605
     213         -0.427495        1.000000        0.00004358        0.00006851        0.00053803        0.00031918
     214         -0.427310        1.000000        0.00000025        0.00000026        0.00000318        0.00000407
     215         -0.425256        1.000000        0.00000019        0.00004716        0.00003566        0.00000144
     216         -0.425216        1.000000        0.00000341        0.00005411        0.00118305        0.00018043
     217         -0.424992        1.000000        0.00000143        0.00000934        0.00001950        0.00003618
     218         -0.424867        1.000000        0.00000037        0.00001251        0.00001140        0.00001043
     219         -0.423448        1.000000        0.00000439        0.00000085        0.00035612        0.00017641
     220         -0.421972        1.000000        0.00002507        0.00000365        0.00329562        0.00086479
     221         -0.421818        1.000000        0.00000155        0.00000057        0.00000644        0.00001238
     222         -0.420487        1.000000        0.00000084        0.00046903        0.00020033        0.00001905
     223         -0.419895        1.000000        0.00000177        0.00000023        0.00001693        0.00002515
     224         -0.418928        1.000000        0.00000431        0.00000827        0.00117422        0.00013586
     225         -0.418211        1.000000        0.00000301        0.00000060        0.00000534        0.00007991
     226         -0.418139        1.000000        0.00001068        0.00351205        0.00078452        0.00015302
     227         -0.417898        1.000000        0.00008844        0.01479270        0.00650849        0.00042452
     228         -0.417423        1.000000        0.00000511        0.00000534        0.00003871        0.00009814
     229         -0.416899        1.000000        0.00011219        0.02451385        0.00920507        0.00061780
     230         -0.416387        1.000000        0.00003265        0.00648730        0.00213526        0.00019689
     231         -0.414922        1.000000        0.00000430        0.00026723        0.00002595        0.00001703
     232         -0.414683        1.000000        0.00000147        0.00431494        0.00025938        0.00005570
     233         -0.414383        1.000000        0.00000537        0.00013337        0.00001814        0.00002625
     234         -0.414234        1.000000        0.00005109        0.00002035        0.00062928        0.00063576
     235         -0.413971        1.000000        0.00002695        0.00001135        0.00050082        0.00033452
     236         -0.413269        1.000000        0.00001721        0.00000173        0.00005497        0.00021552
     237         -0.412848        1.000000        0.00047338        0.00003157        0.00086259        0.00796173
     238         -0.412772        1.000000        0.00001489        0.00006264        0.00123927        0.00053063
     239         -0.412392        1.000000        0.00003616        0.00000359        0.00009632        0.00046077
     240         -0.412107        1.000000        0.00002568        0.00003782        0.00029918        0.00030294
     241         -0.411503        1.000000        0.02227554        0.00364700        0.05520507        0.26028469
     242         -0.410759        1.000000        0.00018349        0.00108275        0.00299511        0.00155004
     243         -0.410509        1.000000        0.00096899        0.00006005        0.00732974        0.01056085
     244         -0.410262        1.000000        0.00001532        0.00002115        0.00022339        0.00015994
     245         -0.409247        1.000000        0.00034626        0.00009731        0.00202861        0.00322326
     246         -0.408474        1.000000        0.00045147        0.00019537        0.00071986        0.00542540
     247         -0.407764        1.000000        0.02357729        0.00001765        0.07991997        0.22867477
     248         -0.405409        1.000000        0.00014653        0.00005068        0.00048819        0.00168837
     249         -0.404922        1.000000        0.00009733        0.00020025        0.00096546        0.00004914
     250         -0.402741        1.000000        0.00000925        0.00001186        0.00001802        0.00010965
     251         -0.402187        1.000000        0.00003151        0.00003799        0.00007471        0.00032736
     252         -0.402165        1.000000        0.00001973        0.00005083        0.00024696        0.00035259
     253         -0.401547        1.000000        0.00002627        0.00002955        0.00039623        0.00002457
     254         -0.399956        1.000000        0.00000243        0.00000251        0.00000813        0.00002713
     255         -0.399406        1.000000        0.00006438        0.00027327        0.00070234        0.00086263
     256         -0.398597        1.000000        0.00003057        0.00008764        0.00014864        0.00050602
     257         -0.397588        1.000000        0.00047736        0.00086091        0.00026266        0.00646862
     258         -0.397554        1.000000        0.00004368        0.00007539        0.00002548        0.00059451
     259         -0.397160        1.000000        0.01188506        0.02237721        0.00229076        0.17216078