# Projected DOS for atomic kind I at iteration step i = 0, E(Fermi) =    -0.111168 a.u.
#     MO Eigenvalue [a.u.]      Occupation                 s                py                pz                px
       1         -0.906229        1.000000        0.00002445        0.00012218        0.00000533        0.00001787
       2         -0.902011        1.000000        0.00009016        0.00006126        0.00000474        0.00035940
       3         -0.899768        1.000000        0.00035197        0.00055063        0.00019827        0.00001108
       4         -0.898956        1.000000        0.00008530        0.00004016        0.00030020        0.00003816
       5         -0.897436        1.000000        0.00002409        0.00009224        0.00000806        0.00006857
       6         -0.893488        1.000000        0.00002134        0.00012157        0.00002199        0.00000046
       7         -0.893314        1.000000        0.00013181        0.00001355        0.00006411        0.00050009
       8         -0.892228        1.000000        0.00000699        0.00001942        0.00003725        0.00002397
       9         -0.891855        1.000000        0.00006359        0.00002419        0.00023766        0.00003097
      10         -0.891604        1.000000        0.00004872        0.00014948        0.00010752        0.00008093
      11         -0.887061        1.000000        0.00001570        0.00002165        0.00004404        0.00005400
      12         -0.886307        1.000000        0.00006017        0.00003862        0.00009100        0.00015094
      13         -0.885528        1.000000        0.00024224        0.00059714        0.00026733        0.00020650
      14         -0.884536        1.000000        0.00003027        0.00012737        0.00004003        0.00005826
      15         -0.883183        1.000000        0.00018318        0.00036367        0.00023004        0.00020407
      16         -0.881886        1.000000        0.00007517        0.00006640        0.00014774        0.00013272
      17         -0.881072        1.000000        0.00011247        0.00000033        0.00049974        0.00005652
      18         -0.880815        1.000000        0.00012835        0.00044206        0.00004931        0.00005126
      19         -0.880151        1.000000        0.00017882        0.00008109        0.00045235        0.00006473
      20         -0.878676        1.000000        0.00012422        0.00010181        0.00005200        0.00023592
      21         -0.877396        1.000000        0.00009829        0.00002788        0.00001054        0.00037426
      22         -0.877141        1.000000        0.00000595        0.00002690        0.00000081        0.00001109
      23         -0.875955        1.000000        0.00046382        0.00001050        0.00066140        0.00009073
      24         -0.875899        1.000000        0.00004160        0.00009952        0.00003429        0.00011409
      25         -0.872960        1.000000        0.00002498        0.00003463        0.00007341        0.00006956
      26         -0.870595        1.000000        0.00014829        0.00025904        0.00003501        0.00002534
      27         -0.870520        1.000000        0.00055405        0.00012227        0.00138066        0.00007098
      28         -0.869499        1.000000        0.00022361        0.00027458        0.00055315        0.00024326
      29         -0.869167        1.000000        0.00014985        0.00007444        0.00026129        0.00019039
      30         -0.868231        1.000000        0.00006213        0.00004318        0.00003366        0.00023521
      31         -0.867351        1.000000        0.00013902        0.00020955        0.00004126        0.00024851
      32         -0.865917        1.000000        0.00020604        0.00020666        0.00000141        0.00013113
      33         -0.863792        1.000000        0.00001791        0.00001972        0.00002482        0.00006288
      34         -0.862569        1.000000        0.00005721        0.00013371        0.00004625        0.00005628
      35         -0.861565        1.000000        0.00007587        0.00000294        0.00012264        0.00019892
      36         -0.861384        1.000000        0.00004258        0.00007554        0.00004525        0.00008891
      37         -0.860832        1.000000        0.00021852        0.00009658        0.00022733        0.00026747
      38         -0.860061        1.000000        0.00011192        0.00014123        0.00024965        0.00004660
      39         -0.859984        1.000000        0.00013200        0.00002684        0.00022118        0.00023995
      40         -0.859942        1.000000        0.00096149        0.00001085        0.00133336        0.00001608
      41         -0.858807        1.000000        0.00004742        0.00010969        0.00002559        0.00009878
      42         -0.857688        1.000000        0.00013888        0.00005399        0.00006752        0.00024876
      43         -0.855725        1.000000        0.00004949        0.00004951        0.00001888        0.00005851
      44         -0.855265        1.000000        0.00022314        0.00019112        0.00006960        0.00031250
      45         -0.854546        1.000000        0.00001292        0.00020412        0.00001148        0.00004544
      46         -0.854081        1.000000        0.00036170        0.00002384        0.00047502        0.00006985
      47         -0.852687        1.000000        0.00160261        0.00031013        0.00323635        0.00032115
      48         -0.852463        1.000000        0.00012910        0.00003714        0.00024644        0.00008870
      49         -0.850443        1.000000        0.00112814        0.00001963        0.00129277        0.00012176
      50         -0.849476        1.000000        0.00084598        0.00005835        0.00046001        0.00081131
      51         -0.848522        1.000000        0.00013651        0.00023051        0.00021788        0.00003514
      52         -0.848463        1.000000        0.00003520        0.00008717        0.00012761        0.00004756
      53         -0.848364        1.000000        0.00004218        0.00006435        0.00007141        0.00003032
      54         -0.846974        1.000000        0.00010546        0.00003228        0.00012299        0.00015644
      55         -0.846330        1.000000        0.00029859        0.00025279        0.00002233        0.00016003
      56         -0.845537        1.000000        0.00000580        0.00000077        0.00000036        0.00001588
      57         -0.845446        1.000000        0.00008936        0.00004331        0.00018404        0.00005725
      58         -0.843877        1.000000        0.00001465        0.00002686        0.00000521        0.00006608
      59         -0.843168        1.000000        0.00001751        0.00001655        0.00009040        0.00001114
      60         -0.842759        1.000000        0.00000326        0.00000040        0.00001721        0.00001605
      61         -0.842650        1.000000        0.00013741        0.00025999        0.00010270        0.00020369
      62         -0.842256        1.000000        0.00039440        0.00011441        0.00051381        0.00056058
      63         -0.841264        1.000000        0.00005707        0.00003441        0.00007432        0.00009358
      64         -0.840214        1.000000        0.00005582        0.00004652        0.00002020        0.00016866
      65         -0.837594        1.000000        0.00050107        0.00044364        0.00007547        0.00014830
      66         -0.837527        1.000000        0.00007013        0.00000391        0.00002349        0.00018126
      67         -0.837245        1.000000        0.00107579        0.00007980        0.00053326        0.00098093
      68         -0.837111        1.000000        0.00053090        0.00006331        0.00059414        0.00000378
      69         -0.837058        1.000000        0.00000074        0.00000231        0.00000149        0.00000249
      70         -0.836314        1.000000        0.00003401        0.00001986        0.00017894        0.00000367
      71         -0.835576        1.000000        0.00030352        0.00003727        0.00053885        0.00002317
      72         -0.834939        1.000000        0.00001054        0.00005505        0.00004094        0.00001889
      73         -0.834233        1.000000        0.00030479        0.00014721        0.00021116        0.00023651
      74         -0.833619        1.000000        0.00070025        0.00058828        0.00012640        0.00017748
      75         -0.830626        1.000000        0.00288677        0.00028210        0.00515716        0.00010300
      76         -0.830612        1.000000        0.00122005        0.00017402        0.00223389        0.00004398
      77         -0.830142        1.000000        0.00006275        0.00008159        0.00005735        0.00008581
      78         -0.828566        1.000000        0.00000909        0.00008512        0.00003845        0.00000581
      79         -0.828323        1.000000        0.00017347        0.00017643        0.00015355        0.00014847
      80         -0.828086        1.000000        0.00048817        0.00004150        0.00051224        0.00002024
      81         -0.827138        1.000000        0.00110748        0.00104285        0.00033450        0.00044258
      82         -0.825986        1.000000        0.00134718        0.00105028        0.00015954        0.00026029
      83         -0.824255        1.000000        0.00003183        0.00001259        0.00002118        0.00008642
      84         -0.824186        1.000000        0.00054205        0.00004165        0.00036242        0.00037720
      85         -0.823340        1.000000        0.00028924        0.00003705        0.00055450        0.00001628
      86         -0.822306        1.000000        0.00001838        0.00001063        0.00001826        0.00001826
      87         -0.819530        1.000000        0.00001075        0.00003705        0.00000524        0.00002790
      88         -0.817999        1.000000        0.00004307        0.00002097        0.00000831        0.00011613
      89         -0.817505        1.000000        0.00148493        0.00106434        0.00019573        0.00024657
      90         -0.816929        1.000000        0.00029448        0.00008992        0.00025679        0.00001599
      91         -0.815376        1.000000        0.01091460        0.00019426        0.00615100        0.00623615
      92         -0.814795        1.000000        0.00122769        0.00081599        0.00017251        0.00021552
      93         -0.814747        1.000000        0.00037911        0.00009982        0.00032651        0.00060765
      94         -0.814638        1.000000        0.00011402        0.00010669        0.00018095        0.00001222
      95         -0.813569        1.000000        0.00247333        0.00230587        0.00051926        0.00076538
      96         -0.813454        1.000000        0.00001087        0.00000337        0.00002042        0.00003680
      97         -0.811324        1.000000        0.00017644        0.00001587        0.00012751        0.00015147
      98         -0.808512        1.000000        0.00004493        0.00007330        0.00005171        0.00005271
      99         -0.808315        1.000000        0.00000081        0.00000392        0.00000126        0.00000570
     100         -0.807191        1.000000        0.02823821        0.01778501        0.00263063        0.00378521
     101         -0.803634        1.000000        0.00020424        0.00001528        0.00017661        0.00005465
     102         -0.800437        1.000000        0.00449636        0.00408598        0.00075044        0.00101396
     103         -0.799960        1.000000        0.00009306        0.00001555        0.00035343        0.00005137
     104         -0.796070        1.000000        0.00003273        0.00002876        0.00007361        0.00003370
     105         -0.793523        1.000000        0.00006093        0.00009739        0.00007620        0.00004775
     106         -0.791372        1.000000        0.00000039        0.00001534        0.00000165        0.00000788
     107         -0.790678        1.000000        0.00001478        0.00002228        0.00004206        0.00001394
     108         -0.787351        1.000000        0.00006194        0.00007808        0.00004621        0.00002907
     109         -0.786916        1.000000        0.03579928        0.00051713        0.02258998        0.00151270
     110         -0.786487        1.000000        0.00000509        0.00002415        0.00000654        0.00000556
     111         -0.779709        1.000000        0.00094924        0.00084483        0.00117743        0.00032099
     112         -0.630417        1.000000        0.00216440        0.00031134        0.00036704        0.00014389
     113         -0.627283        1.000000        0.00308331        0.00036176        0.00044871        0.00013965
     114         -0.616952        1.000000        0.00249427        0.00042078        0.00056411        0.00043245
     115         -0.614874        1.000000        0.00091577        0.00013088        0.00011978        0.00025513
     116         -0.593016        1.000000        0.00417834        0.00008787        0.00022696        0.00037369
     117         -0.592772        1.000000        0.90002288        0.00021270        0.00141462        0.00059545
     118         -0.577770        1.000000        0.94301271        0.00026549        0.00649285        0.00546665
     119         -0.576063        1.000000        0.00405770        0.00038069        0.00019884        0.00030720
     120         -0.574103        1.000000        0.93310285        0.00138162        0.00454727        0.01376274
     121         -0.570753        1.000000        0.00958952        0.00031223        0.00025339        0.00028207
     122         -0.568747        1.000000        0.91777226        0.00102403        0.00131748        0.00296655
     123         -0.553952        1.000000        0.94771384        0.00045986        0.00078515        0.00053710
     124         -0.543590        1.000000        0.85037440        0.00376562        0.00656875        0.00344342
     125         -0.537672        1.000000        0.94290826        0.00154618        0.00504232        0.01197088
     126         -0.532880        1.000000        0.95265412        0.00032638        0.00097182        0.00027698
     127         -0.532379        1.000000        0.75835205        0.00457377        0.00372678        0.00209694
     128         -0.531128        1.000000        0.80024998        0.00350973        0.00301537        0.00198805
     129         -0.527802        1.000000        0.88748143        0.00147634        0.00530258        0.00431592
     130         -0.526313        1.000000        0.80679959        0.00338223        0.00347976        0.00179156
     131         -0.525284        1.000000        0.82607629        0.00388126        0.00533161        0.00272596
     132         -0.524916        1.000000        0.86837671        0.00290759        0.00321730        0.00232280
     133         -0.524104        1.000000        0.88234787        0.00167692        0.00196250        0.00146562
     134         -0.522859        1.000000        0.89039772        0.00122335        0.00110308        0.00158578
     135         -0.521135        1.000000        0.87325566        0.00110797        0.00149017        0.00111339
     136         -0.520704        1.000000        0.83686325        0.00124873        0.00138028        0.00122730
     137         -0.518501        1.000000        0.89243093        0.00098364        0.00197891        0.00434664
     138         -0.517134        1.000000        0.66005844        0.00233913        0.00078199        0.00179172
     139         -0.513743        1.000000        0.78930042        0.00120116        0.00270753        0.00142562
     140         -0.513442        1.000000        0.87278473        0.00126901        0.00180890        0.00130474
     141         -0.512403        1.000000        0.83691622        0.00270292        0.00268811        0.00113053
     142         -0.511980        1.000000        0.88117038        0.00177264        0.00081599        0.00068674
     143         -0.511180        1.000000        0.88027341        0.00311257        0.00217943        0.00182744
     144         -0.508735        1.000000        0.78870571        0.00095597        0.00238044        0.00134678
     145         -0.508014        1.000000        0.93980357        0.00013519        0.00078626        0.00056525
     146         -0.507298        1.000000        0.77439603        0.00094908        0.00091389        0.00098994
     147         -0.507097        1.000000        0.90195812        0.00074191        0.00025639        0.00037747
     148         -0.506756        1.000000        0.64922170        0.00111889        0.00095253        0.00112059
     149         -0.505738        1.000000        0.78023134        0.00074763        0.00055307        0.00107833
     150         -0.504724        1.000000        0.75251025        0.00100707        0.00093952        0.00156473
     151         -0.503790        1.000000        0.35117285        0.00190503        0.00054927        0.00083827
     152         -0.503130        1.000000        0.92517662        0.00010669        0.00087611        0.00023926
     153         -0.501974        1.000000        0.84207498        0.00189990        0.00026205        0.00181742
     154         -0.500484        1.000000        0.83640042        0.00206766        0.00049839        0.00044730
     155         -0.499215        1.000000        0.90075387        0.00111375        0.00040001        0.00035864
     156         -0.494404        1.000000        0.30804866        0.00298135        0.00201178        0.00115811
     157         -0.493101        1.000000        0.90025454        0.00079062        0.00088463        0.00087733
     158         -0.490430        1.000000        0.25404089        0.00247349        0.00246009        0.00274783
     159         -0.487925        1.000000        0.13344120        0.00409219        0.00153476        0.00116370
     160         -0.484372        1.000000        0.18363260        0.00045726        0.00421790        0.00250817
     161         -0.474225        1.000000        0.05957883        0.00211299        0.00153829        0.00179009
     162         -0.472411        1.000000        0.11958251        0.00164304        0.00082387        0.00033676
     163         -0.467611        1.000000        0.02255762        0.00129559        0.00135497        0.00170266
     164         -0.467257        1.000000        0.08247821        0.00118706        0.00019083        0.00381286
     165         -0.466394        1.000000        0.01575135        0.00314759        0.00006441        0.00052346
     166         -0.465444        1.000000        0.07237195        0.00252173        0.00060471        0.00357418
     167         -0.463578        1.000000        0.00122736        0.00067061        0.00053193        0.00011816
     168         -0.461164        1.000000        0.02603553        0.00122459        0.00377728        0.00061864
     169         -0.459876        1.000000        0.00382101        0.00035702        0.00049706        0.00186975
     170         -0.457909        1.000000        0.02452670        0.00259913        0.00085850        0.00328602
     171         -0.457140        1.000000        0.04812260        0.00134431        0.00080665        0.00350502
     172         -0.454620        1.000000        0.01343113        0.00022736        0.00552846        0.00006384
     173         -0.454557        1.000000        0.00215930        0.00065370        0.00021710        0.00008819
     174         -0.453293        1.000000        0.00697001        0.00090008        0.00145644        0.00068931
     175         -0.451986        1.000000        0.00304142        0.00152683        0.00036477        0.00011779
     176         -0.451650        1.000000        0.00139909        0.00041745        0.00040160        0.00028273
     177         -0.451124        1.000000        0.00309686        0.00031607        0.00106461        0.00052051
     178         -0.448386        1.000000        0.02308613        0.00094663        0.00063213        0.00286762
     179         -0.447956        1.000000        0.01102193        0.00318213        0.00143184        0.00138298
     180         -0.447381        1.000000        0.00230462        0.00017534        0.00101430        0.00116976
     181         -0.446051        1.000000        0.00500707        0.00010515        0.00022445        0.00062411
     182         -0.444604        1.000000        0.01428684        0.00152813        0.00211544        0.00289457
     183         -0.443529        1.000000        0.00336256        0.00045149        0.00319498        0.00023264
     184         -0.442578        1.000000        0.01267252        0.00040228        0.00658437        0.00139549
     185         -0.442058        1.000000        0.01265410        0.00181045        0.00080857        0.00218312
     186         -0.441615        1.000000        0.00057353        0.00051780        0.00005725        0.00037970
     187         -0.441565        1.000000        0.01502865        0.00275435        0.00024942        0.00226246
     188         -0.441209        1.000000        0.00382555        0.00037906        0.00054818        0.00109106
     189         -0.440943        1.000000        0.03354007        0.00279170        0.00074037        0.00079525
     190         -0.440780        1.000000        0.02653905        0.00103091        0.00034268        0.00646219
     191         -0.439772        1.000000        0.01929814        0.00279753        0.00013514        0.00383803
     192         -0.439643        1.000000        0.00043198        0.00023587        0.00018772        0.00034843
     193         -0.439468        1.000000        0.01552743        0.00083135        0.00029208        0.00167075
     194         -0.438766        1.000000        0.00113890        0.00020367        0.00001911        0.00011021
     195         -0.437781        1.000000        0.00597161        0.00023043        0.00062482        0.00079258
     196         -0.437088        1.000000        0.00930411        0.00125149        0.00087032        0.00215073
     197         -0.436981        1.000000        0.00052777        0.00018583        0.00014140        0.00049109
     198         -0.436264        1.000000        0.00463724        0.00028859        0.00006843        0.00052144
     199         -0.436228        1.000000        0.00054848        0.00004661        0.00029394        0.00117521
     200         -0.434519        1.000000        0.00430647        0.00316474        0.00028441        0.00073722
     201         -0.433651        1.000000        0.00082506        0.00006718        0.00004236        0.00043367
     202         -0.433395        1.000000        0.00492495        0.00081053        0.00079814        0.00204547
     203         -0.432893        1.000000        0.00128939        0.00166206        0.00048774        0.00036738
     204         -0.432315        1.000000        0.00606811        0.00029186        0.00070257        0.00114284
     205         -0.431074        1.000000        0.00409363        0.00145415        0.00016887        0.00109279
     206         -0.430777        1.000000        0.00196639        0.00561705        0.00043646        0.00093284
     207         -0.430194        1.000000        0.00540736        0.00103373        0.00037392        0.00208572
     208         -0.430141        1.000000        0.00365469        0.00095835        0.00075067        0.00278774
     209         -0.428751        1.000000        0.01432011        0.00151532        0.00180819        0.00142805
     210         -0.428715        1.000000        0.00131307        0.00126226        0.00063160        0.00328379
     211         -0.428257        1.000000        0.00108366        0.00010653        0.00014761        0.00020140
     212         -0.427617        1.000000        0.00132695        0.00061968        0.00295511        0.00234378
     213         -0.427504        1.000000        0.00191128        0.00170365        0.00091440        0.00036823
     214         -0.427280        1.000000        0.00046290        0.00005531        0.00009192        0.00085447
     215         -0.425210        1.000000        0.00043572        0.00016995        0.00063556        0.00045744
     216         -0.425118        1.000000        0.00125870        0.00033185        0.00033110        0.00022230
     217         -0.424987        1.000000        0.00336809        0.00117797        0.00212653        0.00074775
     218         -0.424859        1.000000        0.00748108        0.00170904        0.00319209        0.00036626
     219         -0.423450        1.000000        0.00026628        0.00026136        0.00022121        0.00053918
     220         -0.421971        1.000000        0.00044383        0.00091379        0.00009736        0.00021305
     221         -0.421818        1.000000        0.00252062        0.00061934        0.00018856        0.00172355
     222         -0.420486        1.000000        0.00226354        0.00123231        0.00025106        0.00055575
     223         -0.419904        1.000000        0.00071848        0.00008967        0.00044416        0.00009424
     224         -0.418928        1.000000        0.00081384        0.00147809        0.00030840        0.00014540
     225         -0.418212        1.000000        0.00105755        0.00042753        0.00064426        0.00088424
     226         -0.418139        1.000000        0.00141449        0.00229300        0.00014663        0.00029432
     227         -0.417896        1.000000        0.00065510        0.00033591        0.00009585        0.00017261
     228         -0.417423        1.000000        0.00963990        0.00100181        0.00248015        0.00180518
     229         -0.416896        1.000000        0.00149260        0.00029374        0.00041420        0.00048376
     230         -0.416379        1.000000        0.00308251        0.00067304        0.00031668        0.00037919
     231         -0.414900        1.000000        0.00229161        0.00044963        0.00005413        0.00029898
     232         -0.414682        1.000000        0.00077961        0.00026498        0.00044622        0.00106902
     233         -0.414340        1.000000        0.00240519        0.00105263        0.00028765        0.00080853
     234         -0.414234        1.000000        0.00232597        0.00142092        0.00313467        0.00218135
     235         -0.413972        1.000000        0.00419766        0.00115488        0.00369059        0.00155562
     236         -0.413211        1.000000        0.00040417        0.00029931        0.00016759        0.00048056
     237         -0.412848        1.000000        0.00237248        0.00030866        0.00028708        0.00171913
     238         -0.412768        1.000000        0.00062584        0.00016327        0.00072273        0.00038290
     239         -0.412386        1.000000        0.00018455        0.00007657        0.00007190        0.00032943
     240         -0.412105        1.000000        0.01374090        0.00374528        0.00770672        0.00691458
     241         -0.411498        1.000000        0.00324125        0.00295611        0.00310641        0.00131232
     242         -0.410757        1.000000        0.01191559        0.00304573        0.00643291        0.00471419
     243         -0.410509        1.000000        0.00341792        0.00116306        0.00242320        0.00084797
     244         -0.410267        1.000000        0.00208494        0.00081620        0.00095924        0.00187798
     245         -0.409240        1.000000        0.09088549        0.02201160        0.04630633        0.01845594
     246         -0.408473        1.000000        0.00428217        0.00197279        0.00190192        0.00500609
     247         -0.407763        1.000000        0.00393824        0.00328719        0.00227611        0.00138890
     248         -0.405404        1.000000        0.00526387        0.00076940        0.00054469        0.00603411
     249         -0.404502        1.000000        0.00037099        0.00009184        0.00052943        0.00003705
     250         -0.402621        1.000000        0.00063396        0.00017028        0.00013683        0.00264025
     251         -0.402183        1.000000        0.00175847        0.00050184        0.00096169        0.00211413
     252         -0.402142        1.000000        0.00126540        0.00035855        0.00152083        0.00032763
     253         -0.401512        1.000000        0.00046805        0.00026293        0.00033560        0.00007789
     254         -0.399956        1.000000        0.00062295        0.00015530        0.00065174        0.00040495
     255         -0.399477        1.000000        0.10770768        0.03861456        0.03699500        0.02713095
     256         -0.398608        1.000000        0.05485770        0.01837666        0.02483413        0.01618333
     257         -0.397591        1.000000        0.01286700        0.00529369        0.00668291        0.00598101
     258         -0.397526        1.000000        0.00045619        0.00019299        0.00053488        0.00321017
     259         -0.397178        1.000000        0.02835619        0.00785496        0.01203572        0.01244136