# Projected DOS for atomic kind I at iteration step i = 0, E(Fermi) =    -0.112191 a.u.
#     MO Eigenvalue [a.u.]      Occupation                 s                py                pz                px
       1         -0.906228        1.000000        0.00002444        0.00012218        0.00000533        0.00001787
       2         -0.902011        1.000000        0.00009017        0.00006126        0.00000474        0.00035940
       3         -0.899760        1.000000        0.00035205        0.00055072        0.00019822        0.00001109
       4         -0.898957        1.000000        0.00008527        0.00004016        0.00030016        0.00003815
       5         -0.897438        1.000000        0.00002419        0.00009229        0.00000805        0.00006860
       6         -0.893488        1.000000        0.00002132        0.00012156        0.00002199        0.00000046
       7         -0.893323        1.000000        0.00013191        0.00001354        0.00006413        0.00050024
       8         -0.892228        1.000000        0.00000699        0.00001942        0.00003725        0.00002397
       9         -0.891855        1.000000        0.00006359        0.00002419        0.00023766        0.00003097
      10         -0.891605        1.000000        0.00004867        0.00014950        0.00010750        0.00008086
      11         -0.887063        1.000000        0.00001573        0.00002166        0.00004404        0.00005403
      12         -0.886306        1.000000        0.00006017        0.00003862        0.00009100        0.00015094
      13         -0.885534        1.000000        0.00024225        0.00059718        0.00026733        0.00020651
      14         -0.884543        1.000000        0.00003037        0.00012748        0.00004008        0.00005822
      15         -0.883184        1.000000        0.00018321        0.00036370        0.00023004        0.00020409
      16         -0.881888        1.000000        0.00007517        0.00006640        0.00014774        0.00013272
      17         -0.881073        1.000000        0.00011248        0.00000033        0.00049975        0.00005653
      18         -0.880817        1.000000        0.00012844        0.00044202        0.00004929        0.00005130
      19         -0.880151        1.000000        0.00017781        0.00008102        0.00044989        0.00006474
      20         -0.878676        1.000000        0.00012421        0.00010181        0.00005199        0.00023591
      21         -0.877398        1.000000        0.00009830        0.00002788        0.00001054        0.00037428
      22         -0.877142        1.000000        0.00000595        0.00002690        0.00000081        0.00001109
      23         -0.875957        1.000000        0.00046085        0.00001001        0.00066056        0.00009114
      24         -0.875883        1.000000        0.00004039        0.00009995        0.00002973        0.00011319
      25         -0.872990        1.000000        0.00002662        0.00003416        0.00007485        0.00006893
      26         -0.870597        1.000000        0.00014582        0.00025920        0.00003456        0.00002495
      27         -0.870512        1.000000        0.00055232        0.00012199        0.00137168        0.00007119
      28         -0.869501        1.000000        0.00022363        0.00027458        0.00055317        0.00024326
      29         -0.869167        1.000000        0.00014984        0.00007444        0.00026129        0.00019038
      30         -0.868232        1.000000        0.00006214        0.00004318        0.00003365        0.00023522
      31         -0.867351        1.000000        0.00013903        0.00020952        0.00004130        0.00024852
      32         -0.865916        1.000000        0.00020600        0.00020662        0.00000141        0.00013110
      33         -0.863797        1.000000        0.00001866        0.00001970        0.00002729        0.00006444
      34         -0.862570        1.000000        0.00005704        0.00013370        0.00004602        0.00005629
      35         -0.862151        1.000000        0.00012098        0.00000824        0.00018201        0.00024000
      36         -0.861388        1.000000        0.00004233        0.00007649        0.00004306        0.00008885
      37         -0.860832        1.000000        0.00021855        0.00009659        0.00022733        0.00026749
      38         -0.860060        1.000000        0.00011064        0.00014114        0.00024695        0.00004639
      39         -0.859985        1.000000        0.00013199        0.00002684        0.00022115        0.00023992
      40         -0.859943        1.000000        0.00095010        0.00001078        0.00131881        0.00001595
      41         -0.858815        1.000000        0.00004743        0.00010993        0.00002564        0.00009859
      42         -0.857704        1.000000        0.00014565        0.00006022        0.00006947        0.00025238
      43         -0.855725        1.000000        0.00004947        0.00004949        0.00001889        0.00005851
      44         -0.855308        1.000000        0.00023431        0.00019989        0.00007256        0.00032008
      45         -0.854547        1.000000        0.00001292        0.00020413        0.00001147        0.00004545
      46         -0.854079        1.000000        0.00035653        0.00002385        0.00046883        0.00006958
      47         -0.852657        1.000000        0.00155163        0.00030242        0.00313260        0.00031441
      48         -0.852461        1.000000        0.00016829        0.00004441        0.00032711        0.00009478
      49         -0.850437        1.000000        0.00111840        0.00001942        0.00128225        0.00012095
      50         -0.849658        1.000000        0.00007187        0.00016583        0.00022226        0.00006026
      51         -0.849477        1.000000        0.00084633        0.00005859        0.00045997        0.00081142
      52         -0.848523        1.000000        0.00013696        0.00023077        0.00021837        0.00003505
      53         -0.848365        1.000000        0.00004230        0.00006459        0.00007157        0.00003042
      54         -0.846974        1.000000        0.00010705        0.00003329        0.00012337        0.00015764
      55         -0.846331        1.000000        0.00029851        0.00025272        0.00002233        0.00015998
      56         -0.845537        1.000000        0.00000580        0.00000077        0.00000036        0.00001588
      57         -0.845453        1.000000        0.00008987        0.00004333        0.00018474        0.00005724
      58         -0.843873        1.000000        0.00001466        0.00002687        0.00000521        0.00006609
      59         -0.843078        1.000000        0.00001694        0.00001675        0.00008716        0.00001066
      60         -0.842759        1.000000        0.00000326        0.00000040        0.00001721        0.00001605
      61         -0.842652        1.000000        0.00013758        0.00025999        0.00010274        0.00020375
      62         -0.842257        1.000000        0.00039443        0.00011446        0.00051383        0.00056053
      63         -0.841270        1.000000        0.00005961        0.00003779        0.00007545        0.00009362
      64         -0.840215        1.000000        0.00005585        0.00004652        0.00002020        0.00016867
      65         -0.837607        1.000000        0.00049951        0.00044372        0.00008186        0.00014527
      66         -0.837528        1.000000        0.00007049        0.00000416        0.00002355        0.00018130
      67         -0.837248        1.000000        0.00107551        0.00008144        0.00053258        0.00097983
      68         -0.837113        1.000000        0.00052593        0.00006329        0.00058886        0.00000380
      69         -0.837058        1.000000        0.00000070        0.00000231        0.00000144        0.00000249
      70         -0.836316        1.000000        0.00003405        0.00001987        0.00017949        0.00000352
      71         -0.835570        1.000000        0.00029419        0.00003681        0.00052186        0.00002278
      72         -0.835146        1.000000        0.00003266        0.00011386        0.00005103        0.00003085
      73         -0.834265        1.000000        0.00032939        0.00017057        0.00021908        0.00024583
      74         -0.833716        1.000000        0.00067567        0.00056708        0.00018146        0.00016362
      75         -0.832270        1.000000        0.00011638        0.00015695        0.00019213        0.00003561
      76         -0.830530        1.000000        0.00409101        0.00034931        0.00729409        0.00013886
      77         -0.830148        1.000000        0.00006270        0.00008161        0.00005728        0.00008593
      78         -0.828570        1.000000        0.00000942        0.00008583        0.00003982        0.00000606
      79         -0.828337        1.000000        0.00017299        0.00017627        0.00015309        0.00014817
      80         -0.828084        1.000000        0.00048175        0.00004141        0.00050604        0.00002014
      81         -0.827408        1.000000        0.00126200        0.00119395        0.00036946        0.00049164
      82         -0.825987        1.000000        0.00134641        0.00104962        0.00015951        0.00026006
      83         -0.824255        1.000000        0.00003200        0.00001269        0.00002134        0.00008647
      84         -0.824191        1.000000        0.00054381        0.00004169        0.00036354        0.00037823
      85         -0.823334        1.000000        0.00029827        0.00003779        0.00057125        0.00001661
      86         -0.822305        1.000000        0.00001832        0.00001060        0.00001820        0.00001820
      87         -0.819547        1.000000        0.00001079        0.00003718        0.00000520        0.00002793
      88         -0.818000        1.000000        0.00004309        0.00002099        0.00000831        0.00011614
      89         -0.817511        1.000000        0.00147938        0.00105899        0.00019750        0.00024774
      90         -0.816928        1.000000        0.00028986        0.00008986        0.00025277        0.00001587
      91         -0.815376        1.000000        0.01091442        0.00019433        0.00615085        0.00623604
      92         -0.814802        1.000000        0.00122734        0.00081176        0.00017672        0.00022315
      93         -0.814753        1.000000        0.00037953        0.00009897        0.00032778        0.00060997
      94         -0.814638        1.000000        0.00010955        0.00010317        0.00018130        0.00001167
      95         -0.814371        1.000000        0.00040784        0.00011502        0.00031683        0.00023506
      96         -0.814118        1.000000        0.00270094        0.00252225        0.00055579        0.00081612
      97         -0.813460        1.000000        0.00001090        0.00000338        0.00002039        0.00003680
      98         -0.808517        1.000000        0.00004615        0.00007399        0.00005175        0.00005302
      99         -0.808315        1.000000        0.00000081        0.00000392        0.00000126        0.00000570
     100         -0.807186        1.000000        0.02824492        0.01778872        0.00263056        0.00378534
     101         -0.803632        1.000000        0.00019736        0.00001518        0.00017145        0.00005440
     102         -0.801340        1.000000        0.00403105        0.00367442        0.00066360        0.00089338
     103         -0.797839        1.000000        0.00008559        0.00000546        0.00035761        0.00005128
     104         -0.797804        1.000000        0.00049846        0.00059984        0.00066881        0.00011521
     105         -0.796251        1.000000        0.00003250        0.00002856        0.00007327        0.00003345
     106         -0.793600        1.000000        0.00005903        0.00009726        0.00007529        0.00004764
     107         -0.791391        1.000000        0.00000040        0.00001533        0.00000165        0.00000790
     108         -0.790678        1.000000        0.00001478        0.00002228        0.00004206        0.00001394
     109         -0.787303        1.000000        0.00002970        0.00004099        0.00002010        0.00004483
     110         -0.786793        1.000000        0.00000699        0.00002399        0.00000734        0.00000549
     111         -0.786527        1.000000        0.03610508        0.00051968        0.02269423        0.00151773
     112         -0.630423        1.000000        0.00216451        0.00031137        0.00036704        0.00014390
     113         -0.627284        1.000000        0.00309357        0.00036182        0.00044878        0.00013968
     114         -0.616953        1.000000        0.00249498        0.00042080        0.00056412        0.00043246
     115         -0.614875        1.000000        0.00092471        0.00013096        0.00012005        0.00025531
     116         -0.593027        1.000000        0.00940475        0.00008629        0.00023239        0.00037413
     117         -0.592899        1.000000        0.89473488        0.00021348        0.00142011        0.00059705
     118         -0.577770        1.000000        0.94301411        0.00026552        0.00649261        0.00546583
     119         -0.576081        1.000000        0.00449618        0.00038635        0.00019915        0.00030636
     120         -0.574114        1.000000        0.93311952        0.00138134        0.00454883        0.01376627
     121         -0.570754        1.000000        0.00960485        0.00031219        0.00025351        0.00028206
     122         -0.568755        1.000000        0.91775792        0.00102277        0.00131574        0.00295951
     123         -0.554820        1.000000        0.94794995        0.00043796        0.00075565        0.00051699
     124         -0.543614        1.000000        0.85041250        0.00376528        0.00656662        0.00344084
     125         -0.537682        1.000000        0.94291732        0.00154596        0.00504820        0.01198308
     126         -0.532804        1.000000        0.95252975        0.00033441        0.00097636        0.00027777
     127         -0.532378        1.000000        0.75841493        0.00457261        0.00372467        0.00209407
     128         -0.531136        1.000000        0.79986849        0.00351817        0.00300823        0.00198898
     129         -0.527797        1.000000        0.88781965        0.00147167        0.00530613        0.00432255
     130         -0.526378        1.000000        0.80684707        0.00326207        0.00334645        0.00174025
     131         -0.525189        1.000000        0.81204444        0.00396081        0.00486492        0.00268666
     132         -0.524873        1.000000        0.88453732        0.00276380        0.00339816        0.00230818
     133         -0.524133        1.000000        0.88030502        0.00180128        0.00242521        0.00168040
     134         -0.523025        1.000000        0.89515014        0.00119512        0.00098916        0.00136240
     135         -0.521342        1.000000        0.87374700        0.00111223        0.00111069        0.00087857
     136         -0.520912        1.000000        0.87539420        0.00106758        0.00131053        0.00130828
     137         -0.519668        1.000000        0.88651987        0.00150630        0.00121203        0.00154830
     138         -0.518262        1.000000        0.89807766        0.00154037        0.00206486        0.00354131
     139         -0.517142        1.000000        0.66107681        0.00233384        0.00077981        0.00178683
     140         -0.513615        1.000000        0.78214591        0.00094858        0.00263410        0.00153547
     141         -0.513338        1.000000        0.85800813        0.00100390        0.00206198        0.00138397
     142         -0.512060        1.000000        0.88189095        0.00206060        0.00183112        0.00098799
     143         -0.511878        1.000000        0.86963012        0.00209474        0.00118598        0.00086497
     144         -0.510000        1.000000        0.86454753        0.00192773        0.00261690        0.00152398
     145         -0.508790        1.000000        0.79109663        0.00105335        0.00207930        0.00136273
     146         -0.508015        1.000000        0.93916962        0.00013331        0.00077077        0.00059074
     147         -0.507146        1.000000        0.78870072        0.00091397        0.00041880        0.00041957
     148         -0.506799        1.000000        0.60456816        0.00142455        0.00098585        0.00117954
     149         -0.505823        1.000000        0.84755633        0.00087096        0.00052949        0.00152604
     150         -0.504932        1.000000        0.70092452        0.00120336        0.00105718        0.00148496
     151         -0.503794        1.000000        0.35342246        0.00189907        0.00054912        0.00083729
     152         -0.503167        1.000000        0.92318787        0.00010843        0.00085511        0.00024408
     153         -0.502234        1.000000        0.84069711        0.00188314        0.00029264        0.00172108
     154         -0.500745        1.000000        0.83247127        0.00225925        0.00053649        0.00044193
     155         -0.499251        1.000000        0.90329189        0.00104556        0.00037472        0.00037754
     156         -0.494579        1.000000        0.58636328        0.00202953        0.00140364        0.00116249
     157         -0.494183        1.000000        0.62024735        0.00181220        0.00148111        0.00091868
     158         -0.490438        1.000000        0.25306977        0.00247651        0.00246292        0.00274695
     159         -0.487937        1.000000        0.13193154        0.00409611        0.00154757        0.00117261
     160         -0.484381        1.000000        0.18317103        0.00045575        0.00422428        0.00250989
     161         -0.474228        1.000000        0.05964818        0.00211286        0.00153761        0.00178976
     162         -0.472419        1.000000        0.11928325        0.00164802        0.00082489        0.00033794
     163         -0.467606        1.000000        0.02256451        0.00129507        0.00135343        0.00170222
     164         -0.467306        1.000000        0.08014445        0.00119360        0.00019167        0.00382349
     165         -0.466393        1.000000        0.01574897        0.00314742        0.00006440        0.00052340
     166         -0.465446        1.000000        0.07231318        0.00252124        0.00060452        0.00357519
     167         -0.463584        1.000000        0.00120590        0.00067231        0.00053305        0.00011836
     168         -0.461165        1.000000        0.02600986        0.00122486        0.00377787        0.00061881
     169         -0.459879        1.000000        0.00378366        0.00035760        0.00049668        0.00186924
     170         -0.457932        1.000000        0.02343194        0.00261437        0.00084688        0.00323083
     171         -0.457166        1.000000        0.04749705        0.00131923        0.00081701        0.00359811
     172         -0.454620        1.000000        0.01342139        0.00022713        0.00552953        0.00006403
     173         -0.454557        1.000000        0.00215824        0.00065373        0.00021690        0.00008819
     174         -0.453295        1.000000        0.00696888        0.00090004        0.00145629        0.00068930
     175         -0.451984        1.000000        0.00305012        0.00152628        0.00036421        0.00011774
     176         -0.451649        1.000000        0.00139880        0.00041744        0.00040160        0.00028275
     177         -0.451136        1.000000        0.00309435        0.00031608        0.00106342        0.00052085
     178         -0.448386        1.000000        0.02307996        0.00094658        0.00063221        0.00286787
     179         -0.447953        1.000000        0.01105609        0.00318141        0.00143237        0.00138058
     180         -0.447388        1.000000        0.00230564        0.00017552        0.00101430        0.00116981
     181         -0.446051        1.000000        0.00500755        0.00010521        0.00022453        0.00062418
     182         -0.444606        1.000000        0.01427116        0.00152881        0.00211508        0.00289737
     183         -0.443531        1.000000        0.00336348        0.00045171        0.00319676        0.00023260
     184         -0.442580        1.000000        0.01266149        0.00040236        0.00658582        0.00139584
     185         -0.442071        1.000000        0.01186879        0.00190175        0.00082679        0.00221658
     186         -0.441662        1.000000        0.01379688        0.00272873        0.00023530        0.00225409
     187         -0.441616        1.000000        0.00057489        0.00051786        0.00005716        0.00037934
     188         -0.441209        1.000000        0.00382500        0.00037902        0.00054825        0.00109174
     189         -0.440949        1.000000        0.03340841        0.00278783        0.00074444        0.00080553
     190         -0.440783        1.000000        0.02652650        0.00103005        0.00034340        0.00646764
     191         -0.439774        1.000000        0.01924951        0.00279677        0.00013555        0.00383939
     192         -0.439641        1.000000        0.00043318        0.00023597        0.00018789        0.00034873
     193         -0.439470        1.000000        0.01534559        0.00082778        0.00029341        0.00167310
     194         -0.438769        1.000000        0.00111633        0.00020336        0.00001901        0.00011014
     195         -0.437782        1.000000        0.00597196        0.00023043        0.00062486        0.00079240
     196         -0.437090        1.000000        0.00917490        0.00124822        0.00087067        0.00214116
     197         -0.436982        1.000000        0.00051830        0.00018504        0.00014107        0.00048964
     198         -0.436323        1.000000        0.00457584        0.00030141        0.00006705        0.00054031
     199         -0.436231        1.000000        0.00051586        0.00004499        0.00029685        0.00118030
     200         -0.434498        1.000000        0.00433025        0.00317222        0.00028516        0.00073523
     201         -0.433653        1.000000        0.00082497        0.00006729        0.00004238        0.00043363
     202         -0.433396        1.000000        0.00490258        0.00081217        0.00079873        0.00204500
     203         -0.432917        1.000000        0.00127907        0.00172732        0.00049510        0.00038640
     204         -0.432389        1.000000        0.00478935        0.00030060        0.00066654        0.00115521
     205         -0.431075        1.000000        0.00410198        0.00145371        0.00016903        0.00109560
     206         -0.430777        1.000000        0.00196785        0.00561707        0.00043550        0.00093685
     207         -0.430195        1.000000        0.00554936        0.00106748        0.00034759        0.00202936
     208         -0.430139        1.000000        0.00350690        0.00092273        0.00077565        0.00283065
     209         -0.428752        1.000000        0.01431207        0.00151561        0.00180844        0.00142847
     210         -0.428713        1.000000        0.00130813        0.00126203        0.00063148        0.00328330
     211         -0.428258        1.000000        0.00107473        0.00010574        0.00014776        0.00020272
     212         -0.427629        1.000000        0.00132697        0.00056576        0.00300387        0.00240843
     213         -0.427495        1.000000        0.00189964        0.00175607        0.00085746        0.00030722
     214         -0.427310        1.000000        0.00046518        0.00005583        0.00009177        0.00086359
     215         -0.425256        1.000000        0.00101765        0.00026988        0.00021227        0.00020007
     216         -0.425216        1.000000        0.00043303        0.00016940        0.00062723        0.00045267
     217         -0.424992        1.000000        0.00347009        0.00130320        0.00234628        0.00076818
     218         -0.424867        1.000000        0.00732738        0.00165378        0.00309577        0.00038309
     219         -0.423448        1.000000        0.00026321        0.00026195        0.00022149        0.00053981
     220         -0.421972        1.000000        0.00044420        0.00091403        0.00009767        0.00021309
     221         -0.421818        1.000000        0.00252245        0.00061956        0.00018826        0.00172470
     222         -0.420487        1.000000        0.00224925        0.00123356        0.00025251        0.00055653
     223         -0.419895        1.000000        0.00071531        0.00008929        0.00044144        0.00009369
     224         -0.418928        1.000000        0.00081370        0.00147815        0.00030859        0.00014535
     225         -0.418211        1.000000        0.00105624        0.00042730        0.00064451        0.00088329
     226         -0.418139        1.000000        0.00141349        0.00229139        0.00014688        0.00029451
     227         -0.417898        1.000000        0.00065465        0.00033778        0.00009584        0.00017255
     228         -0.417423        1.000000        0.00963792        0.00100170        0.00247988        0.00180471
     229         -0.416899        1.000000        0.00151350        0.00029686        0.00041637        0.00048471
     230         -0.416387        1.000000        0.00304914        0.00067994        0.00031955        0.00038414
     231         -0.414922        1.000000        0.00218119        0.00050214        0.00004940        0.00032669
     232         -0.414683        1.000000        0.00076738        0.00026590        0.00044950        0.00107652
     233         -0.414383        1.000000        0.00185844        0.00108426        0.00027324        0.00077237
     234         -0.414234        1.000000        0.00230241        0.00142147        0.00314164        0.00218369
     235         -0.413971        1.000000        0.00420731        0.00115566        0.00370229        0.00156059
     236         -0.413269        1.000000        0.00039886        0.00028800        0.00016953        0.00047449
     237         -0.412848        1.000000        0.00235050        0.00031011        0.00029453        0.00170992
     238         -0.412772        1.000000        0.00062287        0.00016531        0.00071772        0.00039455
     239         -0.412392        1.000000        0.00018554        0.00008433        0.00006971        0.00034299
     240         -0.412107        1.000000        0.01381449        0.00376746        0.00775753        0.00694030
     241         -0.411503        1.000000        0.00324011        0.00295425        0.00310365        0.00131043
     242         -0.410759        1.000000        0.01199979        0.00306632        0.00648249        0.00473254
     243         -0.410509        1.000000        0.00342457        0.00116741        0.00243091        0.00084837
     244         -0.410262        1.000000        0.00211530        0.00082869        0.00098506        0.00188905
     245         -0.409247        1.000000        0.09064271        0.02197002        0.04624015        0.01839221
     246         -0.408474        1.000000        0.00423485        0.00194533        0.00187725        0.00498456
     247         -0.407764        1.000000        0.00391513        0.00328247        0.00226845        0.00138413
     248         -0.405409        1.000000        0.00519434        0.00077619        0.00054981        0.00604129
     249         -0.404922        1.000000        0.00035399        0.00009614        0.00066589        0.00004575
     250         -0.402741        1.000000        0.00061866        0.00016340        0.00012325        0.00266224
     251         -0.402187        1.000000        0.00174562        0.00050823        0.00113251        0.00185747
     252         -0.402165        1.000000        0.00114233        0.00033259        0.00127507        0.00051891
     253         -0.401547        1.000000        0.00051553        0.00026485        0.00038725        0.00009536
     254         -0.399956        1.000000        0.00059593        0.00014605        0.00064376        0.00039831
     255         -0.399406        1.000000        0.10481225        0.03762907        0.03675304        0.02665002
     256         -0.398597        1.000000        0.05664500        0.01909961        0.02508427        0.01640583
     257         -0.397588        1.000000        0.01111031        0.00485533        0.00579532        0.00535162
     258         -0.397554        1.000000        0.00128461        0.00056793        0.00092472        0.00331573
     259         -0.397160        1.000000        0.02786932        0.00777868        0.01192959        0.01245466