# Projected DOS for atomic kind H at iteration step i = 0, E(Fermi) =    -0.111168 a.u.
#     MO Eigenvalue [a.u.]      Occupation                 s
       1         -0.906229        1.000000        0.25648624
       2         -0.902011        1.000000        0.25480896
       3         -0.899768        1.000000        0.24937426
       4         -0.898956        1.000000        0.25891758
       5         -0.897436        1.000000        0.25448443
       6         -0.893488        1.000000        0.25549823
       7         -0.893314        1.000000        0.25680906
       8         -0.892228        1.000000        0.25406960
       9         -0.891855        1.000000        0.25359936
      10         -0.891604        1.000000        0.25238051
      11         -0.887061        1.000000        0.25546804
      12         -0.886307        1.000000        0.25674577
      13         -0.885528        1.000000        0.28226831
      14         -0.884536        1.000000        0.28563370
      15         -0.883183        1.000000        0.28221623
      16         -0.881886        1.000000        0.25692020
      17         -0.881072        1.000000        0.25653386
      18         -0.880815        1.000000        0.25628794
      19         -0.880151        1.000000        0.27625269
      20         -0.878676        1.000000        0.28168606
      21         -0.877396        1.000000        0.25668441
      22         -0.877141        1.000000        0.26470726
      23         -0.875955        1.000000        0.25479496
      24         -0.875899        1.000000        0.25564239
      25         -0.872960        1.000000        0.25426209
      26         -0.870595        1.000000        0.25585453
      27         -0.870520        1.000000        0.25085749
      28         -0.869499        1.000000        0.28001664
      29         -0.869167        1.000000        0.26722060
      30         -0.868231        1.000000        0.26617508
      31         -0.867351        1.000000        0.26576358
      32         -0.865917        1.000000        0.26332654
      33         -0.863792        1.000000        0.25960814
      34         -0.862569        1.000000        0.26709602
      35         -0.861565        1.000000        0.28125377
      36         -0.861384        1.000000        0.24889722
      37         -0.860832        1.000000        0.25073819
      38         -0.860061        1.000000        0.24996687
      39         -0.859984        1.000000        0.26715654
      40         -0.859942        1.000000        0.26805397
      41         -0.858807        1.000000        0.24371722
      42         -0.857688        1.000000        0.27537390
      43         -0.855725        1.000000        0.26144540
      44         -0.855265        1.000000        0.26941467
      45         -0.854546        1.000000        0.24557073
      46         -0.854081        1.000000        0.25111541
      47         -0.852687        1.000000        0.26033220
      48         -0.852463        1.000000        0.25638768
      49         -0.850443        1.000000        0.22385088
      50         -0.849476        1.000000        0.23577237
      51         -0.848522        1.000000        0.26104115
      52         -0.848463        1.000000        0.25568812
      53         -0.848364        1.000000        0.23792441
      54         -0.846974        1.000000        0.25191561
      55         -0.846330        1.000000        0.25515129
      56         -0.845537        1.000000        0.24751212
      57         -0.845446        1.000000        0.24235983
      58         -0.843877        1.000000        0.24876363
      59         -0.843168        1.000000        0.25000030
      60         -0.842759        1.000000        0.25671150
      61         -0.842650        1.000000        0.24654473
      62         -0.842256        1.000000        0.23839601
      63         -0.841264        1.000000        0.24331852
      64         -0.840214        1.000000        0.25609396
      65         -0.837594        1.000000        0.25489414
      66         -0.837527        1.000000        0.23889280
      67         -0.837245        1.000000        0.21073455
      68         -0.837111        1.000000        0.22960957
      69         -0.837058        1.000000        0.25520576
      70         -0.836314        1.000000        0.25752588
      71         -0.835576        1.000000        0.21272465
      72         -0.834939        1.000000        0.24202710
      73         -0.834233        1.000000        0.22724289
      74         -0.833619        1.000000        0.24262667
      75         -0.830626        1.000000        0.19483459
      76         -0.830612        1.000000        0.21247671
      77         -0.830142        1.000000        0.19316147
      78         -0.828566        1.000000        0.24425486
      79         -0.828323        1.000000        0.24554472
      80         -0.828086        1.000000        0.21645799
      81         -0.827138        1.000000        0.21912253
      82         -0.825986        1.000000        0.21993630
      83         -0.824255        1.000000        0.24232162
      84         -0.824186        1.000000        0.18833697
      85         -0.823340        1.000000        0.18944371
      86         -0.822306        1.000000        0.25415911
      87         -0.819530        1.000000        0.25301963
      88         -0.817999        1.000000        0.22607917
      89         -0.817505        1.000000        0.22461444
      90         -0.816929        1.000000        0.20107255
      91         -0.815376        1.000000        0.16470269
      92         -0.814795        1.000000        0.21958740
      93         -0.814747        1.000000        0.20889795
      94         -0.814638        1.000000        0.25541521
      95         -0.813569        1.000000        0.19632794
      96         -0.813454        1.000000        0.24737811
      97         -0.811324        1.000000        0.19250304
      98         -0.808512        1.000000        0.24017363
      99         -0.808315        1.000000        0.24913919
     100         -0.807191        1.000000        0.12600157
     101         -0.803634        1.000000        0.18547551
     102         -0.800437        1.000000        0.16601658
     103         -0.799960        1.000000        0.23551659
     104         -0.796070        1.000000        0.24466190
     105         -0.793523        1.000000        0.24513653
     106         -0.791372        1.000000        0.24108064
     107         -0.790678        1.000000        0.24634916
     108         -0.787351        1.000000        0.19912866
     109         -0.786916        1.000000        0.08777508
     110         -0.786487        1.000000        0.24283089
     111         -0.779709        1.000000        0.17627903
     112         -0.630417        1.000000        0.34387737
     113         -0.627283        1.000000        0.34301299
     114         -0.616952        1.000000        0.34993947
     115         -0.614874        1.000000        0.37135476
     116         -0.593016        1.000000        0.34839929
     117         -0.592772        1.000000        0.01451868
     118         -0.577770        1.000000        0.00541310
     119         -0.576063        1.000000        0.36790033
     120         -0.574103        1.000000        0.00874679
     121         -0.570753        1.000000        0.37043000
     122         -0.568747        1.000000        0.01147256
     123         -0.553952        1.000000        0.00427605
     124         -0.543590        1.000000        0.00853404
     125         -0.537672        1.000000        0.00870463
     126         -0.532880        1.000000        0.00310725
     127         -0.532379        1.000000        0.06584052
     128         -0.531128        1.000000        0.04522879
     129         -0.527802        1.000000        0.02864857
     130         -0.526313        1.000000        0.04157796
     131         -0.525284        1.000000        0.02234663
     132         -0.524916        1.000000        0.01836802
     133         -0.524104        1.000000        0.02497682
     134         -0.522859        1.000000        0.02392107
     135         -0.521135        1.000000        0.02858800
     136         -0.520704        1.000000        0.04538952
     137         -0.518501        1.000000        0.02771780
     138         -0.517134        1.000000        0.11746226
     139         -0.513743        1.000000        0.05398735
     140         -0.513442        1.000000        0.02762611
     141         -0.512403        1.000000        0.03322977
     142         -0.511980        1.000000        0.02754938
     143         -0.511180        1.000000        0.01836507
     144         -0.508735        1.000000        0.05837272
     145         -0.508014        1.000000        0.00606492
     146         -0.507298        1.000000        0.06834535
     147         -0.507097        1.000000        0.02929456
     148         -0.506756        1.000000        0.10680921
     149         -0.505738        1.000000        0.06407835
     150         -0.504724        1.000000        0.07923962
     151         -0.503790        1.000000        0.20343542
     152         -0.503130        1.000000        0.01699908
     153         -0.501974        1.000000        0.05601619
     154         -0.500484        1.000000        0.05006573
     155         -0.499215        1.000000        0.03480775
     156         -0.494404        1.000000        0.20559610
     157         -0.493101        1.000000        0.02262552
     158         -0.490430        1.000000        0.22516551
     159         -0.487925        1.000000        0.27606485
     160         -0.484372        1.000000        0.25054756
     161         -0.474225        1.000000        0.31338551
     162         -0.472411        1.000000        0.28464018
     163         -0.467611        1.000000        0.31597407
     164         -0.467257        1.000000        0.29113251
     165         -0.466394        1.000000        0.34718210
     166         -0.465444        1.000000        0.32426164
     167         -0.463578        1.000000        0.35348143
     168         -0.461164        1.000000        0.34067700
     169         -0.459876        1.000000        0.34958845
     170         -0.457909        1.000000        0.34640224
     171         -0.457140        1.000000        0.33935802
     172         -0.454620        1.000000        0.35269370
     173         -0.454557        1.000000        0.35038145
     174         -0.453293        1.000000        0.33434822
     175         -0.451986        1.000000        0.35477818
     176         -0.451650        1.000000        0.35395610
     177         -0.451124        1.000000        0.33819210
     178         -0.448386        1.000000        0.34867828
     179         -0.447956        1.000000        0.34381247
     180         -0.447381        1.000000        0.35612765
     181         -0.446051        1.000000        0.34324288
     182         -0.444604        1.000000        0.34962587
     183         -0.443529        1.000000        0.34339549
     184         -0.442578        1.000000        0.34611254
     185         -0.442058        1.000000        0.33775636
     186         -0.441615        1.000000        0.34679638
     187         -0.441565        1.000000        0.33055517
     188         -0.441209        1.000000        0.33702313
     189         -0.440943        1.000000        0.33530331
     190         -0.440780        1.000000        0.34585302
     191         -0.439772        1.000000        0.34020331
     192         -0.439643        1.000000        0.33191615
     193         -0.439468        1.000000        0.33989194
     194         -0.438766        1.000000        0.35473518
     195         -0.437781        1.000000        0.33306229
     196         -0.437088        1.000000        0.34399517
     197         -0.436981        1.000000        0.34675005
     198         -0.436264        1.000000        0.34799094
     199         -0.436228        1.000000        0.34242947
     200         -0.434519        1.000000        0.35529881
     201         -0.433651        1.000000        0.34061332
     202         -0.433395        1.000000        0.34200134
     203         -0.432893        1.000000        0.33970279
     204         -0.432315        1.000000        0.34154061
     205         -0.431074        1.000000        0.34316959
     206         -0.430777        1.000000        0.36001794
     207         -0.430194        1.000000        0.34663086
     208         -0.430141        1.000000        0.34860502
     209         -0.428751        1.000000        0.33712822
     210         -0.428715        1.000000        0.33412608
     211         -0.428257        1.000000        0.34795795
     212         -0.427617        1.000000        0.33965434
     213         -0.427504        1.000000        0.33945082
     214         -0.427280        1.000000        0.33337268
     215         -0.425210        1.000000        0.34247052
     216         -0.425118        1.000000        0.34091078
     217         -0.424987        1.000000        0.34126208
     218         -0.424859        1.000000        0.34303897
     219         -0.423450        1.000000        0.33574454
     220         -0.421971        1.000000        0.33977201
     221         -0.421818        1.000000        0.33865619
     222         -0.420486        1.000000        0.34853777
     223         -0.419904        1.000000        0.35481902
     224         -0.418928        1.000000        0.34888346
     225         -0.418212        1.000000        0.34783914
     226         -0.418139        1.000000        0.34805997
     227         -0.417896        1.000000        0.33090953
     228         -0.417423        1.000000        0.33923991
     229         -0.416896        1.000000        0.32897207
     230         -0.416379        1.000000        0.33561033
     231         -0.414900        1.000000        0.33676877
     232         -0.414682        1.000000        0.34737816
     233         -0.414340        1.000000        0.34020805
     234         -0.414234        1.000000        0.33071292
     235         -0.413972        1.000000        0.33351003
     236         -0.413211        1.000000        0.34039602
     237         -0.412848        1.000000        0.34659901
     238         -0.412768        1.000000        0.34586242
     239         -0.412386        1.000000        0.34144277
     240         -0.412105        1.000000        0.32178368
     241         -0.411498        1.000000        0.18628675
     242         -0.410757        1.000000        0.31459170
     243         -0.410509        1.000000        0.33461476
     244         -0.410267        1.000000        0.34604733
     245         -0.409240        1.000000        0.10606975
     246         -0.408473        1.000000        0.33236311
     247         -0.407763        1.000000        0.19209437
     248         -0.405404        1.000000        0.34142126
     249         -0.404502        1.000000        0.35241242
     250         -0.402621        1.000000        0.33905722
     251         -0.402183        1.000000        0.33677460
     252         -0.402142        1.000000        0.34309834
     253         -0.401512        1.000000        0.35521377
     254         -0.399956        1.000000        0.36690453
     255         -0.399477        1.000000        0.05777802
     256         -0.398608        1.000000        0.19750760
     257         -0.397591        1.000000        0.30201395
     258         -0.397526        1.000000        0.35326099
     259         -0.397178        1.000000        0.16859769
     260         -0.396101        1.000000        0.18757768
     261         -0.395865        1.000000        0.31457626
     262         -0.395150        1.000000        0.22434317
     263         -0.394178        1.000000        0.15294447
     264         -0.392957        1.000000        0.25302839
     265         -0.392851        1.000000        0.34256228
     266         -0.392590        1.000000        0.36255526
     267         -0.391742        1.000000        0.34679428
     268         -0.391161        1.000000        0.20564550
     269         -0.390083        1.000000        0.16411150
     270         -0.390001        1.000000        0.10153733
     271         -0.388739        1.000000        0.07581106
     272         -0.387393        1.000000        0.02223916
     273         -0.386558        1.000000        0.33298978
     274         -0.383269        1.000000        0.32758104
     275         -0.381251        1.000000        0.36845514
     276         -0.379695        1.000000        0.36092770
     277         -0.378677        1.000000        0.06674939
     278         -0.378080        1.000000        0.28326954
     279         -0.377843        1.000000        0.36219163
     280         -0.376485        1.000000        0.35006583
     281         -0.376159        1.000000        0.18735456
     282         -0.375762        1.000000        0.34824071
     283         -0.372822        1.000000        0.19596970
     284         -0.362151        1.000000        0.34661343
     285         -0.360514        1.000000        0.35786089
     286         -0.357815        1.000000        0.35042310
     287         -0.356903        1.000000        0.35849513
     288         -0.350207        1.000000        0.17934529
     289         -0.348978        1.000000        0.17533221
     290         -0.347892        1.000000        0.42370149
     291         -0.346609        1.000000        0.35443040
     292         -0.344212        1.000000        0.41154229
     293         -0.343515        1.000000        0.41695201
     294         -0.342518        1.000000        0.19578740
     295         -0.342288        1.000000        0.41565632
     296         -0.338847        1.000000        0.21301180
     297         -0.338049        1.000000        0.37745636
     298         -0.336370        1.000000        0.42459052
     299         -0.332943        1.000000        0.41989377
     300         -0.327190        1.000000        0.15877639
     301         -0.323196        1.000000        0.14645366
     302         -0.322806        1.000000        0.17799301
     303         -0.321144        1.000000        0.21104254
     304         -0.319019        1.000000        0.17216132
     305         -0.316677        1.000000        0.25614263
     306         -0.316313        1.000000        0.17085769
     307         -0.313312        1.000000        0.21938149
     308         -0.312787        1.000000        0.15417082
     309         -0.311880        1.000000        0.15602219
     310         -0.311039        1.000000        0.14880069
     311         -0.310588        1.000000        0.12573747
     312         -0.308419        1.000000        0.37099554
     313         -0.307737        1.000000        0.31334393
     314         -0.306170        1.000000        0.33740477
     315         -0.301849        1.000000        0.14600652
     316         -0.301592        1.000000        0.15283861
     317         -0.300294        1.000000        0.12188342
     318         -0.299325        1.000000        0.13117342
     319         -0.298906        1.000000        0.41584796
     320         -0.298547        1.000000        0.13521736
     321         -0.296499        1.000000        0.39021974
     322         -0.296091        1.000000        0.13012578
     323         -0.295000        1.000000        0.13511521
     324         -0.292109        1.000000        0.11146226
     325         -0.291210        1.000000        0.11067489
     326         -0.290937        1.000000        0.03960105
     327         -0.286515        1.000000        0.07387577
     328         -0.286026        1.000000        0.12050852
     329         -0.285947        1.000000        0.11772826
     330         -0.285868        1.000000        0.13992776
     331         -0.283881        1.000000        0.11154767
     332         -0.283738        1.000000        0.10835441
     333         -0.283410        1.000000        0.13973208
     334         -0.282765        1.000000        0.11256886
     335         -0.281177        1.000000        0.11112752
     336         -0.280523        1.000000        0.12537951
     337         -0.278135        1.000000        0.11302875
     338         -0.276742        1.000000        0.11486920
     339         -0.275725        1.000000        0.10370626
     340         -0.273555        1.000000        0.10834932
     341         -0.272743        1.000000        0.09744880
     342         -0.271805        1.000000        0.01792734
     343         -0.269071        1.000000        0.04882776
     344         -0.268921        1.000000        0.13676789
     345         -0.266538        1.000000        0.08462455
     346         -0.265705        1.000000        0.10190612
     347         -0.264555        1.000000        0.09035784
     348         -0.261904        1.000000        0.03373437
     349         -0.261267        1.000000        0.07991259
     350         -0.260953        1.000000        0.08094208
     351         -0.259268        1.000000        0.08181752
     352         -0.258705        1.000000        0.08818005
     353         -0.257484        1.000000        0.09656482
     354         -0.257218        1.000000        0.08699465
     355         -0.256952        1.000000        0.09435003
     356         -0.254098        1.000000        0.07459787
     357         -0.252859        1.000000        0.06426094
     358         -0.249628        1.000000        0.08289993
     359         -0.249074        1.000000        0.08832294
     360         -0.248680        1.000000        0.07805635
     361         -0.246782        1.000000        0.07893464
     362         -0.242838        1.000000        0.04387010
     363         -0.241987        1.000000        0.04639856
     364         -0.241142        1.000000        0.05493084
     365         -0.240387        1.000000        0.07902739
     366         -0.240180        1.000000        0.06133037
     367         -0.238988        1.000000        0.08159086
     368         -0.237303        1.000000        0.05843863
     369         -0.236905        1.000000        0.05690217
     370         -0.235487        1.000000        0.06613965
     371         -0.235278        1.000000        0.07216564
     372         -0.233992        1.000000        0.08014794
     373         -0.233879        1.000000        0.06793031
     374         -0.233472        1.000000        0.04491925
     375         -0.231530        1.000000        0.02745758
     376         -0.229258        1.000000        0.08303338
     377         -0.227693        1.000000        0.02253263
     378         -0.227481        1.000000        0.05796371
     379         -0.227287        1.000000        0.04928657
     380         -0.224300        1.000000        0.00572752
     381         -0.223759        1.000000        0.03952553
     382         -0.223385        1.000000        0.02536755
     383         -0.223014        1.000000        0.02005367
     384         -0.221865        1.000000        0.02138378
     385         -0.220738        1.000000        0.03800822
     386         -0.220514        1.000000        0.02135874
     387         -0.220253        1.000000        0.02688234
     388         -0.218539        1.000000        0.01476064
     389         -0.217414        1.000000        0.08474027
     390         -0.217134        1.000000        0.07085346
     391         -0.215749        1.000000        0.00223762
     392         -0.215573        1.000000        0.04492904
     393         -0.215047        1.000000        0.01163888
     394         -0.214635        1.000000        0.02054365
     395         -0.214278        1.000000        0.01608718
     396         -0.214101        1.000000        0.03943793
     397         -0.213987        1.000000        0.04372104
     398         -0.213328        1.000000        0.01605713
     399         -0.213015        1.000000        0.02980004
     400         -0.212359        1.000000        0.01682638
     401         -0.211874        1.000000        0.01363254
     402         -0.211641        1.000000        0.01818772
     403         -0.210516        1.000000        0.02001489
     404         -0.210229        1.000000        0.02988076
     405         -0.209261        1.000000        0.01280965
     406         -0.208674        1.000000        0.01587721
     407         -0.208565        1.000000        0.07228407
     408         -0.207396        1.000000        0.02860065
     409         -0.207183        1.000000        0.00650356
     410         -0.206780        1.000000        0.02962135
     411         -0.206029        1.000000        0.01201424
     412         -0.205938        1.000000        0.01051205
     413         -0.205391        1.000000        0.01353993
     414         -0.204362        1.000000        0.00634930
     415         -0.204063        1.000000        0.01162138
     416         -0.203190        1.000000        0.00969653
     417         -0.202249        1.000000        0.00705207
     418         -0.201866        1.000000        0.00947172
     419         -0.201718        1.000000        0.01127207
     420         -0.201573        1.000000        0.00981526
     421         -0.201337        1.000000        0.01846365
     422         -0.200880        1.000000        0.02167370
     423         -0.200457        1.000000        0.00884096
     424         -0.200033        1.000000        0.00774597
     425         -0.199664        1.000000        0.00709584
     426         -0.199400        1.000000        0.00846116
     427         -0.198742        1.000000        0.01885645
     428         -0.198480        1.000000        0.01382516
     429         -0.198291        1.000000        0.00768175
     430         -0.197751        1.000000        0.05437883
     431         -0.197486        1.000000        0.01335865
     432         -0.197342        1.000000        0.01570974
     433         -0.197033        1.000000        0.01138717
     434         -0.196063        1.000000        0.02198642
     435         -0.195898        1.000000        0.01231981
     436         -0.195767        1.000000        0.00881528
     437         -0.195402        1.000000        0.00455873
     438         -0.194965        1.000000        0.00642848
     439         -0.194347        1.000000        0.01181112
     440         -0.194013        1.000000        0.01065927
     441         -0.193582        1.000000        0.01182934
     442         -0.193361        1.000000        0.00865151
     443         -0.193228        1.000000        0.00575389
     444         -0.192885        1.000000        0.00574815
     445         -0.192281        1.000000        0.01349193
     446         -0.191868        1.000000        0.04196738
     447         -0.191195        1.000000        0.01283149
     448         -0.190762        1.000000        0.00702205
     449         -0.189914        1.000000        0.00810322
     450         -0.189643        1.000000        0.00856558
     451         -0.189504        1.000000        0.00379403
     452         -0.188896        1.000000        0.00527777
     453         -0.188660        1.000000        0.00369482
     454         -0.188226        1.000000        0.00452422
     455         -0.187644        1.000000        0.00361561
     456         -0.186786        1.000000        0.01005371
     457         -0.186647        1.000000        0.01306367
     458         -0.186543        1.000000        0.00868221
     459         -0.186481        1.000000        0.01728430
     460         -0.185909        1.000000        0.00718898
     461         -0.185734        1.000000        0.00809864
     462         -0.185023        1.000000        0.00696139
     463         -0.184475        1.000000        0.00543903
     464         -0.184211        1.000000        0.00994662
     465         -0.183922        1.000000        0.00465244
     466         -0.183726        1.000000        0.00740779
     467         -0.182749        1.000000        0.00910910
     468         -0.182143        1.000000        0.00563270
     469         -0.181655        1.000000        0.01230065
     470         -0.180970        1.000000        0.02694236
     471         -0.180797        1.000000        0.03230047
     472         -0.180456        1.000000        0.01566837
     473         -0.180227        1.000000        0.01321197
     474         -0.179540        1.000000        0.00704406
     475         -0.179276        1.000000        0.00805399
     476         -0.178918        1.000000        0.00463616
     477         -0.178570        1.000000        0.00411732
     478         -0.178161        1.000000        0.00855402
     479         -0.177863        1.000000        0.00463589
     480         -0.177695        1.000000        0.00339395
     481         -0.177530        1.000000        0.00503055
     482         -0.176620        1.000000        0.00342718
     483         -0.176367        1.000000        0.00487138
     484         -0.176083        1.000000        0.00505702
     485         -0.175991        1.000000        0.00588111
     486         -0.175600        1.000000        0.00247126
     487         -0.175174        1.000000        0.00597621
     488         -0.174787        1.000000        0.00322674
     489         -0.174093        1.000000        0.00217955