# Projected DOS for atomic kind N at iteration step i = 0, E(Fermi) =    -0.112191 a.u.
#     MO Eigenvalue [a.u.]      Occupation                 s                py                pz                px
       1         -0.906228        1.000000        0.00000018        0.00000001        0.00000000        0.00000000
       2         -0.902011        1.000000        0.00000004        0.00000001        0.00000000        0.00000000
       3         -0.899760        1.000000        0.00000079        0.00000004        0.00000000        0.00000005
       4         -0.898957        1.000000        0.00000015        0.00000000        0.00000000        0.00000000
       5         -0.897438        1.000000        0.00000668        0.00000033        0.00000000        0.00000002
       6         -0.893488        1.000000        0.00000020        0.00000001        0.00000001        0.00000000
       7         -0.893323        1.000000        0.00000241        0.00000000        0.00000047        0.00000030
       8         -0.892228        1.000000        0.00000018        0.00000000        0.00000000        0.00000000
       9         -0.891855        1.000000        0.00000000        0.00000000        0.00000000        0.00000000
      10         -0.891605        1.000000        0.00000041        0.00000000        0.00000000        0.00000000
      11         -0.887063        1.000000        0.00000065        0.00000000        0.00000000        0.00000000
      12         -0.886306        1.000000        0.00000015        0.00000000        0.00000000        0.00000000
      13         -0.885534        1.000000        0.61175135        0.00005628        0.00001034        0.00012681
      14         -0.884543        1.000000        0.01053884        0.00026645        0.00000030        0.00000766
      15         -0.883184        1.000000        0.61155401        0.00030046        0.00005044        0.00014329
      16         -0.881888        1.000000        0.00000015        0.00000000        0.00000001        0.00000000
      17         -0.881073        1.000000        0.00117905        0.00000104        0.00000064        0.00000019
      18         -0.880817        1.000000        0.00000974        0.00000041        0.00000000        0.00000005
      19         -0.880151        1.000000        0.00051963        0.00000121        0.00000006        0.00001138
      20         -0.878676        1.000000        0.00000134        0.00000000        0.00000000        0.00000001
      21         -0.877398        1.000000        0.00002526        0.00000001        0.00000000        0.00000019
      22         -0.877142        1.000000        0.00000874        0.00000000        0.00000050        0.00000015
      23         -0.875957        1.000000        0.00001931        0.00000001        0.00000004        0.00000000
      24         -0.875883        1.000000        0.00000057        0.00000000        0.00000000        0.00000000
      25         -0.872990        1.000000        0.00001962        0.00000058        0.00000118        0.00000008
      26         -0.870597        1.000000        0.00005799        0.00000002        0.00000000        0.00000057
      27         -0.870512        1.000000        0.00510505        0.00000142        0.00000042        0.00004859
      28         -0.869501        1.000000        0.61024362        0.00017667        0.00003428        0.00000127
      29         -0.869167        1.000000        0.00000051        0.00000000        0.00000000        0.00000002
      30         -0.868232        1.000000        0.00017119        0.00000632        0.00001946        0.00001698
      31         -0.867351        1.000000        0.00028521        0.00001352        0.00000072        0.00000548
      32         -0.865916        1.000000        0.00002268        0.00000033        0.00000036        0.00000005
      33         -0.863797        1.000000        0.00069911        0.00005351        0.00000020        0.00000985
      34         -0.862570        1.000000        0.00133736        0.00000162        0.00000124        0.00000008
      35         -0.862151        1.000000        0.00006601        0.00000107        0.00000007        0.00000054
      36         -0.861388        1.000000        0.06110232        0.00008938        0.00001047        0.00000100
      37         -0.860832        1.000000        0.00000082        0.00000000        0.00000001        0.00000005
      38         -0.860060        1.000000        0.00379376        0.00000075        0.00000206        0.00000726
      39         -0.859985        1.000000        0.00000006        0.00000000        0.00000000        0.00000000
      40         -0.859943        1.000000        0.00037186        0.00000002        0.00000957        0.00000054
      41         -0.858815        1.000000        0.05484847        0.00004286        0.00000132        0.00000288
      42         -0.857704        1.000000        0.00000113        0.00000000        0.00000001        0.00000009
      43         -0.855725        1.000000        0.00002943        0.00000005        0.00000079        0.00000033
      44         -0.855308        1.000000        0.00000137        0.00000000        0.00000001        0.00000012
      45         -0.854547        1.000000        0.00012479        0.00000184        0.00000758        0.00000349
      46         -0.854079        1.000000        0.00069367        0.00000043        0.00000008        0.00000000
      47         -0.852657        1.000000        0.32905562        0.00005434        0.00010233        0.00000329
      48         -0.852461        1.000000        0.03665299        0.00000601        0.00001204        0.00000026
      49         -0.850437        1.000000        0.00010269        0.00000026        0.00000170        0.00000024
      50         -0.849658        1.000000        0.00006086        0.00000027        0.00000030        0.00000062
      51         -0.849477        1.000000        0.00000038        0.00000000        0.00000001        0.00000007
      52         -0.848523        1.000000        0.00010438        0.00000010        0.00000139        0.00000063
      53         -0.848365        1.000000        0.06685764        0.00001912        0.00003089        0.00003225
      54         -0.846974        1.000000        0.00000130        0.00000000        0.00000002        0.00000019
      55         -0.846331        1.000000        0.00109321        0.00000012        0.00001467        0.00000554
      56         -0.845537        1.000000        0.00003934        0.00000009        0.00000006        0.00000460
      57         -0.845453        1.000000        0.00071710        0.00000256        0.00000043        0.00000035
      58         -0.843873        1.000000        0.00001968        0.00000001        0.00000001        0.00000005
      59         -0.843078        1.000000        0.00000010        0.00000000        0.00000000        0.00000001
      60         -0.842759        1.000000        0.00002009        0.00000009        0.00000000        0.00000001
      61         -0.842652        1.000000        0.37581860        0.00129526        0.00001407        0.00024355
      62         -0.842257        1.000000        0.00000017        0.00000002        0.00000000        0.00000001
      63         -0.841270        1.000000        0.00000117        0.00000000        0.00000005        0.00000029
      64         -0.840215        1.000000        0.01180200        0.00000594        0.00010253        0.00010633
      65         -0.837607        1.000000        0.01737930        0.00000650        0.00009697        0.00002857
      66         -0.837528        1.000000        0.00147653        0.00018465        0.00003148        0.00000073
      67         -0.837248        1.000000        0.00000001        0.00000000        0.00000000        0.00000000
      68         -0.837113        1.000000        0.00003322        0.00000121        0.00000252        0.00000042
      69         -0.837058        1.000000        0.00000133        0.00000029        0.00000010        0.00000001
      70         -0.836316        1.000000        0.00036562        0.00000022        0.00000172        0.00000043
      71         -0.835570        1.000000        0.01997423        0.00001014        0.00002927        0.00017133
      72         -0.835146        1.000000        0.00004260        0.00000013        0.00000006        0.00000066
      73         -0.834265        1.000000        0.00000064        0.00000000        0.00000005        0.00000023
      74         -0.833716        1.000000        0.00812757        0.00001714        0.00002535        0.00000341
      75         -0.832270        1.000000        0.00152154        0.00000104        0.00000413        0.00000496
      76         -0.830530        1.000000        0.14078971        0.00005799        0.00016273        0.00196885
      77         -0.830148        1.000000        0.09145006        0.00144578        0.00000004        0.00019734
      78         -0.828570        1.000000        0.00004812        0.00000136        0.00000042        0.00000065
      79         -0.828337        1.000000        0.00000027        0.00000001        0.00000000        0.00000000
      80         -0.828084        1.000000        0.00109169        0.00001699        0.00000061        0.00000236
      81         -0.827408        1.000000        0.00000006        0.00000000        0.00000000        0.00000000
      82         -0.825987        1.000000        0.00410479        0.00000530        0.00000187        0.00000340
      83         -0.824255        1.000000        0.07405818        0.00033959        0.00000474        0.00011118
      84         -0.824191        1.000000        0.00000014        0.00000000        0.00000001        0.00000006
      85         -0.823334        1.000000        0.00596297        0.00000750        0.00000926        0.00013861
      86         -0.822305        1.000000        0.00000000        0.00000000        0.00000000        0.00000000
      87         -0.819547        1.000000        0.00002739        0.00000065        0.00000050        0.00000000
      88         -0.818000        1.000000        0.00273809        0.00051378        0.00024630        0.00003251
      89         -0.817511        1.000000        0.11782961        0.00000735        0.00004095        0.00000375
      90         -0.816928        1.000000        0.00001850        0.00000052        0.00000009        0.00000052
      91         -0.815376        1.000000        0.00000002        0.00000000        0.00000000        0.00000001
      92         -0.814802        1.000000        0.09966528        0.00000595        0.00009774        0.00001941
      93         -0.814753        1.000000        0.01413838        0.00000085        0.00001408        0.00000280
      94         -0.814638        1.000000        0.00539765        0.00000037        0.00000550        0.00000110
      95         -0.814371        1.000000        0.00352722        0.00000010        0.00000479        0.00000833
      96         -0.814118        1.000000        0.00001353        0.00000000        0.00000002        0.00000000
      97         -0.813460        1.000000        0.00000213        0.00000000        0.00000000        0.00000012
      98         -0.808517        1.000000        0.21050566        0.00008250        0.00072370        0.00021986
      99         -0.808315        1.000000        0.00003051        0.00000001        0.00000125        0.00001072
     100         -0.807186        1.000000        0.00023528        0.00000432        0.00000046        0.00000256
     101         -0.803632        1.000000        0.00000148        0.00000028        0.00000032        0.00000037
     102         -0.801340        1.000000        0.00000003        0.00000000        0.00000000        0.00000000
     103         -0.797839        1.000000        0.00000000        0.00000000        0.00000000        0.00000000
     104         -0.797804        1.000000        0.00000250        0.00000023        0.00000031        0.00001142
     105         -0.796251        1.000000        0.00000000        0.00000000        0.00000000        0.00000000
     106         -0.793600        1.000000        0.00000001        0.00000000        0.00000000        0.00000000
     107         -0.791391        1.000000        0.00000000        0.00000000        0.00000000        0.00000000
     108         -0.790678        1.000000        0.50289603        0.00108878        0.00024646        0.00124540
     109         -0.787303        1.000000        0.11444253        0.00033763        0.00294117        0.00093147
     110         -0.786793        1.000000        0.00007228        0.00000998        0.00000598        0.00000027
     111         -0.786527        1.000000        0.00000457        0.00000184        0.00000000        0.00000072
     112         -0.630423        1.000000        0.01553347        0.00238885        0.03021681        0.16463663
     113         -0.627284        1.000000        0.01509893        0.00008738        0.05680718        0.14031266
     114         -0.616953        1.000000        0.01870449        0.02580097        0.00078428        0.16105712
     115         -0.614875        1.000000        0.02997484        0.00019988        0.07251968        0.08465137
     116         -0.593027        1.000000        0.01814208        0.07074643        0.06702166        0.04821268
     117         -0.592899        1.000000        0.00048157        0.00232334        0.00109852        0.00038781
     118         -0.577770        1.000000        0.00000129        0.00006013        0.00008767        0.00005457
     119         -0.576081        1.000000        0.02854211        0.01682827        0.05513915        0.08987010
     120         -0.574114        1.000000        0.00039993        0.00558432        0.00042520        0.00013724
     121         -0.570754        1.000000        0.03046016        0.00761806        0.00794509        0.13878877
     122         -0.568755        1.000000        0.00010114        0.00190880        0.00024273        0.00000808
     123         -0.554820        1.000000        0.00001904        0.00040858        0.00012557        0.00007857
     124         -0.543614        1.000000        0.00056195        0.00158999        0.00227347        0.00209142
     125         -0.537682        1.000000        0.00009329        0.00406108        0.00446816        0.00073608
     126         -0.532804        1.000000        0.00007037        0.00077459        0.00098414        0.00004660
     127         -0.532378        1.000000        0.00029764        0.07431842        0.01095934        0.00347974
     128         -0.531136        1.000000        0.00022241        0.03938279        0.00512466        0.00128510
     129         -0.527797        1.000000        0.00006170        0.02628783        0.00758954        0.00189983
     130         -0.526378        1.000000        0.00016083        0.00132442        0.04960316        0.00317472
     131         -0.525189        1.000000        0.00021583        0.00560263        0.03132084        0.00301764
     132         -0.524873        1.000000        0.00017489        0.00438746        0.00584478        0.00067677
     133         -0.524133        1.000000        0.00012073        0.00436983        0.02291296        0.00138629
     134         -0.523025        1.000000        0.00020134        0.01363277        0.00753728        0.00292611
     135         -0.521342        1.000000        0.00040902        0.00618618        0.01911414        0.00481873
     136         -0.520912        1.000000        0.00026665        0.00456260        0.01001355        0.00338713
     137         -0.519668        1.000000        0.00042630        0.02336358        0.00961680        0.00531081
     138         -0.518262        1.000000        0.00086760        0.01664001        0.00689291        0.00287306
     139         -0.517142        1.000000        0.00008354        0.16242803        0.00498616        0.00218040
     140         -0.513615        1.000000        0.00008813        0.03682907        0.04886539        0.00475962
     141         -0.513338        1.000000        0.00008064        0.00572776        0.03290422        0.00419544
     142         -0.512060        1.000000        0.00010457        0.00141361        0.01294152        0.00189863
     143         -0.511878        1.000000        0.00010264        0.01918555        0.00885603        0.00144432
     144         -0.510000        1.000000        0.00076317        0.00911978        0.00616819        0.00382684
     145         -0.508790        1.000000        0.00044727        0.02328682        0.04143518        0.01216980
     146         -0.508015        1.000000        0.00003104        0.00224191        0.00170320        0.00098598
     147         -0.507146        1.000000        0.00016342        0.03033012        0.04457862        0.01806319
     148         -0.506799        1.000000        0.00031029        0.07238412        0.09785294        0.03927091
     149         -0.505823        1.000000        0.00009440        0.03363809        0.01005873        0.00506849
     150         -0.504932        1.000000        0.00014384        0.01051299        0.08425475        0.03359837
     151         -0.503794        1.000000        0.00040518        0.17036083        0.19175999        0.02124528
     152         -0.503167        1.000000        0.00018353        0.00711410        0.00504645        0.00092284
     153         -0.502234        1.000000        0.00044887        0.00931236        0.00127647        0.00208680
     154         -0.500745        1.000000        0.00022764        0.00801895        0.03346023        0.02000855
     155         -0.499251        1.000000        0.00002787        0.00323096        0.00584793        0.00212950
     156         -0.494579        1.000000        0.00022328        0.11809120        0.09059591        0.01583378
     157         -0.494183        1.000000        0.00026052        0.11062326        0.08050932        0.01395762
     158         -0.490438        1.000000        0.00087886        0.26062681        0.13606805        0.03802394
     159         -0.487937        1.000000        0.00052382        0.41654603        0.03986061        0.06148709
     160         -0.484381        1.000000        0.00000401        0.02392696        0.44818047        0.01334613
     161         -0.474228        1.000000        0.00030535        0.19182423        0.35386764        0.01135403
     162         -0.472419        1.000000        0.00030941        0.20638345        0.16652951        0.07227684
     163         -0.467606        1.000000        0.00034563        0.13034027        0.03168445        0.36546011
     164         -0.467306        1.000000        0.00006084        0.23143630        0.10793081        0.15086507
     165         -0.466393        1.000000        0.00000107        0.00005448        0.00001508        0.00000158
     166         -0.465446        1.000000        0.00000316        0.00018406        0.00022165        0.00017622
     167         -0.463584        1.000000        0.00000071        0.00001446        0.00019771        0.00071767
     168         -0.461165        1.000000        0.00000015        0.00012309        0.00011232        0.00010648
     169         -0.459879        1.000000        0.00000019        0.00125770        0.00347931        0.00342089
     170         -0.457932        1.000000        0.00000078        0.00024345        0.00018285        0.00001471
     171         -0.457166        1.000000        0.00000141        0.00015992        0.00038142        0.00005860
     172         -0.454620        1.000000        0.00000010        0.00005102        0.00004987        0.00007438
     173         -0.454557        1.000000        0.00000059        0.00017227        0.00009077        0.00000085
     174         -0.453295        1.000000        0.00000982        0.00030493        0.00024855        0.00094636
     175         -0.451984        1.000000        0.00000085        0.00007029        0.00001198        0.00001161
     176         -0.451649        1.000000        0.00000129        0.00000148        0.00001196        0.00001713
     177         -0.451136        1.000000        0.00000011        0.00000891        0.00002271        0.00000843
     178         -0.448386        1.000000        0.00000064        0.00010886        0.00001516        0.00000926
     179         -0.447953        1.000000        0.00000022        0.00000727        0.00000067        0.00000120
     180         -0.447388        1.000000        0.00000001        0.00000071        0.00000217        0.00000205
     181         -0.446051        1.000000        0.00000013        0.00001463        0.00000183        0.00000023
     182         -0.444606        1.000000        0.00001750        0.00859829        0.01496322        0.00144280
     183         -0.443531        1.000000        0.00000193        0.00035519        0.00083708        0.00010649
     184         -0.442580        1.000000        0.00005371        0.00108662        0.00127786        0.00006740
     185         -0.442071        1.000000        0.00006567        0.14463643        0.16809665        0.01662888
     186         -0.441662        1.000000        0.00001619        0.42710215        0.07617816        0.01341479
     187         -0.441616        1.000000        0.00000079        0.00033463        0.00037300        0.00002370
     188         -0.441209        1.000000        0.00000026        0.00007553        0.00009492        0.00001424
     189         -0.440949        1.000000        0.00001801        0.03858707        0.06652521        0.00648673
     190         -0.440783        1.000000        0.00000002        0.00088137        0.00014380        0.00001959
     191         -0.439774        1.000000        0.00001999        0.00058160        0.00277939        0.00024277
     192         -0.439641        1.000000        0.00000082        0.00010517        0.00004346        0.00014716
     193         -0.439470        1.000000        0.00001052        0.00032313        0.00082692        0.00023838
     194         -0.438769        1.000000        0.00002847        0.00007516        0.00008174        0.00122056
     195         -0.437782        1.000000        0.00000012        0.00000804        0.00000367        0.00001298
     196         -0.437090        1.000000        0.00002122        0.00992986        0.00301553        0.00081238
     197         -0.436982        1.000000        0.00000145        0.00046438        0.00012770        0.00004771
     198         -0.436323        1.000000        0.00001411        0.00133217        0.00008319        0.00102474
     199         -0.436231        1.000000        0.00000025        0.00001147        0.00003825        0.00000262
     200         -0.434498        1.000000        0.00000134        0.00001846        0.00001118        0.00000131
     201         -0.433653        1.000000        0.00000037        0.00000081        0.00004512        0.00006713
     202         -0.433396        1.000000        0.00008206        0.00640152        0.00945743        0.00391923
     203         -0.432917        1.000000        0.00089029        0.00373627        0.08920297        0.13747573
     204         -0.432389        1.000000        0.00070654        0.00129880        0.08549240        0.12076126
     205         -0.431075        1.000000        0.00003694        0.00249279        0.00001049        0.00008259
     206         -0.430777        1.000000        0.00000987        0.00012316        0.00005567        0.00002036
     207         -0.430195        1.000000        0.00006906        0.00488119        0.00018647        0.00003676
     208         -0.430139        1.000000        0.00002247        0.00152239        0.00007054        0.00003193
     209         -0.428752        1.000000        0.00000097        0.00009469        0.00000547        0.00000502
     210         -0.428713        1.000000        0.00000890        0.00000079        0.00093331        0.00113426
     211         -0.428258        1.000000        0.00015209        0.01812352        0.12229304        0.00300993
     212         -0.427629        1.000000        0.00002515        0.00002461        0.00093634        0.00038817
     213         -0.427495        1.000000        0.00003936        0.00024575        0.00332635        0.00028220
     214         -0.427310        1.000000        0.00000017        0.00000027        0.00000293        0.00000624
     215         -0.425256        1.000000        0.00000052        0.00026049        0.00020372        0.00000158
     216         -0.425216        1.000000        0.00004900        0.00004790        0.00152178        0.00042211
     217         -0.424992        1.000000        0.00000221        0.00005133        0.00001760        0.00007205
     218         -0.424867        1.000000        0.00000135        0.00009349        0.00000713        0.00006719
     219         -0.423448        1.000000        0.00001563        0.00001856        0.00127514        0.00142501
     220         -0.421972        1.000000        0.00011187        0.00001103        0.00330361        0.00199583
     221         -0.421818        1.000000        0.00000082        0.00000190        0.00000568        0.00002013
     222         -0.420487        1.000000        0.00000744        0.00230014        0.00087159        0.00022441
     223         -0.419895        1.000000        0.00000076        0.00000007        0.00001492        0.00002862
     224         -0.418928        1.000000        0.00001723        0.00001608        0.00098355        0.00045197
     225         -0.418211        1.000000        0.00000397        0.00000207        0.00000186        0.00013289
     226         -0.418139        1.000000        0.00001617        0.01811767        0.00276083        0.00000876
     227         -0.417898        1.000000        0.00003798        0.07345357        0.02985565        0.00011988
     228         -0.417423        1.000000        0.00000287        0.00000091        0.00001788        0.00016132
     229         -0.416899        1.000000        0.00002148        0.12248020        0.04175403        0.00005645
     230         -0.416387        1.000000        0.00002071        0.03228848        0.00915726        0.00001600
     231         -0.414922        1.000000        0.00002822        0.00145350        0.00009377        0.00004433
     232         -0.414683        1.000000        0.00001293        0.01927841        0.00131563        0.00017469
     233         -0.414383        1.000000        0.00001069        0.00065528        0.00013922        0.00001790
     234         -0.414234        1.000000        0.00002969        0.00009819        0.00074620        0.00072027
     235         -0.413971        1.000000        0.00001655        0.00004515        0.00056122        0.00036986
     236         -0.413269        1.000000        0.00000882        0.00000149        0.00004270        0.00030142
     237         -0.412848        1.000000        0.00029051        0.00003883        0.00089516        0.01160029
     238         -0.412772        1.000000        0.00007069        0.00029315        0.00434194        0.00395486
     239         -0.412392        1.000000        0.00001555        0.00000077        0.00007166        0.00064251
     240         -0.412107        1.000000        0.00001767        0.00007408        0.00136771        0.00049303
     241         -0.411503        1.000000        0.00894999        0.00038802        0.04084660        0.36032378
     242         -0.410759        1.000000        0.00009524        0.00573273        0.01183287        0.00255466
     243         -0.410509        1.000000        0.00052376        0.00017336        0.00793472        0.01529709
     244         -0.410262        1.000000        0.00000808        0.00010181        0.00068187        0.00030015
     245         -0.409247        1.000000        0.00017219        0.00063346        0.00142544        0.00534195
     246         -0.408474        1.000000        0.00014618        0.00001077        0.00059357        0.00747770
     247         -0.407764        1.000000        0.00883151        0.00045323        0.09659094        0.29071537
     248         -0.405409        1.000000        0.00007111        0.00031307        0.00108934        0.00159663
     249         -0.404922        1.000000        0.00009845        0.00001782        0.00015148        0.00227339
     250         -0.402741        1.000000        0.00000229        0.00000776        0.00001603        0.00014905
     251         -0.402187        1.000000        0.00001291        0.00005814        0.00029133        0.00060529
     252         -0.402165        1.000000        0.00002411        0.00022037        0.00124752        0.00113430
     253         -0.401547        1.000000        0.00004376        0.00001546        0.00015683        0.00088493
     254         -0.399956        1.000000        0.00000087        0.00000450        0.00000961        0.00003617
     255         -0.399406        1.000000        0.00002152        0.00029231        0.00047944        0.00176623
     256         -0.398597        1.000000        0.00001878        0.00033214        0.00023145        0.00026393
     257         -0.397588        1.000000        0.00018547        0.00094901        0.00005493        0.00849798
     258         -0.397554        1.000000        0.00001795        0.00008978        0.00000282        0.00077997
     259         -0.397160        1.000000        0.00451307        0.03193735        0.00040376        0.21770594