# Projected DOS for atomic kind O at iteration step i = 0, E(Fermi) =    -0.112191 a.u.
#     MO Eigenvalue [a.u.]      Occupation                 s                py                pz                px
       1         -0.906228        1.000000        0.71179147        0.01256013        0.01592555        0.00306630
       2         -0.902011        1.000000        0.71113376        0.01717820        0.00236923        0.01399160
       3         -0.899760        1.000000        0.71834457        0.00007426        0.00857104        0.02250754
       4         -0.898957        1.000000        0.71385703        0.01923248        0.00432996        0.00319669
       5         -0.897438        1.000000        0.70671384        0.00763613        0.00981918        0.02114296
       6         -0.893488        1.000000        0.70864221        0.01070060        0.01344043        0.01155274
       7         -0.893323        1.000000        0.70651116        0.01172076        0.01553099        0.00871615
       8         -0.892228        1.000000        0.71219710        0.03172821        0.00111821        0.00079771
       9         -0.891855        1.000000        0.70925718        0.02081441        0.01247466        0.00349594
      10         -0.891605        1.000000        0.71230026        0.00453063        0.02657656        0.00380619
      11         -0.887063        1.000000        0.70782486        0.03210710        0.00236099        0.00209786
      12         -0.886306        1.000000        0.70483944        0.01310470        0.02014655        0.00482016
      13         -0.885534        1.000000        0.00008263        0.00000498        0.00000223        0.00000965
      14         -0.884543        1.000000        0.68203810        0.00999792        0.00608155        0.00318158
      15         -0.883184        1.000000        0.00174170        0.00004688        0.00001940        0.00000285
      16         -0.881888        1.000000        0.70585389        0.02741065        0.00539897        0.00399341
      17         -0.881073        1.000000        0.70211866        0.02745504        0.00971821        0.00213062
      18         -0.880817        1.000000        0.70640171        0.00649004        0.01056491        0.01954947
      19         -0.880151        1.000000        0.70452665        0.01121468        0.00251413        0.00409127
      20         -0.878676        1.000000        0.70341900        0.00739153        0.00351321        0.00345539
      21         -0.877398        1.000000        0.70588749        0.02398712        0.01093891        0.00195626
      22         -0.877142        1.000000        0.71200891        0.00995147        0.00657568        0.00668067
      23         -0.875957        1.000000        0.72406723        0.00946093        0.00616059        0.00427505
      24         -0.875883        1.000000        0.70613413        0.03452900        0.00271071        0.00068519
      25         -0.872990        1.000000        0.70676488        0.00230622        0.02403818        0.01240923
      26         -0.870597        1.000000        0.70190892        0.02748313        0.01396468        0.00023091
      27         -0.870512        1.000000        0.71026573        0.01400071        0.00785222        0.00891988
      28         -0.869501        1.000000        0.00000034        0.00000001        0.00000000        0.00000001
      29         -0.869167        1.000000        0.71372324        0.00663982        0.00416137        0.00756361
      30         -0.868232        1.000000        0.71027560        0.01018524        0.00143635        0.01130721
      31         -0.867351        1.000000        0.70090603        0.01260137        0.01064460        0.00907391
      32         -0.865916        1.000000        0.72007456        0.00172773        0.00763204        0.00666232
      33         -0.863797        1.000000        0.70151555        0.01759459        0.00703339        0.01307098
      34         -0.862570        1.000000        0.70981573        0.00531234        0.00772470        0.00813913
      35         -0.862151        1.000000        0.69870302        0.01027282        0.00372035        0.00466029
      36         -0.861388        1.000000        0.65550941        0.00975882        0.00409669        0.00835393
      37         -0.860832        1.000000        0.72204028        0.00824042        0.00462777        0.01352953
      38         -0.860060        1.000000        0.71812331        0.01234017        0.00394880        0.01063045
      39         -0.859985        1.000000        0.71459903        0.01152677        0.00011905        0.00596399
      40         -0.859943        1.000000        0.71166863        0.00996464        0.00552165        0.00192770
      41         -0.858815        1.000000        0.66234916        0.01163061        0.01232201        0.00372932
      42         -0.857704        1.000000        0.70289181        0.00470911        0.00691815        0.00949900
      43         -0.855725        1.000000        0.72152728        0.00403104        0.00453264        0.00823854
      44         -0.855308        1.000000        0.70585361        0.00642667        0.00794392        0.00960865
      45         -0.854547        1.000000        0.71903260        0.01161446        0.01145028        0.01189287
      46         -0.854079        1.000000        0.72191297        0.00930957        0.00864735        0.00723388
      47         -0.852657        1.000000        0.33413507        0.01051369        0.00105147        0.00263009
      48         -0.852461        1.000000        0.65520281        0.03783151        0.00476863        0.00204059
      49         -0.850437        1.000000        0.74568942        0.00774441        0.01782797        0.00227950
      50         -0.849658        1.000000        0.71823214        0.00715539        0.01044932        0.00770981
      51         -0.849477        1.000000        0.73447953        0.01084996        0.00854341        0.00814785
      52         -0.848523        1.000000        0.70776548        0.00867714        0.01999128        0.00175725
      53         -0.848365        1.000000        0.65539255        0.00872242        0.00491113        0.01417053
      54         -0.846974        1.000000        0.71757153        0.01280674        0.00993284        0.00732938
      55         -0.846331        1.000000        0.72024230        0.00742158        0.00635380        0.00875973
      56         -0.845537        1.000000        0.71244191        0.01788920        0.01396853        0.00801484
      57         -0.845453        1.000000        0.73188797        0.01284629        0.00617875        0.00545344
      58         -0.843873        1.000000        0.70944053        0.02317866        0.01559761        0.00286725
      59         -0.843078        1.000000        0.71544441        0.02497313        0.00489939        0.00478226
      60         -0.842759        1.000000        0.69302364        0.00317531        0.04042768        0.00660015
      61         -0.842652        1.000000        0.27905230        0.01052009        0.00148647        0.00418730
      62         -0.842257        1.000000        0.72871458        0.00831640        0.00368967        0.01928177
      63         -0.841270        1.000000        0.72205622        0.01347786        0.00776768        0.01312841
      64         -0.840215        1.000000        0.69675407        0.01318231        0.00456480        0.01491976
      65         -0.837607        1.000000        0.69823226        0.00976755        0.00700274        0.00805672
      66         -0.837528        1.000000        0.72163259        0.01032768        0.00991868        0.01693400
      67         -0.837248        1.000000        0.75410034        0.01106859        0.00696865        0.01442018
      68         -0.837113        1.000000        0.73963547        0.01667576        0.00828836        0.00451055
      69         -0.837058        1.000000        0.69742908        0.03675211        0.00466808        0.00593247
      70         -0.836316        1.000000        0.69218238        0.04073026        0.00030536        0.00858119
      71         -0.835570        1.000000        0.72642765        0.01690238        0.00264346        0.01646907
      72         -0.835146        1.000000        0.72239428        0.01907665        0.01578391        0.00240026
      73         -0.834265        1.000000        0.73383263        0.01808681        0.00782830        0.01205856
      74         -0.833716        1.000000        0.71812037        0.00856815        0.01191836        0.00875564
      75         -0.832270        1.000000        0.74041528        0.01199957        0.00875607        0.00904383
      76         -0.830530        1.000000        0.60801490        0.01876012        0.00211287        0.00716786
      77         -0.830148        1.000000        0.65760534        0.01305105        0.01202258        0.01009107
      78         -0.828570        1.000000        0.72252650        0.00796531        0.01542255        0.00948637
      79         -0.828337        1.000000        0.71762853        0.02087283        0.00899025        0.00628679
      80         -0.828084        1.000000        0.74784418        0.01523259        0.01250373        0.00550048
      81         -0.827408        1.000000        0.74307485        0.00840915        0.01360326        0.01301647
      82         -0.825987        1.000000        0.73834996        0.01002690        0.00834848        0.01555583
      83         -0.824255        1.000000        0.63944553        0.01342237        0.00622322        0.00950172
      84         -0.824191        1.000000        0.77290260        0.01266792        0.00736137        0.01749459
      85         -0.823334        1.000000        0.76778521        0.01222905        0.01097315        0.01140454
      86         -0.822305        1.000000        0.69650130        0.02946281        0.01320097        0.00660281
      87         -0.819547        1.000000        0.70730053        0.01051115        0.02231492        0.00664564
      88         -0.818000        1.000000        0.72712969        0.01615934        0.00365979        0.02275759
      89         -0.817511        1.000000        0.60311006        0.01058608        0.00795534        0.00900681
      90         -0.816928        1.000000        0.76343366        0.01264294        0.00967420        0.01248330
      91         -0.815376        1.000000        0.77338553        0.02762451        0.00506232        0.00571855
      92         -0.814802        1.000000        0.62665126        0.01089998        0.00835897        0.01249085
      93         -0.814753        1.000000        0.73233792        0.01536166        0.00791672        0.01719496
      94         -0.814638        1.000000        0.68983139        0.00231545        0.02448194        0.02092602
      95         -0.814371        1.000000        0.76620687        0.00459184        0.01045103        0.01983221
      96         -0.814118        1.000000        0.76089004        0.01172707        0.00927115        0.01619525
      97         -0.813460        1.000000        0.70570562        0.00383547        0.02853039        0.01446710
      98         -0.808517        1.000000        0.47722566        0.00908725        0.00891006        0.00874749
      99         -0.808315        1.000000        0.70179014        0.04392040        0.00275698        0.00204107
     100         -0.807186        1.000000        0.78691548        0.00158751        0.00686976        0.02572029
     101         -0.803632        1.000000        0.77826975        0.00468358        0.01418553        0.01692826
     102         -0.801340        1.000000        0.78636886        0.00585000        0.01224531        0.01935598
     103         -0.797839        1.000000        0.71258971        0.01455591        0.00146897        0.03363881
     104         -0.797804        1.000000        0.79382385        0.01697262        0.00664094        0.01717591
     105         -0.796251        1.000000        0.70677239        0.00621909        0.04064879        0.00192297
     106         -0.793600        1.000000        0.70714983        0.03031066        0.01007797        0.00708455
     107         -0.791391        1.000000        0.70927533        0.01389533        0.03126263        0.00441185
     108         -0.790678        1.000000        0.12051868        0.00967862        0.00137605        0.00404692
     109         -0.787303        1.000000        0.62522688        0.01606562        0.00336184        0.01058005
     110         -0.786793        1.000000        0.70992277        0.00608322        0.03257285        0.00835248
     111         -0.786527        1.000000        0.82162633        0.01490114        0.00585794        0.00879817
     112         -0.630423        1.000000        0.00036956        0.00002975        0.00010668        0.00037660
     113         -0.627284        1.000000        0.00014510        0.00003188        0.00046670        0.00005111
     114         -0.616953        1.000000        0.00000064        0.00000031        0.00000020        0.00000046
     115         -0.614875        1.000000        0.00025106        0.00097052        0.00040484        0.00000852
     116         -0.593027        1.000000        0.00095159        0.00071059        0.00079283        0.00152376
     117         -0.592899        1.000000        0.03063242        0.00187658        0.02857605        0.00530177
     118         -0.577770        1.000000        0.00638515        0.00341510        0.01350583        0.00865202
     119         -0.576081        1.000000        0.00047503        0.00017280        0.00031191        0.00084798
     120         -0.574114        1.000000        0.00508445        0.00720925        0.00252279        0.00098334
     121         -0.570754        1.000000        0.00036517        0.00197734        0.00077551        0.00071910
     122         -0.568755        1.000000        0.01893378        0.02879706        0.00904184        0.00153962
     123         -0.554820        1.000000        0.00460601        0.01408158        0.00669045        0.00127818
     124         -0.543614        1.000000        0.00182638        0.00091019        0.00143491        0.00040897
     125         -0.537682        1.000000        0.00062261        0.00032741        0.00126569        0.00295594
     126         -0.532804        1.000000        0.00180965        0.00159401        0.02850926        0.00053306
     127         -0.532378        1.000000        0.00058799        0.00102173        0.00162127        0.00109941
     128         -0.531136        1.000000        0.00151099        0.00343895        0.00508787        0.00392059
     129         -0.527797        1.000000        0.00108301        0.00233754        0.00315768        0.00208218
     130         -0.526378        1.000000        0.00033392        0.00072099        0.00139551        0.00078578
     131         -0.525189        1.000000        0.00039376        0.00072541        0.00049475        0.00112187
     132         -0.524873        1.000000        0.00087158        0.00150803        0.00211378        0.00157066
     133         -0.524133        1.000000        0.00160925        0.00127344        0.00129448        0.00102044
     134         -0.523025        1.000000        0.00213469        0.00106448        0.00281259        0.00119733
     135         -0.521342        1.000000        0.00119905        0.00281590        0.00463917        0.00372313
     136         -0.520912        1.000000        0.00134029        0.00437131        0.00608251        0.00593428
     137         -0.519668        1.000000        0.00091896        0.00139183        0.00227150        0.00257491
     138         -0.518262        1.000000        0.00044498        0.00051385        0.00075124        0.00122203
     139         -0.517142        1.000000        0.00082626        0.00294811        0.00537329        0.00156272
     140         -0.513615        1.000000        0.00057061        0.00228483        0.00140248        0.00166438
     141         -0.513338        1.000000        0.00074298        0.00283465        0.00189205        0.00199560
     142         -0.512060        1.000000        0.00125409        0.00602381        0.00350056        0.00347730
     143         -0.511878        1.000000        0.00124019        0.00527206        0.00380776        0.00310757
     144         -0.510000        1.000000        0.00082344        0.00392600        0.00355112        0.00527846
     145         -0.508790        1.000000        0.00070269        0.00333087        0.00264196        0.00540531
     146         -0.508015        1.000000        0.00030425        0.00114052        0.00092767        0.00105794
     147         -0.507146        1.000000        0.00192700        0.00580418        0.00545022        0.00435658
     148         -0.506799        1.000000        0.00069178        0.00302117        0.00224149        0.00274341
     149         -0.505823        1.000000        0.00059083        0.00717171        0.00130967        0.00921062
     150         -0.504932        1.000000        0.00067314        0.01241313        0.00239334        0.01678316
     151         -0.503794        1.000000        0.00009418        0.00050912        0.00046847        0.00046058
     152         -0.503167        1.000000        0.00062325        0.00202993        0.00335004        0.00688543
     153         -0.502234        1.000000        0.00163822        0.01464288        0.01850892        0.02473133
     154         -0.500745        1.000000        0.00045976        0.00337815        0.00097513        0.00369615
     155         -0.499251        1.000000        0.00195198        0.00734894        0.00420882        0.01552775
     156         -0.494579        1.000000        0.00021682        0.00455871        0.00209029        0.00356879
     157         -0.494183        1.000000        0.00021845        0.00502979        0.00209072        0.00361043
     158         -0.490438        1.000000        0.00023436        0.00304339        0.00445123        0.00239862
     159         -0.487937        1.000000        0.00002519        0.00062359        0.00029179        0.00042114
     160         -0.484381        1.000000        0.00002798        0.00035956        0.00062813        0.00031242
     161         -0.474228        1.000000        0.00012832        0.00042922        0.00039966        0.00287064
     162         -0.472419        1.000000        0.00011130        0.04683535        0.00233123        0.01916257
     163         -0.467606        1.000000        0.00010626        0.00787826        0.00348290        0.05605204
     164         -0.467306        1.000000        0.00035688        0.02243380        0.00893268        0.01071131
     165         -0.466393        1.000000        0.00114937        0.22206595        0.38429832        0.02382159
     166         -0.465446        1.000000        0.00280677        0.32584307        0.02161266        0.23830733
     167         -0.463584        1.000000        0.00016533        0.04491112        0.43837230        0.15943858
     168         -0.461165        1.000000        0.00197219        0.06562587        0.28704474        0.26994941
     169         -0.459879        1.000000        0.00031197        0.08840909        0.25194369        0.29333361
     170         -0.457932        1.000000        0.00110328        0.19762063        0.16266497        0.25518223
     171         -0.457166        1.000000        0.00145057        0.14650770        0.18162814        0.27462272
     172         -0.454620        1.000000        0.00141508        0.29751210        0.26962942        0.05844372
     173         -0.454557        1.000000        0.00256697        0.15136764        0.35109558        0.14072333
     174         -0.453295        1.000000        0.00126731        0.24454960        0.26571763        0.14084396
     175         -0.451984        1.000000        0.00051890        0.20419310        0.40237417        0.03293852
     176         -0.451649        1.000000        0.00044371        0.03685302        0.32243254        0.28347404
     177         -0.451136        1.000000        0.00260045        0.20662429        0.36559777        0.08118118
     178         -0.448386        1.000000        0.00130286        0.30248392        0.05941290        0.25859331
     179         -0.447953        1.000000        0.00048877        0.32819720        0.03916556        0.26915233
     180         -0.447388        1.000000        0.00053622        0.00769294        0.12620292        0.50468599
     181         -0.446051        1.000000        0.00072944        0.05908786        0.39861712        0.19196609
     182         -0.444606        1.000000        0.00169165        0.00732421        0.20481698        0.38308917
     183         -0.443531        1.000000        0.00296020        0.25779689        0.36837876        0.01690998
     184         -0.442580        1.000000        0.00100653        0.25627419        0.28939506        0.07537510
     185         -0.442071        1.000000        0.00101462        0.10589634        0.09201750        0.06577382
     186         -0.441662        1.000000        0.00035874        0.01659685        0.01987100        0.02009108
     187         -0.441616        1.000000        0.00277120        0.11728597        0.17237689        0.35827382
     188         -0.441209        1.000000        0.00139139        0.08964971        0.33438136        0.23131056
     189         -0.440949        1.000000        0.00154200        0.25004930        0.19811505        0.04640431
     190         -0.440783        1.000000        0.00170544        0.04851607        0.05453662        0.50894641
     191         -0.439774        1.000000        0.00206337        0.35771750        0.06318555        0.20115486
     192         -0.439641        1.000000        0.00174838        0.28606601        0.20943640        0.16924831
     193         -0.439470        1.000000        0.00114408        0.32117480        0.19894011        0.11581587
     194         -0.438769        1.000000        0.00241447        0.16418250        0.42646447        0.04840605
     195         -0.437782        1.000000        0.00115850        0.20668976        0.21208489        0.23888825
     196         -0.437090        1.000000        0.00132926        0.16641894        0.28227008        0.17229724
     197         -0.436982        1.000000        0.00290539        0.05131737        0.40923383        0.18754348
     198         -0.436323        1.000000        0.00233975        0.14906548        0.17539934        0.31623806
     199         -0.436231        1.000000        0.00131231        0.43034673        0.13042837        0.09309380
     200         -0.434498        1.000000        0.00046174        0.03482163        0.03276381        0.56662915
     201         -0.433653        1.000000        0.00411153        0.32466350        0.10265384        0.22625915
     202         -0.433396        1.000000        0.00179800        0.25547639        0.21849261        0.14574953
     203         -0.432917        1.000000        0.00061407        0.06876330        0.12669547        0.18554299
     204         -0.432389        1.000000        0.00058090        0.06791004        0.12914923        0.20761343
     205         -0.431075        1.000000        0.00208624        0.22793144        0.17543223        0.24031572
     206         -0.430777        1.000000        0.00007850        0.17592809        0.36432161        0.08972003
     207         -0.430195        1.000000        0.00225099        0.18689547        0.13688160        0.31115409
     208         -0.430139        1.000000        0.00142497        0.33150912        0.11431434        0.18980354
     209         -0.428752        1.000000        0.00159081        0.36236295        0.10562750        0.16997983
     210         -0.428713        1.000000        0.00700413        0.09628449        0.14977363        0.40363688
     211         -0.428258        1.000000        0.00403827        0.02757378        0.31830947        0.13262919
     212         -0.427629        1.000000        0.00259245        0.14620566        0.09246008        0.40777164
     213         -0.427495        1.000000        0.00162461        0.20061621        0.24478244        0.20374435
     214         -0.427310        1.000000        0.00360172        0.16158466        0.35251038        0.14739116
     215         -0.425256        1.000000        0.00392087        0.25326807        0.29637166        0.10331522
     216         -0.425216        1.000000        0.00342767        0.28094231        0.15647743        0.21082700
     217         -0.424992        1.000000        0.00333844        0.29884996        0.17426751        0.16796739
     218         -0.424867        1.000000        0.00257988        0.32671868        0.17155767        0.13887204
     219         -0.423448        1.000000        0.00596949        0.12968018        0.30295031        0.22105053
     220         -0.421972        1.000000        0.00335494        0.24452465        0.20834261        0.19236985
     221         -0.421818        1.000000        0.00293153        0.29495732        0.16171244        0.19482649
     222         -0.420487        1.000000        0.00418651        0.06219110        0.16026389        0.41496085
     223         -0.419895        1.000000        0.00266189        0.15388973        0.37071502        0.11607972
     224         -0.418928        1.000000        0.00279759        0.09282906        0.05344474        0.49559956
     225         -0.418211        1.000000        0.00621056        0.32294644        0.11087001        0.20732358
     226         -0.418139        1.000000        0.00141587        0.18993166        0.07849276        0.35122103
     227         -0.417898        1.000000        0.00462292        0.19283983        0.23340951        0.11122903
     228         -0.417423        1.000000        0.00383148        0.05615886        0.37481691        0.20806155
     229         -0.416899        1.000000        0.00247171        0.18961677        0.17132203        0.10309593
     230         -0.416387        1.000000        0.00243992        0.30461456        0.15203030        0.14884891
     231         -0.414922        1.000000        0.00205855        0.13273622        0.23151819        0.29142982
     232         -0.414683        1.000000        0.00444795        0.19994593        0.21881954        0.19847139
     233         -0.414383        1.000000        0.00367490        0.16907043        0.09193890        0.38987236
     234         -0.414234        1.000000        0.00375245        0.29282379        0.23360483        0.11113397
     235         -0.413971        1.000000        0.00390436        0.32345204        0.22446470        0.09016583
     236         -0.413269        1.000000        0.00420607        0.19691014        0.06573363        0.39014531
     237         -0.412848        1.000000        0.00237752        0.28151154        0.05192962        0.28780995
     238         -0.412772        1.000000        0.00238599        0.34112908        0.03670151        0.25887218
     239         -0.412392        1.000000        0.00370023        0.25739252        0.04043012        0.35493858
     240         -0.412107        1.000000        0.00041609        0.09031691        0.33008930        0.13310852
     241         -0.411503        1.000000        0.00047032        0.01369811        0.00662990        0.01652171
     242         -0.410759        1.000000        0.00239902        0.25420575        0.08506240        0.22058672
     243         -0.410509        1.000000        0.00498761        0.03164221        0.14064228        0.42196126
     244         -0.410262        1.000000        0.00355779        0.05187450        0.08940337        0.49361785
     245         -0.409247        1.000000        0.00109517        0.03678663        0.08529511        0.07068964
     246         -0.408474        1.000000        0.00113090        0.23816763        0.19007808        0.17869358
     247         -0.407764        1.000000        0.00055812        0.00514503        0.01220118        0.03917204
     248         -0.405409        1.000000        0.00187641        0.11029604        0.30011650        0.21700415
     249         -0.404922        1.000000        0.00198913        0.29876641        0.10910656        0.23244506
     250         -0.402741        1.000000        0.00528773        0.16023209        0.10524991        0.38395674
     251         -0.402187        1.000000        0.00491495        0.05590746        0.14936784        0.43312084
     252         -0.402165        1.000000        0.00543066        0.10613821        0.23296006        0.30104818
     253         -0.401547        1.000000        0.00244824        0.23911480        0.29737960        0.10256266
     254         -0.399956        1.000000        0.00006451        0.09706935        0.04010418        0.49068051
     255         -0.399406        1.000000        0.00080334        0.02495164        0.06083880        0.03000549
     256         -0.398597        1.000000        0.00081952        0.03600695        0.21316208        0.08038897
     257         -0.397588        1.000000        0.00220031        0.16942303        0.25240918        0.13976493
     258         -0.397554        1.000000        0.00289722        0.16249766        0.13149822        0.33737463
     259         -0.397160        1.000000        0.00106516        0.04091087        0.03693180        0.04287083