# Projected DOS for atomic kind N at iteration step i = 0, E(Fermi) =    -0.111168 a.u.
#     MO Eigenvalue [a.u.]      Occupation                 s                py                pz                px
       1         -0.906229        1.000000        0.00000018        0.00000001        0.00000000        0.00000000
       2         -0.902011        1.000000        0.00000004        0.00000001        0.00000000        0.00000000
       3         -0.899768        1.000000        0.00000079        0.00000004        0.00000000        0.00000005
       4         -0.898956        1.000000        0.00000015        0.00000000        0.00000000        0.00000000
       5         -0.897436        1.000000        0.00000667        0.00000033        0.00000000        0.00000002
       6         -0.893488        1.000000        0.00000020        0.00000001        0.00000001        0.00000000
       7         -0.893314        1.000000        0.00000241        0.00000000        0.00000047        0.00000030
       8         -0.892228        1.000000        0.00000018        0.00000000        0.00000000        0.00000000
       9         -0.891855        1.000000        0.00000000        0.00000000        0.00000000        0.00000000
      10         -0.891604        1.000000        0.00000041        0.00000000        0.00000000        0.00000000
      11         -0.887061        1.000000        0.00000064        0.00000000        0.00000000        0.00000000
      12         -0.886307        1.000000        0.00000015        0.00000000        0.00000000        0.00000000
      13         -0.885528        1.000000        0.61175331        0.00005621        0.00001037        0.00012679
      14         -0.884536        1.000000        0.01054535        0.00026653        0.00000030        0.00000766
      15         -0.883183        1.000000        0.61155462        0.00030034        0.00005048        0.00014327
      16         -0.881886        1.000000        0.00000015        0.00000000        0.00000001        0.00000000
      17         -0.881072        1.000000        0.00117857        0.00000104        0.00000064        0.00000019
      18         -0.880815        1.000000        0.00000976        0.00000041        0.00000000        0.00000005
      19         -0.880151        1.000000        0.00052479        0.00000121        0.00000006        0.00001149
      20         -0.878676        1.000000        0.00000134        0.00000000        0.00000000        0.00000001
      21         -0.877396        1.000000        0.00002528        0.00000001        0.00000000        0.00000019
      22         -0.877141        1.000000        0.00000869        0.00000000        0.00000050        0.00000015
      23         -0.875955        1.000000        0.00001930        0.00000001        0.00000004        0.00000000
      24         -0.875899        1.000000        0.00000077        0.00000000        0.00000000        0.00000000
      25         -0.872960        1.000000        0.00001953        0.00000058        0.00000118        0.00000008
      26         -0.870595        1.000000        0.00007652        0.00000003        0.00000001        0.00000075
      27         -0.870520        1.000000        0.00513288        0.00000142        0.00000042        0.00004889
      28         -0.869499        1.000000        0.61024426        0.00017676        0.00003429        0.00000127
      29         -0.869167        1.000000        0.00000051        0.00000000        0.00000000        0.00000002
      30         -0.868231        1.000000        0.00017119        0.00000632        0.00001946        0.00001697
      31         -0.867351        1.000000        0.00028515        0.00001351        0.00000072        0.00000548
      32         -0.865917        1.000000        0.00002270        0.00000033        0.00000036        0.00000005
      33         -0.863792        1.000000        0.00070346        0.00005383        0.00000020        0.00000991
      34         -0.862569        1.000000        0.00133369        0.00000162        0.00000124        0.00000008
      35         -0.861565        1.000000        0.00061014        0.00000158        0.00000010        0.00000027
      36         -0.861384        1.000000        0.06072280        0.00008877        0.00001043        0.00000099
      37         -0.860832        1.000000        0.00000082        0.00000000        0.00000001        0.00000005
      38         -0.860061        1.000000        0.00384811        0.00000075        0.00000207        0.00000736
      39         -0.859984        1.000000        0.00000006        0.00000000        0.00000000        0.00000000
      40         -0.859942        1.000000        0.00037242        0.00000002        0.00000956        0.00000054
      41         -0.858807        1.000000        0.05465753        0.00004261        0.00000132        0.00000289
      42         -0.857688        1.000000        0.00000116        0.00000000        0.00000001        0.00000009
      43         -0.855725        1.000000        0.00002937        0.00000005        0.00000079        0.00000033
      44         -0.855265        1.000000        0.00000135        0.00000000        0.00000001        0.00000012
      45         -0.854546        1.000000        0.00012536        0.00000184        0.00000758        0.00000349
      46         -0.854081        1.000000        0.00069347        0.00000043        0.00000008        0.00000000
      47         -0.852687        1.000000        0.33676012        0.00005556        0.00010448        0.00000367
      48         -0.852463        1.000000        0.02759666        0.00000453        0.00000917        0.00000026
      49         -0.850443        1.000000        0.00010405        0.00000027        0.00000172        0.00000024
      50         -0.849476        1.000000        0.00000038        0.00000000        0.00000001        0.00000007
      51         -0.848522        1.000000        0.00010862        0.00000011        0.00000145        0.00000057
      52         -0.848463        1.000000        0.00021178        0.00000016        0.00000019        0.00000039
      53         -0.848364        1.000000        0.06638332        0.00001908        0.00003068        0.00003199
      54         -0.846974        1.000000        0.00000129        0.00000000        0.00000002        0.00000019
      55         -0.846330        1.000000        0.00109152        0.00000012        0.00001467        0.00000554
      56         -0.845537        1.000000        0.00003935        0.00000009        0.00000006        0.00000460
      57         -0.845446        1.000000        0.00071848        0.00000256        0.00000042        0.00000035
      58         -0.843877        1.000000        0.00001986        0.00000001        0.00000001        0.00000005
      59         -0.843168        1.000000        0.00000010        0.00000000        0.00000000        0.00000001
      60         -0.842759        1.000000        0.00001926        0.00000008        0.00000000        0.00000001
      61         -0.842650        1.000000        0.37589699        0.00129574        0.00001410        0.00024362
      62         -0.842256        1.000000        0.00000017        0.00000002        0.00000000        0.00000001
      63         -0.841264        1.000000        0.00000118        0.00000000        0.00000005        0.00000029
      64         -0.840214        1.000000        0.01180392        0.00000595        0.00010252        0.00010634
      65         -0.837594        1.000000        0.01731106        0.00000623        0.00009679        0.00002923
      66         -0.837527        1.000000        0.00146897        0.00018479        0.00003145        0.00000071
      67         -0.837245        1.000000        0.00000001        0.00000000        0.00000000        0.00000000
      68         -0.837111        1.000000        0.00003303        0.00000121        0.00000251        0.00000042
      69         -0.837058        1.000000        0.00000137        0.00000029        0.00000010        0.00000001
      70         -0.836314        1.000000        0.00037097        0.00000021        0.00000176        0.00000047
      71         -0.835576        1.000000        0.02069856        0.00001038        0.00002991        0.00017693
      72         -0.834939        1.000000        0.00001520        0.00000001        0.00000002        0.00000021
      73         -0.834233        1.000000        0.00000062        0.00000000        0.00000005        0.00000023
      74         -0.833619        1.000000        0.00940799        0.00001815        0.00002928        0.00000513
      75         -0.830626        1.000000        0.09984554        0.00004091        0.00011529        0.00138630
      76         -0.830612        1.000000        0.04227832        0.00001779        0.00004851        0.00058024
      77         -0.830142        1.000000        0.09136206        0.00144491        0.00000004        0.00019720
      78         -0.828566        1.000000        0.00005137        0.00000136        0.00000043        0.00000064
      79         -0.828323        1.000000        0.00000026        0.00000001        0.00000000        0.00000000
      80         -0.828086        1.000000        0.00109887        0.00001711        0.00000061        0.00000238
      81         -0.827138        1.000000        0.00000006        0.00000000        0.00000000        0.00000000
      82         -0.825986        1.000000        0.00409542        0.00000530        0.00000187        0.00000339
      83         -0.824255        1.000000        0.07404157        0.00033949        0.00000473        0.00011112
      84         -0.824186        1.000000        0.00000014        0.00000000        0.00000001        0.00000006
      85         -0.823340        1.000000        0.00581923        0.00000749        0.00000902        0.00013462
      86         -0.822306        1.000000        0.00000000        0.00000000        0.00000000        0.00000000
      87         -0.819530        1.000000        0.00002673        0.00000064        0.00000049        0.00000000
      88         -0.817999        1.000000        0.00273915        0.00051376        0.00024630        0.00003251
      89         -0.817505        1.000000        0.11772453        0.00000732        0.00004077        0.00000395
      90         -0.816929        1.000000        0.00001852        0.00000052        0.00000009        0.00000052
      91         -0.815376        1.000000        0.00000002        0.00000000        0.00000000        0.00000001
      92         -0.814795        1.000000        0.10148635        0.00000599        0.00009955        0.00002115
      93         -0.814747        1.000000        0.01444309        0.00000085        0.00001439        0.00000307
      94         -0.814638        1.000000        0.00608656        0.00000041        0.00000620        0.00000135
      95         -0.813569        1.000000        0.00000277        0.00000000        0.00000000        0.00000000
      96         -0.813454        1.000000        0.00000210        0.00000000        0.00000000        0.00000012
      97         -0.811324        1.000000        0.00053737        0.00000004        0.00000142        0.00000260
      98         -0.808512        1.000000        0.21079156        0.00008267        0.00072332        0.00021999
      99         -0.808315        1.000000        0.00003051        0.00000001        0.00000125        0.00001072
     100         -0.807191        1.000000        0.00023618        0.00000432        0.00000047        0.00000256
     101         -0.803634        1.000000        0.00000148        0.00000028        0.00000032        0.00000037
     102         -0.800437        1.000000        0.00000003        0.00000000        0.00000000        0.00000000
     103         -0.799960        1.000000        0.00000000        0.00000000        0.00000000        0.00000000
     104         -0.796070        1.000000        0.00000000        0.00000000        0.00000000        0.00000000
     105         -0.793523        1.000000        0.00000002        0.00000000        0.00000000        0.00000000
     106         -0.791372        1.000000        0.00000000        0.00000000        0.00000000        0.00000000
     107         -0.790678        1.000000        0.50289509        0.00108877        0.00024646        0.00124538
     108         -0.787351        1.000000        0.11364436        0.00033153        0.00291428        0.00094838
     109         -0.786916        1.000000        0.00000455        0.00000181        0.00000000        0.00000070
     110         -0.786487        1.000000        0.00007180        0.00001003        0.00000601        0.00000028
     111         -0.779709        1.000000        0.00082383        0.00000731        0.00002698        0.00000126
     112         -0.630417        1.000000        0.01553342        0.00238855        0.03021721        0.16463576
     113         -0.627283        1.000000        0.01509955        0.00008721        0.05680721        0.14031465
     114         -0.616952        1.000000        0.01870427        0.02580111        0.00078445        0.16105514
     115         -0.614874        1.000000        0.02997753        0.00019994        0.07251877        0.08465036
     116         -0.593016        1.000000        0.01824303        0.07115243        0.06740190        0.04851446
     117         -0.592772        1.000000        0.00037853        0.00192237        0.00072164        0.00010725
     118         -0.577770        1.000000        0.00000129        0.00006012        0.00008769        0.00005457
     119         -0.576063        1.000000        0.02859438        0.01677352        0.05522119        0.08986979
     120         -0.574103        1.000000        0.00040025        0.00558280        0.00042566        0.00013847
     121         -0.570753        1.000000        0.03046039        0.00761806        0.00794552        0.13879189
     122         -0.568747        1.000000        0.00010137        0.00191315        0.00024382        0.00000798
     123         -0.553952        1.000000        0.00001746        0.00040942        0.00011873        0.00007398
     124         -0.543590        1.000000        0.00056169        0.00159157        0.00227989        0.00208949
     125         -0.537672        1.000000        0.00009347        0.00405479        0.00446881        0.00073738
     126         -0.532880        1.000000        0.00007058        0.00076371        0.00097154        0.00004527
     127         -0.532379        1.000000        0.00029735        0.07438189        0.01096170        0.00348285
     128         -0.531128        1.000000        0.00022148        0.03916209        0.00508561        0.00127191
     129         -0.527802        1.000000        0.00006132        0.02638525        0.00760037        0.00190696
     130         -0.526313        1.000000        0.00016415        0.00145356        0.04910880        0.00324569
     131         -0.525284        1.000000        0.00014697        0.00399669        0.02293289        0.00230834
     132         -0.524916        1.000000        0.00023337        0.00577271        0.01347828        0.00125477
     133         -0.524104        1.000000        0.00011383        0.00368118        0.02663379        0.00179751
     134         -0.522859        1.000000        0.00011966        0.01414723        0.01004160        0.00238138
     135         -0.521135        1.000000        0.00010929        0.00465282        0.00574167        0.00202861
     136         -0.520704        1.000000        0.00051960        0.01927283        0.02552160        0.01064787
     137         -0.518501        1.000000        0.00091742        0.02354605        0.00799795        0.00393872
     138         -0.517134        1.000000        0.00008371        0.16323848        0.00484280        0.00211888
     139         -0.513743        1.000000        0.00013573        0.03129426        0.04732236        0.00473722
     140         -0.513442        1.000000        0.00008994        0.00863965        0.02159016        0.00293483
     141         -0.512403        1.000000        0.00030907        0.00831151        0.02760239        0.00284387
     142         -0.511980        1.000000        0.00006424        0.01710418        0.00573742        0.00167344
     143         -0.511180        1.000000        0.00020614        0.00314130        0.00232720        0.00155439
     144         -0.508735        1.000000        0.00039394        0.02147253        0.04702954        0.01168049
     145         -0.508014        1.000000        0.00002090        0.00262672        0.00162646        0.00090111
     146         -0.507298        1.000000        0.00054828        0.04905860        0.03349946        0.01528102
     147         -0.507097        1.000000        0.00014703        0.00357208        0.01090160        0.00487862
     148         -0.506756        1.000000        0.00038905        0.05020362        0.09577635        0.03824735
     149         -0.505738        1.000000        0.00024427        0.04823238        0.03755900        0.01705455
     150         -0.504724        1.000000        0.00021722        0.00617991        0.06203283        0.02505197
     151         -0.503790        1.000000        0.00040721        0.17108465        0.19247326        0.02131205
     152         -0.503130        1.000000        0.00020471        0.00627808        0.00468248        0.00092563
     153         -0.501974        1.000000        0.00049555        0.01018655        0.00073063        0.00075810
     154         -0.500484        1.000000        0.00019335        0.00777370        0.03204066        0.01980551
     155         -0.499215        1.000000        0.00003758        0.00392778        0.00715714        0.00280912
     156         -0.494404        1.000000        0.00039990        0.21298647        0.16815517        0.02867439
     157         -0.493101        1.000000        0.00007809        0.01487922        0.00273576        0.00121902
     158         -0.490430        1.000000        0.00087871        0.26027331        0.13589159        0.03792542
     159         -0.487925        1.000000        0.00052459        0.41603388        0.03954347        0.06139794
     160         -0.484372        1.000000        0.00000432        0.02374503        0.44814752        0.01329569
     161         -0.474225        1.000000        0.00030515        0.19177757        0.35392869        0.01137453
     162         -0.472411        1.000000        0.00031006        0.20712472        0.16594420        0.07184453
     163         -0.467611        1.000000        0.00034467        0.13035709        0.03161618        0.36549251
     164         -0.467257        1.000000        0.00005869        0.23025771        0.10805428        0.15061605
     165         -0.466394        1.000000        0.00000108        0.00005488        0.00001507        0.00000168
     166         -0.465444        1.000000        0.00000317        0.00018308        0.00022054        0.00017487
     167         -0.463578        1.000000        0.00000070        0.00001416        0.00019664        0.00071230
     168         -0.461164        1.000000        0.00000015        0.00012713        0.00011509        0.00010959
     169         -0.459876        1.000000        0.00000019        0.00124346        0.00350136        0.00344641
     170         -0.457909        1.000000        0.00000087        0.00026893        0.00019352        0.00001778
     171         -0.457140        1.000000        0.00000143        0.00015356        0.00037449        0.00005422
     172         -0.454620        1.000000        0.00000010        0.00005060        0.00004987        0.00007418
     173         -0.454557        1.000000        0.00000059        0.00017251        0.00009065        0.00000084
     174         -0.453293        1.000000        0.00000982        0.00030504        0.00024883        0.00094634
     175         -0.451986        1.000000        0.00000085        0.00007024        0.00001198        0.00001161
     176         -0.451650        1.000000        0.00000129        0.00000145        0.00001196        0.00001713
     177         -0.451124        1.000000        0.00000011        0.00000898        0.00002286        0.00000849
     178         -0.448386        1.000000        0.00000065        0.00010811        0.00001511        0.00000923
     179         -0.447956        1.000000        0.00000022        0.00000726        0.00000067        0.00000120
     180         -0.447381        1.000000        0.00000001        0.00000071        0.00000217        0.00000205
     181         -0.446051        1.000000        0.00000013        0.00001443        0.00000181        0.00000023
     182         -0.444604        1.000000        0.00001759        0.00847337        0.01497905        0.00144291
     183         -0.443529        1.000000        0.00000193        0.00035394        0.00083664        0.00010644
     184         -0.442578        1.000000        0.00005375        0.00108606        0.00127912        0.00006750
     185         -0.442058        1.000000        0.00006828        0.12563581        0.17391398        0.01677672
     186         -0.441615        1.000000        0.00000078        0.00029937        0.00033866        0.00002061
     187         -0.441565        1.000000        0.00001852        0.44521638        0.06977447        0.01411917
     188         -0.441209        1.000000        0.00000026        0.00008378        0.00009574        0.00001441
     189         -0.440943        1.000000        0.00001779        0.03834543        0.06563494        0.00641802
     190         -0.440780        1.000000        0.00000003        0.00111871        0.00017192        0.00002698
     191         -0.439772        1.000000        0.00002003        0.00059504        0.00279519        0.00024473
     192         -0.439643        1.000000        0.00000082        0.00010459        0.00004357        0.00014697
     193         -0.439468        1.000000        0.00001058        0.00030157        0.00085465        0.00024257
     194         -0.438766        1.000000        0.00002848        0.00007959        0.00008331        0.00122283
     195         -0.437781        1.000000        0.00000012        0.00000808        0.00000367        0.00001297
     196         -0.437088        1.000000        0.00002131        0.00992676        0.00299802        0.00081142
     197         -0.436981        1.000000        0.00000147        0.00046800        0.00012787        0.00004794
     198         -0.436264        1.000000        0.00001464        0.00145774        0.00008236        0.00108433
     199         -0.436228        1.000000        0.00000035        0.00002097        0.00003868        0.00000948
     200         -0.434519        1.000000        0.00000133        0.00001820        0.00001097        0.00000128
     201         -0.433651        1.000000        0.00000035        0.00000078        0.00004327        0.00006395
     202         -0.433395        1.000000        0.00008096        0.00640297        0.00935053        0.00375478
     203         -0.432893        1.000000        0.00094521        0.00381736        0.09544017        0.14640175
     204         -0.432315        1.000000        0.00063817        0.00083389        0.08040305        0.11103958
     205         -0.431074        1.000000        0.00003678        0.00248334        0.00001033        0.00008203
     206         -0.430777        1.000000        0.00000986        0.00012295        0.00005569        0.00002034
     207         -0.430194        1.000000        0.00006552        0.00463167        0.00017787        0.00003503
     208         -0.430141        1.000000        0.00002611        0.00178396        0.00007873        0.00003342
     209         -0.428751        1.000000        0.00000097        0.00009476        0.00000541        0.00000500
     210         -0.428715        1.000000        0.00000895        0.00000082        0.00095272        0.00115079
     211         -0.428257        1.000000        0.00015209        0.01811800        0.12223388        0.00300857
     212         -0.427617        1.000000        0.00002584        0.00003250        0.00100044        0.00038712
     213         -0.427504        1.000000        0.00003874        0.00024364        0.00334323        0.00028707
     214         -0.427280        1.000000        0.00000017        0.00000028        0.00000284        0.00000616
     215         -0.425210        1.000000        0.00004875        0.00004835        0.00151429        0.00041934
     216         -0.425118        1.000000        0.00000058        0.00024611        0.00019565        0.00000641
     217         -0.424987        1.000000        0.00000216        0.00006226        0.00002332        0.00006740
     218         -0.424859        1.000000        0.00000139        0.00012025        0.00000997        0.00006148
     219         -0.423450        1.000000        0.00001557        0.00001991        0.00128704        0.00143071
     220         -0.421971        1.000000        0.00011194        0.00001103        0.00330575        0.00199655
     221         -0.421818        1.000000        0.00000081        0.00000189        0.00000568        0.00002009
     222         -0.420486        1.000000        0.00000743        0.00229849        0.00087175        0.00022475
     223         -0.419904        1.000000        0.00000076        0.00000007        0.00001492        0.00002857
     224         -0.418928        1.000000        0.00001723        0.00001609        0.00098373        0.00045186
     225         -0.418212        1.000000        0.00000397        0.00000205        0.00000185        0.00013268
     226         -0.418139        1.000000        0.00001610        0.01802564        0.00273762        0.00000883
     227         -0.417896        1.000000        0.00003812        0.07382601        0.02997736        0.00011995
     228         -0.417423        1.000000        0.00000286        0.00000090        0.00001785        0.00016111
     229         -0.416896        1.000000        0.00002164        0.12323886        0.04198006        0.00005651
     230         -0.416379        1.000000        0.00002058        0.03125309        0.00883892        0.00001553
     231         -0.414900        1.000000        0.00002886        0.00147181        0.00007901        0.00004449
     232         -0.414682        1.000000        0.00001292        0.01937697        0.00132908        0.00017461
     233         -0.414340        1.000000        0.00001112        0.00053824        0.00014926        0.00002621
     234         -0.414234        1.000000        0.00002925        0.00010978        0.00073852        0.00070970
     235         -0.413972        1.000000        0.00001651        0.00004547        0.00056368        0.00036938
     236         -0.413211        1.000000        0.00001038        0.00000155        0.00004889        0.00035922
     237         -0.412848        1.000000        0.00028620        0.00003649        0.00084751        0.01142791
     238         -0.412768        1.000000        0.00007137        0.00030501        0.00441597        0.00401530
     239         -0.412386        1.000000        0.00001441        0.00000070        0.00006587        0.00059865
     240         -0.412105        1.000000        0.00001750        0.00007515        0.00137241        0.00048733
     241         -0.411498        1.000000        0.00895226        0.00038847        0.04085067        0.36040630
     242         -0.410757        1.000000        0.00009582        0.00571833        0.01181668        0.00257067
     243         -0.410509        1.000000        0.00052227        0.00017538        0.00791820        0.01525627
     244         -0.410267        1.000000        0.00000812        0.00010476        0.00069398        0.00030104
     245         -0.409240        1.000000        0.00017342        0.00063714        0.00143674        0.00538245
     246         -0.408473        1.000000        0.00014684        0.00001099        0.00060002        0.00750405
     247         -0.407763        1.000000        0.00883038        0.00045376        0.09657582        0.29068241
     248         -0.405404        1.000000        0.00007147        0.00031438        0.00109644        0.00160378
     249         -0.404502        1.000000        0.00010705        0.00001692        0.00011964        0.00235048
     250         -0.402621        1.000000        0.00000260        0.00000805        0.00001659        0.00016980
     251         -0.402183        1.000000        0.00001236        0.00002076        0.00010295        0.00061427
     252         -0.402142        1.000000        0.00003339        0.00026434        0.00151501        0.00135616
     253         -0.401512        1.000000        0.00003117        0.00001023        0.00010556        0.00062598
     254         -0.399956        1.000000        0.00000092        0.00000461        0.00000993        0.00003768
     255         -0.399477        1.000000        0.00002576        0.00029504        0.00047199        0.00166995
     256         -0.398608        1.000000        0.00001828        0.00030415        0.00024946        0.00029098
     257         -0.397591        1.000000        0.00025312        0.00136809        0.00006750        0.01185589
     258         -0.397526        1.000000        0.00000521        0.00002774        0.00000060        0.00021949
     259         -0.397178        1.000000        0.00426252        0.03022101        0.00039141        0.20600094