# Projected DOS for atomic kind O at iteration step i = 0, E(Fermi) =    -0.111168 a.u.
#     MO Eigenvalue [a.u.]      Occupation                 s                py                pz                px
       1         -0.906229        1.000000        0.71179097        0.01256026        0.01592555        0.00306628
       2         -0.902011        1.000000        0.71113405        0.01717814        0.00236924        0.01399160
       3         -0.899768        1.000000        0.71835473        0.00007423        0.00857289        0.02250493
       4         -0.898956        1.000000        0.71385755        0.01923234        0.00433017        0.00319653
       5         -0.897436        1.000000        0.70671496        0.00763645        0.00981960        0.02114250
       6         -0.893488        1.000000        0.70864240        0.01070054        0.01344030        0.01155276
       7         -0.893314        1.000000        0.70651125        0.01172004        0.01553035        0.00871435
       8         -0.892228        1.000000        0.71219687        0.03172841        0.00111819        0.00079768
       9         -0.891855        1.000000        0.70925719        0.02081469        0.01247456        0.00349585
      10         -0.891604        1.000000        0.71229570        0.00452954        0.02657478        0.00380764
      11         -0.887061        1.000000        0.70782968        0.03210723        0.00236104        0.00209758
      12         -0.886307        1.000000        0.70483932        0.01310475        0.02014667        0.00482016
      13         -0.885528        1.000000        0.00008266        0.00000499        0.00000223        0.00000965
      14         -0.884536        1.000000        0.68202705        0.00999818        0.00607902        0.00318233
      15         -0.883183        1.000000        0.00174134        0.00004686        0.00001939        0.00000284
      16         -0.881886        1.000000        0.70585197        0.02741063        0.00539916        0.00399343
      17         -0.881072        1.000000        0.70211934        0.02745442        0.00971837        0.00213065
      18         -0.880815        1.000000        0.70640276        0.00649009        0.01056543        0.01955010
      19         -0.880151        1.000000        0.70451754        0.01120892        0.00251719        0.00409485
      20         -0.878676        1.000000        0.70341882        0.00739138        0.00351329        0.00345555
      21         -0.877396        1.000000        0.70588735        0.02398683        0.01093883        0.00195624
      22         -0.877141        1.000000        0.71200926        0.00995128        0.00657558        0.00668092
      23         -0.875955        1.000000        0.72393767        0.00962741        0.00613871        0.00424842
      24         -0.875899        1.000000        0.70624200        0.03437054        0.00273224        0.00070929
      25         -0.872960        1.000000        0.70675937        0.00230685        0.02403256        0.01241136
      26         -0.870595        1.000000        0.70195121        0.02743304        0.01394030        0.00026170
      27         -0.870520        1.000000        0.71018903        0.01405393        0.00786289        0.00888843
      28         -0.869499        1.000000        0.00000034        0.00000001        0.00000000        0.00000001
      29         -0.869167        1.000000        0.71372273        0.00664009        0.00416123        0.00756359
      30         -0.868231        1.000000        0.71027787        0.01018636        0.00143686        0.01130642
      31         -0.867351        1.000000        0.70090795        0.01260116        0.01064545        0.00907377
      32         -0.865917        1.000000        0.72007359        0.00172757        0.00763166        0.00666154
      33         -0.863792        1.000000        0.70156194        0.01763392        0.00704780        0.01312272
      34         -0.862569        1.000000        0.70981981        0.00531223        0.00772529        0.00813925
      35         -0.861565        1.000000        0.69967451        0.01002165        0.00374573        0.00416364
      36         -0.861384        1.000000        0.65577484        0.00976151        0.00409474        0.00832491
      37         -0.860832        1.000000        0.72203885        0.00824031        0.00462809        0.01352973
      38         -0.860061        1.000000        0.71806688        0.01234618        0.00394428        0.01062074
      39         -0.859984        1.000000        0.71459939        0.01152630        0.00011899        0.00596437
      40         -0.859942        1.000000        0.71168690        0.00997348        0.00552863        0.00192371
      41         -0.858807        1.000000        0.66257922        0.01164541        0.01231538        0.00373385
      42         -0.857688        1.000000        0.70284400        0.00471286        0.00696495        0.00958263
      43         -0.855725        1.000000        0.72153170        0.00403004        0.00453351        0.00824055
      44         -0.855265        1.000000        0.70590740        0.00647865        0.00786449        0.00952497
      45         -0.854546        1.000000        0.71903284        0.01161458        0.01145046        0.01189269
      46         -0.854081        1.000000        0.72193111        0.00930429        0.00865226        0.00722732
      47         -0.852687        1.000000        0.32587099        0.00977115        0.00095290        0.00262731
      48         -0.852463        1.000000        0.66518928        0.03862895        0.00487612        0.00204380
      49         -0.850443        1.000000        0.74560111        0.00776650        0.01778436        0.00228985
      50         -0.849476        1.000000        0.73448964        0.01084955        0.00854760        0.00814915
      51         -0.848522        1.000000        0.70779966        0.00867346        0.01995257        0.00177537
      52         -0.848463        1.000000        0.71802131        0.00790621        0.01141832        0.00641558
      53         -0.848364        1.000000        0.65593172        0.00872515        0.00492842        0.01416008
      54         -0.846974        1.000000        0.71756327        0.01282478        0.00994132        0.00732443
      55         -0.846330        1.000000        0.72024481        0.00742288        0.00635309        0.00875854
      56         -0.845537        1.000000        0.71244235        0.01788937        0.01396833        0.00801485
      57         -0.845446        1.000000        0.73190852        0.01283885        0.00618990        0.00545517
      58         -0.843877        1.000000        0.70944923        0.02318292        0.01558788        0.00286728
      59         -0.843168        1.000000        0.71525984        0.02482349        0.00489534        0.00488272
      60         -0.842759        1.000000        0.69302482        0.00317532        0.04042767        0.00660015
      61         -0.842650        1.000000        0.27895370        0.01051708        0.00148593        0.00418626
      62         -0.842256        1.000000        0.72872182        0.00831448        0.00368830        0.01928608
      63         -0.841264        1.000000        0.72203949        0.01347356        0.00772789        0.01315682
      64         -0.840214        1.000000        0.69675173        0.01318238        0.00456459        0.01491949
      65         -0.837594        1.000000        0.69835133        0.00977982        0.00699035        0.00804673
      66         -0.837527        1.000000        0.72164226        0.01032878        0.00991974        0.01693802
      67         -0.837245        1.000000        0.75413250        0.01106610        0.00695485        0.01442919
      68         -0.837111        1.000000        0.73965053        0.01667306        0.00829224        0.00451175
      69         -0.837058        1.000000        0.69743457        0.03675031        0.00466824        0.00593196
      70         -0.836314        1.000000        0.69218045        0.04072677        0.00030565        0.00857952
      71         -0.835576        1.000000        0.72563273        0.01689628        0.00262109        0.01644064
      72         -0.834939        1.000000        0.72073909        0.02004790        0.01625231        0.00078923
      73         -0.834233        1.000000        0.73381196        0.01808837        0.00779232        0.01214418
      74         -0.833619        1.000000        0.71558398        0.00814415        0.01222220        0.00861326
      75         -0.830626        1.000000        0.64743761        0.01699386        0.00421288        0.00748161
      76         -0.830612        1.000000        0.70322257        0.01458032        0.00715128        0.00784252
      77         -0.830142        1.000000        0.65770712        0.01305172        0.01202457        0.01009332
      78         -0.828566        1.000000        0.72268034        0.00799924        0.01539394        0.00947015
      79         -0.828323        1.000000        0.71764452        0.02087853        0.00898570        0.00628966
      80         -0.828086        1.000000        0.74784658        0.01522906        0.01250413        0.00550127
      81         -0.827138        1.000000        0.74306459        0.00863325        0.01350781        0.01273766
      82         -0.825986        1.000000        0.73835710        0.01002664        0.00834528        0.01556092
      83         -0.824255        1.000000        0.63947574        0.01342092        0.00622464        0.00950238
      84         -0.824186        1.000000        0.77279980        0.01266643        0.00738050        0.01748657
      85         -0.823340        1.000000        0.76791161        0.01220250        0.01098131        0.01142424
      86         -0.822306        1.000000        0.69650977        0.02946404        0.01319795        0.00660349
      87         -0.819530        1.000000        0.70733844        0.01052773        0.02231793        0.00664396
      88         -0.817999        1.000000        0.72712833        0.01615937        0.00365962        0.02275782
      89         -0.817505        1.000000        0.60324567        0.01059001        0.00796191        0.00901010
      90         -0.816929        1.000000        0.76343649        0.01264200        0.00967104        0.01248459
      91         -0.815376        1.000000        0.77338490        0.02762503        0.00506229        0.00571836
      92         -0.814795        1.000000        0.62403441        0.01088738        0.00836318        0.01242606
      93         -0.814747        1.000000        0.73181836        0.01534890        0.00794045        0.01717950
      94         -0.814638        1.000000        0.68919911        0.00235011        0.02440750        0.02087668
      95         -0.813569        1.000000        0.76036775        0.01201069        0.00930887        0.01590381
      96         -0.813454        1.000000        0.70571609        0.00383713        0.02852385        0.01447029
      97         -0.811324        1.000000        0.77034044        0.00482971        0.01007305        0.02111992
      98         -0.808512        1.000000        0.47685558        0.00907940        0.00890583        0.00874329
      99         -0.808315        1.000000        0.70178813        0.04392098        0.00275694        0.00204122
     100         -0.807191        1.000000        0.78691718        0.00158816        0.00687168        0.02571802
     101         -0.803634        1.000000        0.77827111        0.00468397        0.01418440        0.01692728
     102         -0.800437        1.000000        0.78596916        0.00535046        0.01249105        0.01979858
     103         -0.799960        1.000000        0.71453329        0.01459328        0.00151012        0.03333071
     104         -0.796070        1.000000        0.70633510        0.00621691        0.04069335        0.00192345
     105         -0.793523        1.000000        0.70710094        0.03031386        0.01008031        0.00708556
     106         -0.791372        1.000000        0.70932824        0.01389567        0.03125838        0.00441163
     107         -0.790678        1.000000        0.12051988        0.00967860        0.00137604        0.00404704
     108         -0.787351        1.000000        0.62601240        0.01605828        0.00337244        0.01057259
     109         -0.786916        1.000000        0.82204431        0.01492554        0.00586776        0.00877705
     110         -0.786487        1.000000        0.70961999        0.00607130        0.03261079        0.00836031
     111         -0.779709        1.000000        0.77596340        0.01536668        0.00500919        0.02300651
     112         -0.630417        1.000000        0.00036953        0.00002975        0.00010668        0.00037660
     113         -0.627283        1.000000        0.00014424        0.00003184        0.00046655        0.00005107
     114         -0.616952        1.000000        0.00000064        0.00000031        0.00000020        0.00000046
     115         -0.614874        1.000000        0.00025107        0.00097057        0.00040484        0.00000852
     116         -0.593016        1.000000        0.00078041        0.00070229        0.00062974        0.00150412
     117         -0.592772        1.000000        0.03063184        0.00186992        0.02884128        0.00532651
     118         -0.577770        1.000000        0.00638482        0.00341493        0.01350530        0.00865167
     119         -0.576063        1.000000        0.00047618        0.00017422        0.00030860        0.00084407
     120         -0.574103        1.000000        0.00509190        0.00721997        0.00252486        0.00098418
     121         -0.570753        1.000000        0.00036514        0.00197740        0.00077552        0.00071911
     122         -0.568747        1.000000        0.01891970        0.02878615        0.00903871        0.00153873
     123         -0.553952        1.000000        0.00459706        0.01390513        0.00665486        0.00126101
     124         -0.543590        1.000000        0.00182281        0.00091448        0.00144142        0.00040974
     125         -0.537672        1.000000        0.00062674        0.00033908        0.00127055        0.00295308
     126         -0.532880        1.000000        0.00183929        0.00161147        0.02851044        0.00052938
     127         -0.532379        1.000000        0.00058585        0.00101441        0.00160695        0.00109143
     128         -0.531128        1.000000        0.00151514        0.00345051        0.00510406        0.00393195
     129         -0.527802        1.000000        0.00108087        0.00233370        0.00315071        0.00207997
     130         -0.526313        1.000000        0.00032651        0.00073111        0.00135613        0.00077837
     131         -0.525284        1.000000        0.00049784        0.00094011        0.00057831        0.00147714
     132         -0.524916        1.000000        0.00070422        0.00130707        0.00200097        0.00128997
     133         -0.524104        1.000000        0.00176576        0.00122570        0.00131910        0.00086725
     134         -0.522859        1.000000        0.00202281        0.00102068        0.00299502        0.00108968
     135         -0.521135        1.000000        0.00152384        0.00511421        0.00702246        0.00673059
     136         -0.520704        1.000000        0.00061686        0.00160891        0.00297138        0.00213845
     137         -0.518501        1.000000        0.00032261        0.00026483        0.00048324        0.00084659
     138         -0.517134        1.000000        0.00082649        0.00294678        0.00537356        0.00155981
     139         -0.513743        1.000000        0.00057154        0.00234809        0.00145720        0.00178763
     140         -0.513442        1.000000        0.00077741        0.00294393        0.00195750        0.00224336
     141         -0.512403        1.000000        0.00093539        0.00452237        0.00265391        0.00348775
     142         -0.511980        1.000000        0.00148601        0.00515759        0.00498047        0.00309546
     143         -0.511180        1.000000        0.00116730        0.00528587        0.00354349        0.00500056
     144         -0.508735        1.000000        0.00071067        0.00272242        0.00274492        0.00510462
     145         -0.508014        1.000000        0.00030136        0.00107442        0.00088207        0.00093117
     146         -0.507298        1.000000        0.00102913        0.00577430        0.00272113        0.00746585
     147         -0.507097        1.000000        0.00209192        0.00669204        0.00567815        0.00529699
     148         -0.506756        1.000000        0.00055236        0.00175133        0.00158519        0.00184076
     149         -0.505738        1.000000        0.00055469        0.00343883        0.00117995        0.00447465
     150         -0.504724        1.000000        0.00079951        0.01381713        0.00237710        0.01891880
     151         -0.503790        1.000000        0.00009191        0.00049652        0.00045855        0.00042584
     152         -0.503130        1.000000        0.00061457        0.00201929        0.00335229        0.00682675
     153         -0.501974        1.000000        0.00162167        0.01459040        0.01848338        0.02438471
     154         -0.500484        1.000000        0.00057756        0.00374283        0.00182902        0.00498098
     155         -0.499215        1.000000        0.00189513        0.00722396        0.00406086        0.01496874
     156         -0.494404        1.000000        0.00009524        0.00064215        0.00051243        0.00062341
     157         -0.493101        1.000000        0.00034655        0.00914316        0.00363116        0.00662673
     158         -0.490430        1.000000        0.00023485        0.00305892        0.00445831        0.00241264
     159         -0.487925        1.000000        0.00002601        0.00064778        0.00029503        0.00042780
     160         -0.484372        1.000000        0.00002836        0.00035938        0.00062752        0.00031198
     161         -0.474225        1.000000        0.00012814        0.00042962        0.00039964        0.00287773
     162         -0.472411        1.000000        0.00011140        0.04693773        0.00233240        0.01919839
     163         -0.467611        1.000000        0.00010543        0.00787646        0.00347673        0.05611190
     164         -0.467257        1.000000        0.00035866        0.02234041        0.00897205        0.01069778
     165         -0.466394        1.000000        0.00114922        0.22207124        0.38428829        0.02382317
     166         -0.465444        1.000000        0.00280685        0.32582186        0.02162408        0.23828260
     167         -0.463578        1.000000        0.00016472        0.04492185        0.43832503        0.15949418
     168         -0.461164        1.000000        0.00197206        0.06562074        0.28701126        0.26996245
     169         -0.459876        1.000000        0.00031119        0.08814663        0.25209673        0.29339159
     170         -0.457909        1.000000        0.00111548        0.19506033        0.16382928        0.25573014
     171         -0.457140        1.000000        0.00144087        0.14901320        0.18010260        0.27337461
     172         -0.454620        1.000000        0.00141515        0.29748487        0.26962221        0.05847413
     173         -0.454557        1.000000        0.00256695        0.15137032        0.35110485        0.14071012
     174         -0.453293        1.000000        0.00126693        0.24455042        0.26573012        0.14082883
     175         -0.451986        1.000000        0.00051885        0.20419962        0.40237222        0.03293887
     176         -0.451650        1.000000        0.00044373        0.03685180        0.32243420        0.28347262
     177         -0.451124        1.000000        0.00260203        0.20719009        0.36508636        0.08112693
     178         -0.448386        1.000000        0.00130285        0.30248537        0.05940846        0.25859402
     179         -0.447956        1.000000        0.00048809        0.32823243        0.03916045        0.26914469
     180         -0.447381        1.000000        0.00053625        0.00767620        0.12620439        0.50470804
     181         -0.446051        1.000000        0.00072943        0.05907695        0.39864260        0.19195335
     182         -0.444604        1.000000        0.00169241        0.00733437        0.20484064        0.38316803
     183         -0.443529        1.000000        0.00295880        0.25725852        0.36888270        0.01693814
     184         -0.442578        1.000000        0.00100654        0.25626987        0.28938587        0.07538128
     185         -0.442058        1.000000        0.00106761        0.11071775        0.09720324        0.06991840
     186         -0.441615        1.000000        0.00277116        0.11730252        0.17244570        0.35827394
     187         -0.441565        1.000000        0.00031492        0.01120648        0.01418094        0.01644424
     188         -0.441209        1.000000        0.00139175        0.08965862        0.33433185        0.23133815
     189         -0.440943        1.000000        0.00154600        0.25081977        0.19860858        0.04645006
     190         -0.440780        1.000000        0.00170509        0.04851357        0.05451591        0.50867101
     191         -0.439772        1.000000        0.00206400        0.35770751        0.06313798        0.20115132
     192         -0.439643        1.000000        0.00174825        0.28605996        0.20946220        0.16923209
     193         -0.439468        1.000000        0.00114529        0.32085338        0.19928231        0.11566136
     194         -0.438766        1.000000        0.00241463        0.16420900        0.42641686        0.04840046
     195         -0.437781        1.000000        0.00115857        0.20670368        0.21205872        0.23889929
     196         -0.437088        1.000000        0.00132783        0.16653356        0.28254816        0.17184104
     197         -0.436981        1.000000        0.00290560        0.05136556        0.40919970        0.18751688
     198         -0.436264        1.000000        0.00237184        0.14939824        0.17468563        0.31643902
     199         -0.436228        1.000000        0.00131627        0.42888732        0.13066625        0.09423624
     200         -0.434519        1.000000        0.00046114        0.03466026        0.03241483        0.56714746
     201         -0.433651        1.000000        0.00411178        0.32468529        0.10264925        0.22624871
     202         -0.433395        1.000000        0.00179911        0.25563844        0.21855164        0.14582624
     203         -0.432893        1.000000        0.00062938        0.06758482        0.12046889        0.17601856
     204         -0.432315        1.000000        0.00056464        0.06968626        0.13466953        0.21646772
     205         -0.431074        1.000000        0.00208559        0.22824903        0.17552525        0.23993643
     206         -0.430777        1.000000        0.00007829        0.17608164        0.36469589        0.08920378
     207         -0.430194        1.000000        0.00219624        0.19768390        0.13566497        0.30175833
     208         -0.430141        1.000000        0.00147626        0.32050486        0.11529982        0.19956468
     209         -0.428751        1.000000        0.00159125        0.36233959        0.10562963        0.16999933
     210         -0.428715        1.000000        0.00700692        0.09623414        0.14979233        0.40361948
     211         -0.428257        1.000000        0.00403724        0.02762258        0.31831994        0.13264832
     212         -0.427617        1.000000        0.00256585        0.14864733        0.09757815        0.40030614
     213         -0.427504        1.000000        0.00165869        0.19838058        0.23978507        0.21080556
     214         -0.427280        1.000000        0.00358837        0.16139408        0.35244523        0.14765215
     215         -0.425210        1.000000        0.00342648        0.28058021        0.15610752        0.21154907
     216         -0.425118        1.000000        0.00396040        0.25259805        0.29226137        0.10716641
     217         -0.424987        1.000000        0.00348927        0.29281610        0.17684182        0.17261861
     218         -0.424859        1.000000        0.00249261        0.32887315        0.17307931        0.13453903
     219         -0.423450        1.000000        0.00596984        0.12965315        0.30290261        0.22109975
     220         -0.421971        1.000000        0.00335653        0.24449039        0.20839718        0.19233451
     221         -0.421818        1.000000        0.00293179        0.29499798        0.16177339        0.19472940
     222         -0.420486        1.000000        0.00418536        0.06221364        0.16024255        0.41496350
     223         -0.419904        1.000000        0.00265851        0.15409983        0.37054211        0.11603573
     224         -0.418928        1.000000        0.00279763        0.09282507        0.05346471        0.49558250
     225         -0.418212        1.000000        0.00620979        0.32287911        0.11083239        0.20742437
     226         -0.418139        1.000000        0.00141281        0.18991294        0.07832948        0.35152664
     227         -0.417896        1.000000        0.00462034        0.19257643        0.23341580        0.11090827
     228         -0.417423        1.000000        0.00383152        0.05614635        0.37483146        0.20805515
     229         -0.416896        1.000000        0.00247275        0.18876001        0.17143690        0.10272376
     230         -0.416379        1.000000        0.00246025        0.30682251        0.15117953        0.14913249
     231         -0.414900        1.000000        0.00197850        0.14008637        0.23466722        0.28129003
     232         -0.414682        1.000000        0.00442849        0.20003789        0.21906592        0.19811146
     233         -0.414340        1.000000        0.00374765        0.16173705        0.09129150        0.39712156
     234         -0.414234        1.000000        0.00375256        0.29210713        0.23186644        0.11357495
     235         -0.413972        1.000000        0.00390222        0.32313436        0.22461856        0.09038105
     236         -0.413211        1.000000        0.00420549        0.19924936        0.06402996        0.38948231
     237         -0.412848        1.000000        0.00238006        0.28105750        0.05209353        0.28835037
     238         -0.412768        1.000000        0.00238473        0.34155058        0.03652366        0.25851769
     239         -0.412386        1.000000        0.00368079        0.25389198        0.04319902        0.35558426
     240         -0.412105        1.000000        0.00041509        0.09040504        0.33032825        0.13319677
     241         -0.411498        1.000000        0.00046997        0.01363449        0.00660862        0.01645668
     242         -0.410757        1.000000        0.00240081        0.25406683        0.08520656        0.22100176
     243         -0.410509        1.000000        0.00498718        0.03171051        0.14061649        0.42204719
     244         -0.410267        1.000000        0.00356037        0.05204086        0.08942940        0.49362878
     245         -0.409240        1.000000        0.00108509        0.03658048        0.08495590        0.07005784
     246         -0.408473        1.000000        0.00112642        0.23796001        0.18997442        0.17856622
     247         -0.407763        1.000000        0.00055772        0.00515791        0.01221165        0.03913031
     248         -0.405404        1.000000        0.00187732        0.11013852        0.30033809        0.21693855
     249         -0.404502        1.000000        0.00196016        0.30243086        0.09376297        0.24386995
     250         -0.402621        1.000000        0.00525315        0.16343006        0.10314747        0.38270517
     251         -0.402183        1.000000        0.00480668        0.04367206        0.13300745        0.46215449
     252         -0.402142        1.000000        0.00558447        0.11154281        0.25026338        0.27708757
     253         -0.401512        1.000000        0.00235620        0.23904108        0.30850549        0.09173162
     254         -0.399956        1.000000        0.00006463        0.09705213        0.04010280        0.49057151
     255         -0.399477        1.000000        0.00079358        0.02375181        0.05362386        0.02822971
     256         -0.398608        1.000000        0.00082783        0.03633137        0.21994188        0.08260136
     257         -0.397591        1.000000        0.00214359        0.16564936        0.25917581        0.12037415
     258         -0.397526        1.000000        0.00295456        0.16177296        0.11974172        0.35542810
     259         -0.397178        1.000000        0.00112055        0.04618226        0.04394960        0.04620322