# Projected DOS for atomic kind Pb at iteration step i = 0, E(Fermi) =    -0.112191 a.u.
#     MO Eigenvalue [a.u.]      Occupation                 s                py                pz                px
       1         -0.906228        1.000000        0.00000004        0.00000016        0.00000000        0.00000003
       2         -0.902011        1.000000        0.00000023        0.00000118        0.00000003        0.00000094
       3         -0.899760        1.000000        0.00000018        0.00000109        0.00000011        0.00000000
       4         -0.898957        1.000000        0.00000021        0.00000022        0.00000023        0.00000117
       5         -0.897438        1.000000        0.00000012        0.00000061        0.00000003        0.00000006
       6         -0.893488        1.000000        0.00000001        0.00000004        0.00000001        0.00000000
       7         -0.893323        1.000000        0.00000033        0.00000004        0.00000001        0.00000135
       8         -0.892228        1.000000        0.00000007        0.00000040        0.00000029        0.00000060
       9         -0.891855        1.000000        0.00000013        0.00000118        0.00000062        0.00000001
      10         -0.891605        1.000000        0.00000086        0.00000306        0.00001393        0.00000674
      11         -0.887063        1.000000        0.00000004        0.00000001        0.00000001        0.00000018
      12         -0.886306        1.000000        0.00000014        0.00000143        0.00000015        0.00000071
      13         -0.885534        1.000000        0.00000031        0.00000248        0.00000575        0.00000066
      14         -0.884543        1.000000        0.00000020        0.00000113        0.00000016        0.00000033
      15         -0.883184        1.000000        0.00000046        0.00000565        0.00000679        0.00000309
      16         -0.881888        1.000000        0.00000022        0.00000004        0.00000018        0.00000192
      17         -0.881073        1.000000        0.00000045        0.00000013        0.00000148        0.00000005
      18         -0.880817        1.000000        0.00000073        0.00000422        0.00000005        0.00001554
      19         -0.880151        1.000000        0.00000077        0.00000247        0.00000136        0.00000544
      20         -0.878676        1.000000        0.00000091        0.00000253        0.00000325        0.00001116
      21         -0.877398        1.000000        0.00000018        0.00000000        0.00000004        0.00000076
      22         -0.877142        1.000000        0.00000001        0.00000016        0.00000002        0.00000014
      23         -0.875957        1.000000        0.00000058        0.00000012        0.00000279        0.00000024
      24         -0.875883        1.000000        0.00000043        0.00000506        0.00000338        0.00000393
      25         -0.872990        1.000000        0.00000005        0.00000001        0.00000028        0.00000000
      26         -0.870597        1.000000        0.00000012        0.00000056        0.00000091        0.00000008
      27         -0.870512        1.000000        0.00000001        0.00000133        0.00000012        0.00000434
      28         -0.869501        1.000000        0.00000054        0.00000578        0.00000555        0.00000416
      29         -0.869167        1.000000        0.00000019        0.00000015        0.00001119        0.00000159
      30         -0.868232        1.000000        0.00000034        0.00000010        0.00000009        0.00000207
      31         -0.867351        1.000000        0.00000067        0.00000005        0.00000017        0.00000934
      32         -0.865916        1.000000        0.00000014        0.00000137        0.00000003        0.00000015
      33         -0.863797        1.000000        0.00000007        0.00000012        0.00000007        0.00000082
      34         -0.862570        1.000000        0.00000015        0.00000059        0.00000046        0.00000070
      35         -0.862151        1.000000        0.00000041        0.00000045        0.00000634        0.00000057
      36         -0.861388        1.000000        0.00000005        0.00000091        0.00000238        0.00000139
      37         -0.860832        1.000000        0.00000055        0.00000160        0.00000305        0.00000535
      38         -0.860060        1.000000        0.00000033        0.00000105        0.00000057        0.00000092
      39         -0.859985        1.000000        0.00000063        0.00000093        0.00000229        0.00001034
      40         -0.859943        1.000000        0.00000074        0.00000030        0.00000399        0.00000027
      41         -0.858815        1.000000        0.00000010        0.00000093        0.00000223        0.00000128
      42         -0.857704        1.000000        0.00000062        0.00000163        0.00000055        0.00000252
      43         -0.855725        1.000000        0.00000023        0.00000213        0.00000124        0.00000138
      44         -0.855308        1.000000        0.00000016        0.00000319        0.00000054        0.00000049
      45         -0.854547        1.000000        0.00000004        0.00000045        0.00000023        0.00000324
      46         -0.854079        1.000000        0.00000027        0.00000013        0.00000173        0.00000013
      47         -0.852657        1.000000        0.00000148        0.00000965        0.00000519        0.00000023
      48         -0.852461        1.000000        0.00000003        0.00000131        0.00000084        0.00000016
      49         -0.850437        1.000000        0.00000062        0.00000022        0.00000398        0.00000071
      50         -0.849658        1.000000        0.00000002        0.00000110        0.00000061        0.00000055
      51         -0.849477        1.000000        0.00000089        0.00000018        0.00000615        0.00000330
      52         -0.848523        1.000000        0.00000048        0.00000001        0.00000559        0.00000009
      53         -0.848365        1.000000        0.00000001        0.00000017        0.00000012        0.00000056
      54         -0.846974        1.000000        0.00000005        0.00000028        0.00000047        0.00000029
      55         -0.846331        1.000000        0.00000004        0.00000093        0.00000086        0.00000010
      56         -0.845537        1.000000        0.00000001        0.00000002        0.00000003        0.00000006
      57         -0.845453        1.000000        0.00000020        0.00000023        0.00000087        0.00000021
      58         -0.843873        1.000000        0.00000039        0.00000220        0.00000626        0.00000392
      59         -0.843078        1.000000        0.00000001        0.00000037        0.00000001        0.00000042
      60         -0.842759        1.000000        0.00000001        0.00000007        0.00000004        0.00000005
      61         -0.842652        1.000000        0.00000149        0.00001045        0.00001416        0.00001031
      62         -0.842257        1.000000        0.00000015        0.00000305        0.00000518        0.00000126
      63         -0.841270        1.000000        0.00000003        0.00000114        0.00000067        0.00000018
      64         -0.840215        1.000000        0.00000028        0.00000006        0.00000022        0.00000111
      65         -0.837607        1.000000        0.00000023        0.00000026        0.00000033        0.00000028
      66         -0.837528        1.000000        0.00000013        0.00000002        0.00000084        0.00000079
      67         -0.837248        1.000000        0.00000005        0.00000316        0.00000718        0.00000261
      68         -0.837113        1.000000        0.00000050        0.00000019        0.00000250        0.00000024
      69         -0.837058        1.000000        0.00000000        0.00000002        0.00000001        0.00000001
      70         -0.836316        1.000000        0.00000022        0.00000000        0.00000080        0.00000002
      71         -0.835570        1.000000        0.00000037        0.00000160        0.00000059        0.00000041
      72         -0.835146        1.000000        0.00000003        0.00000017        0.00000045        0.00000003
      73         -0.834265        1.000000        0.00000030        0.00000090        0.00000026        0.00000042
      74         -0.833716        1.000000        0.00000012        0.00000067        0.00000083        0.00000084
      75         -0.832270        1.000000        0.00000001        0.00000016        0.00000010        0.00000139
      76         -0.830530        1.000000        0.00000314        0.00001893        0.00000797        0.00000070
      77         -0.830148        1.000000        0.00000040        0.00000250        0.00000387        0.00000302
      78         -0.828570        1.000000        0.00000002        0.00000008        0.00000040        0.00000003
      79         -0.828337        1.000000        0.00000037        0.00000036        0.00000027        0.00000358
      80         -0.828084        1.000000        0.00000050        0.00000021        0.00000237        0.00000037
      81         -0.827408        1.000000        0.00000075        0.00000507        0.00000095        0.00000022
      82         -0.825987        1.000000        0.00000025        0.00000170        0.00000082        0.00000006
      83         -0.824255        1.000000        0.00000009        0.00000015        0.00000031        0.00000037
      84         -0.824191        1.000000        0.00000049        0.00000053        0.00000007        0.00000142
      85         -0.823334        1.000000        0.00000009        0.00000087        0.00000043        0.00000025
      86         -0.822305        1.000000        0.00000001        0.00000000        0.00000000        0.00000010
      87         -0.819547        1.000000        0.00000003        0.00000019        0.00000014        0.00000011
      88         -0.818000        1.000000        0.00000019        0.00000004        0.00000009        0.00000058
      89         -0.817511        1.000000        0.00000107        0.00000101        0.00000083        0.00000152
      90         -0.816928        1.000000        0.00000020        0.00000054        0.00000102        0.00000030
      91         -0.815376        1.000000        0.00000049        0.00000069        0.00000330        0.00000597
      92         -0.814802        1.000000        0.00000018        0.00000608        0.00000075        0.00000006
      93         -0.814753        1.000000        0.00000018        0.00000007        0.00000008        0.00000053
      94         -0.814638        1.000000        0.00000012        0.00000029        0.00000080        0.00000206
      95         -0.814371        1.000000        0.00000124        0.00000119        0.00001071        0.00000125
      96         -0.814118        1.000000        0.00000184        0.00000994        0.00000284        0.00000007
      97         -0.813460        1.000000        0.00000000        0.00000012        0.00000026        0.00000000
      98         -0.808517        1.000000        0.00000031        0.00000110        0.00000140        0.00000105
      99         -0.808315        1.000000        0.00000000        0.00000000        0.00000000        0.00000000
     100         -0.807186        1.000000        0.00000862        0.00005664        0.00000690        0.00000018
     101         -0.803632        1.000000        0.00000027        0.00000009        0.00000150        0.00000013
     102         -0.801340        1.000000        0.00000389        0.00001954        0.00000074        0.00000000
     103         -0.797839        1.000000        0.00000057        0.00000005        0.00000197        0.00000007
     104         -0.797804        1.000000        0.00000029        0.00000004        0.00000101        0.00000105
     105         -0.796251        1.000000        0.00000003        0.00000010        0.00000004        0.00000031
     106         -0.793600        1.000000        0.00000002        0.00000028        0.00000019        0.00000000
     107         -0.791391        1.000000        0.00000000        0.00000009        0.00000000        0.00000008
     108         -0.790678        1.000000        0.00000015        0.00000053        0.00000083        0.00000077
     109         -0.787303        1.000000        0.00000022        0.00000078        0.00000093        0.00000072
     110         -0.786793        1.000000        0.00000003        0.00000009        0.00000002        0.00000000
     111         -0.786527        1.000000        0.00002730        0.00000458        0.00014845        0.00000412
     112         -0.630423        1.000000        0.00001763        0.00002056        0.00001721        0.00000672
     113         -0.627284        1.000000        0.00004479        0.00003120        0.00004188        0.00001262
     114         -0.616953        1.000000        0.00005605        0.00005417        0.00004546        0.00001459
     115         -0.614875        1.000000        0.00003211        0.00003730        0.00004898        0.00002467
     116         -0.593027        1.000000        0.00004821        0.00002483        0.00007083        0.00000323
     117         -0.592899        1.000000        0.00456092        0.00021594        0.00662743        0.00005729
     118         -0.577770        1.000000        0.00269197        0.00017107        0.00269158        0.00131612
     119         -0.576081        1.000000        0.00025855        0.00010249        0.00003771        0.00009714
     120         -0.574114        1.000000        0.00648609        0.00071928        0.00667726        0.00043813
     121         -0.570754        1.000000        0.00067032        0.00003089        0.00036938        0.00011008
     122         -0.568755        1.000000        0.00109831        0.00221297        0.00097448        0.00017598
     123         -0.554820        1.000000        0.00983297        0.00780521        0.00013727        0.00007551
     124         -0.543614        1.000000        0.08445554        0.00027076        0.02349242        0.00212808
     125         -0.537682        1.000000        0.00914271        0.00060415        0.00211531        0.00190129
     126         -0.532804        1.000000        0.00383589        0.00286151        0.00087507        0.00005086
     127         -0.532378        1.000000        0.05018354        0.00157351        0.00953010        0.00187500
     128         -0.531136        1.000000        0.06084016        0.00273357        0.00766469        0.01047044
     129         -0.527797        1.000000        0.00655791        0.00061405        0.00476833        0.01213608
     130         -0.526378        1.000000        0.06109071        0.01234031        0.00335639        0.00200236
     131         -0.525189        1.000000        0.08174180        0.01008436        0.00776212        0.00052772
     132         -0.524873        1.000000        0.05554188        0.00499440        0.01032453        0.00493944
     133         -0.524133        1.000000        0.03216061        0.01264972        0.00602453        0.00348151
     134         -0.523025        1.000000        0.01986013        0.01351598        0.00338442        0.00802269
     135         -0.521342        1.000000        0.02973282        0.00380096        0.00313793        0.00838068
     136         -0.520912        1.000000        0.03887388        0.00761475        0.00375832        0.00321888
     137         -0.519668        1.000000        0.01692434        0.00295728        0.00563109        0.00193291
     138         -0.518262        1.000000        0.02379789        0.00552395        0.00546368        0.00405837
     139         -0.517142        1.000000        0.00477700        0.00018897        0.01132015        0.00479121
     140         -0.513615        1.000000        0.02622121        0.00799677        0.00921503        0.00497831
     141         -0.513338        1.000000        0.02701017        0.00903278        0.00813930        0.00562728
     142         -0.512060        1.000000        0.03005653        0.01352504        0.01072825        0.00352486
     143         -0.511878        1.000000        0.02264605        0.01540502        0.00834585        0.00413542
     144         -0.510000        1.000000        0.04431929        0.00250733        0.01530743        0.00475087
     145         -0.508790        1.000000        0.02286074        0.00792472        0.00894083        0.00926251
     146         -0.508015        1.000000        0.00054358        0.00130071        0.01725172        0.02497096
     147         -0.507146        1.000000        0.00425282        0.00971734        0.00232864        0.00515347
     148         -0.506799        1.000000        0.01023152        0.00427819        0.00341594        0.01148261
     149         -0.505823        1.000000        0.01136479        0.00667623        0.00189494        0.01660049
     150         -0.504932        1.000000        0.00796545        0.01370091        0.00028411        0.00476643
     151         -0.503794        1.000000        0.00120416        0.00539450        0.00434085        0.00186833
     152         -0.503167        1.000000        0.00066970        0.00038019        0.01764105        0.01137108
     153         -0.502234        1.000000        0.00099945        0.00132061        0.00558066        0.01501857
     154         -0.500745        1.000000        0.00581699        0.00254924        0.00520695        0.02076417
     155         -0.499251        1.000000        0.00559274        0.00051279        0.00228913        0.01056924
     156         -0.494579        1.000000        0.01012958        0.01035866        0.00537562        0.00072958
     157         -0.494183        1.000000        0.00885024        0.00974611        0.00459113        0.00084561
     158         -0.490438        1.000000        0.00686385        0.00116382        0.00542856        0.00061697
     159         -0.487937        1.000000        0.00217267        0.00273433        0.00072799        0.00098338
     160         -0.484381        1.000000        0.00634135        0.00406692        0.00104241        0.00077426
     161         -0.474228        1.000000        0.00083081        0.00006383        0.00020759        0.00046302
     162         -0.472419        1.000000        0.00336336        0.00033140        0.00027951        0.00244313
     163         -0.467606        1.000000        0.00041849        0.00001532        0.00010992        0.00022107
     164         -0.467306        1.000000        0.00116035        0.00003127        0.00135136        0.00024841
     165         -0.466393        1.000000        0.00136986        0.00048103        0.00000661        0.00005437
     166         -0.465446        1.000000        0.00501247        0.00240092        0.00003401        0.00000801
     167         -0.463584        1.000000        0.00004853        0.00002760        0.00000267        0.00000016
     168         -0.461165        1.000000        0.00157661        0.00046778        0.00000659        0.00062373
     169         -0.459879        1.000000        0.00038751        0.00006280        0.00000736        0.00000842
     170         -0.457932        1.000000        0.00517674        0.00023451        0.00007644        0.00049274
     171         -0.457166        1.000000        0.00049110        0.00067561        0.00000522        0.00111763
     172         -0.454620        1.000000        0.00047725        0.00032987        0.00004904        0.00000068
     173         -0.454557        1.000000        0.00039123        0.00006880        0.00000496        0.00000334
     174         -0.453295        1.000000        0.00125939        0.00002333        0.00009106        0.00014371
     175         -0.451984        1.000000        0.00002059        0.00001273        0.00000159        0.00000014
     176         -0.451649        1.000000        0.00023084        0.00004609        0.00001260        0.00000467
     177         -0.451136        1.000000        0.00060333        0.00003394        0.00000401        0.00011007
     178         -0.448386        1.000000        0.00123807        0.00058329        0.00000521        0.00002083
     179         -0.447953        1.000000        0.00173531        0.00011312        0.00004201        0.00024029
     180         -0.447388        1.000000        0.00005493        0.00000108        0.00000393        0.00001468
     181         -0.446051        1.000000        0.00022380        0.00014002        0.00000089        0.00001109
     182         -0.444606        1.000000        0.00318564        0.00000798        0.00003247        0.00074461
     183         -0.443531        1.000000        0.00160282        0.00000152        0.00001520        0.00018928
     184         -0.442580        1.000000        0.00697499        0.00008888        0.00074220        0.00002398
     185         -0.442071        1.000000        0.00418419        0.00004552        0.00003265        0.00041784
     186         -0.441662        1.000000        0.00019659        0.00001437        0.00029126        0.00012336
     187         -0.441616        1.000000        0.00007098        0.00000194        0.00000010        0.00001966
     188         -0.441209        1.000000        0.00004304        0.00012794        0.00000088        0.00000636
     189         -0.440949        1.000000        0.00251389        0.00008917        0.00003546        0.00064490
     190         -0.440783        1.000000        0.00387721        0.00001005        0.00000549        0.00097889
     191         -0.439774        1.000000        0.00485444        0.00001481        0.00004387        0.00039764
     192         -0.439641        1.000000        0.00002509        0.00000804        0.00000133        0.00000146
     193         -0.439470        1.000000        0.00273561        0.00003313        0.00001363        0.00045200
     194         -0.438769        1.000000        0.00003465        0.00002666        0.00000160        0.00001399
     195         -0.437782        1.000000        0.00021276        0.00021050        0.00002347        0.00000847
     196         -0.437090        1.000000        0.00369296        0.00002628        0.00005768        0.00032311
     197         -0.436982        1.000000        0.00015637        0.00000265        0.00000255        0.00001296
     198         -0.436323        1.000000        0.00045896        0.00000456        0.00000309        0.00009285
     199         -0.436231        1.000000        0.00017156        0.00000389        0.00002232        0.00000319
     200         -0.434498        1.000000        0.00136080        0.00000326        0.00011117        0.00000026
     201         -0.433653        1.000000        0.00015865        0.00000297        0.00001739        0.00001864
     202         -0.433396        1.000000        0.00429706        0.00001083        0.00003762        0.00020892
     203         -0.432917        1.000000        0.00053742        0.00000177        0.00002161        0.00000367
     204         -0.432389        1.000000        0.00097973        0.00000552        0.00008215        0.00001133
     205         -0.431075        1.000000        0.00069306        0.00012187        0.00000227        0.00001078
     206         -0.430777        1.000000        0.00062919        0.00000163        0.00002181        0.00000799
     207         -0.430195        1.000000        0.00097543        0.00017525        0.00000385        0.00004988
     208         -0.430139        1.000000        0.00390527        0.00006998        0.00001200        0.00014340
     209         -0.428752        1.000000        0.00379979        0.00012549        0.00000998        0.00018002
     210         -0.428713        1.000000        0.00018950        0.00001531        0.00000696        0.00000082
     211         -0.428258        1.000000        0.00017618        0.00000467        0.00000635        0.00003117
     212         -0.427629        1.000000        0.00142967        0.00001384        0.00011585        0.00000784
     213         -0.427495        1.000000        0.00006903        0.00001576        0.00002353        0.00001374
     214         -0.427310        1.000000        0.00003745        0.00000815        0.00000438        0.00001605
     215         -0.425256        1.000000        0.00012426        0.00000074        0.00000343        0.00001340
     216         -0.425216        1.000000        0.00068890        0.00000030        0.00001541        0.00000814
     217         -0.424992        1.000000        0.00582578        0.00004000        0.00013521        0.00002218
     218         -0.424867        1.000000        0.00436023        0.00001787        0.00018091        0.00007264
     219         -0.423448        1.000000        0.00003951        0.00000360        0.00000184        0.00000246
     220         -0.421972        1.000000        0.00034543        0.00000272        0.00000650        0.00000987
     221         -0.421818        1.000000        0.00170252        0.00001259        0.00008073        0.00001504
     222         -0.420487        1.000000        0.00133182        0.00000151        0.00000478        0.00013129
     223         -0.419895        1.000000        0.00032682        0.00000875        0.00005737        0.00001054
     224         -0.418928        1.000000        0.00087676        0.00001140        0.00001626        0.00000444
     225         -0.418211        1.000000        0.00152281        0.00001062        0.00002940        0.00000772
     226         -0.418139        1.000000        0.00138120        0.00000269        0.00000207        0.00000156
     227         -0.417898        1.000000        0.00041692        0.00000123        0.00000300        0.00000861
     228         -0.417423        1.000000        0.00243802        0.00008856        0.00002901        0.00007921
     229         -0.416899        1.000000        0.00294043        0.00000788        0.00001459        0.00003436
     230         -0.416387        1.000000        0.00159389        0.00001114        0.00000698        0.00007991
     231         -0.414922        1.000000        0.00008858        0.00002084        0.00000074        0.00005176
     232         -0.414683        1.000000        0.00282516        0.00000884        0.00000740        0.00004284
     233         -0.414383        1.000000        0.00024595        0.00002158        0.00000171        0.00000739
     234         -0.414234        1.000000        0.01600254        0.00000789        0.00001645        0.00002998
     235         -0.413971        1.000000        0.01188601        0.00000448        0.00000539        0.00010936
     236         -0.413269        1.000000        0.00048023        0.00000130        0.00001100        0.00000882
     237         -0.412848        1.000000        0.00293781        0.00000254        0.00000046        0.00012032
     238         -0.412772        1.000000        0.00252476        0.00000474        0.00001245        0.00001909
     239         -0.412392        1.000000        0.00030547        0.00000061        0.00000125        0.00000223
     240         -0.412107        1.000000        0.08933693        0.00006438        0.00021093        0.00002082
     241         -0.411503        1.000000        0.01368926        0.00006170        0.00004400        0.00002131
     242         -0.410759        1.000000        0.07080703        0.00002993        0.00016836        0.00007305
     243         -0.410509        1.000000        0.01533707        0.00002533        0.00007495        0.00004152
     244         -0.410262        1.000000        0.00818287        0.00004437        0.00004082        0.00001130
     245         -0.409247        1.000000        0.50693566        0.00037582        0.00101252        0.00060016
     246         -0.408474        1.000000        0.03109542        0.00007809        0.00010166        0.00005380
     247         -0.407764        1.000000        0.01106913        0.00001608        0.00006706        0.00001568
     248         -0.405409        1.000000        0.01108006        0.00000701        0.00015678        0.00002025
     249         -0.404922        1.000000        0.00058401        0.00000274        0.00001249        0.00000081
     250         -0.402741        1.000000        0.00214092        0.00001788        0.00000837        0.00000149
     251         -0.402187        1.000000        0.01246232        0.00001260        0.00002009        0.00002772
     252         -0.402165        1.000000        0.00505231        0.00000882        0.00002992        0.00002163
     253         -0.401547        1.000000        0.00114444        0.00000403        0.00000638        0.00000491
     254         -0.399956        1.000000        0.00319310        0.00002485        0.00000460        0.00000290
     255         -0.399406        1.000000        0.60800689        0.00033495        0.00040251        0.00052467
     256         -0.398597        1.000000        0.35821816        0.00020561        0.00007697        0.00036869
     257         -0.397588        1.000000        0.08144594        0.00006002        0.00003404        0.00007189
     258         -0.397554        1.000000        0.00803377        0.00000675        0.00000267        0.00000835
     259         -0.397160        1.000000        0.18904153        0.00014296        0.00015553        0.00004866