# Projected DOS for atomic kind Pb at iteration step i = 0, E(Fermi) =    -0.111168 a.u.
#     MO Eigenvalue [a.u.]      Occupation                 s                py                pz                px
       1         -0.906229        1.000000        0.00000004        0.00000016        0.00000000        0.00000003
       2         -0.902011        1.000000        0.00000023        0.00000118        0.00000003        0.00000094
       3         -0.899768        1.000000        0.00000018        0.00000109        0.00000011        0.00000000
       4         -0.898956        1.000000        0.00000021        0.00000022        0.00000023        0.00000117
       5         -0.897436        1.000000        0.00000011        0.00000061        0.00000003        0.00000006
       6         -0.893488        1.000000        0.00000001        0.00000004        0.00000001        0.00000000
       7         -0.893314        1.000000        0.00000033        0.00000004        0.00000001        0.00000135
       8         -0.892228        1.000000        0.00000007        0.00000040        0.00000029        0.00000060
       9         -0.891855        1.000000        0.00000013        0.00000118        0.00000062        0.00000001
      10         -0.891604        1.000000        0.00000086        0.00000306        0.00001394        0.00000674
      11         -0.887061        1.000000        0.00000004        0.00000001        0.00000001        0.00000018
      12         -0.886307        1.000000        0.00000014        0.00000143        0.00000015        0.00000071
      13         -0.885528        1.000000        0.00000031        0.00000248        0.00000575        0.00000066
      14         -0.884536        1.000000        0.00000020        0.00000113        0.00000016        0.00000033
      15         -0.883183        1.000000        0.00000046        0.00000565        0.00000679        0.00000309
      16         -0.881886        1.000000        0.00000022        0.00000004        0.00000018        0.00000192
      17         -0.881072        1.000000        0.00000045        0.00000013        0.00000148        0.00000005
      18         -0.880815        1.000000        0.00000073        0.00000422        0.00000005        0.00001554
      19         -0.880151        1.000000        0.00000077        0.00000248        0.00000136        0.00000543
      20         -0.878676        1.000000        0.00000091        0.00000253        0.00000325        0.00001116
      21         -0.877396        1.000000        0.00000018        0.00000000        0.00000004        0.00000076
      22         -0.877141        1.000000        0.00000001        0.00000016        0.00000002        0.00000014
      23         -0.875955        1.000000        0.00000059        0.00000016        0.00000284        0.00000027
      24         -0.875899        1.000000        0.00000043        0.00000503        0.00000336        0.00000391
      25         -0.872960        1.000000        0.00000005        0.00000001        0.00000027        0.00000000
      26         -0.870595        1.000000        0.00000012        0.00000058        0.00000090        0.00000010
      27         -0.870520        1.000000        0.00000001        0.00000132        0.00000013        0.00000432
      28         -0.869499        1.000000        0.00000054        0.00000578        0.00000555        0.00000416
      29         -0.869167        1.000000        0.00000019        0.00000015        0.00001119        0.00000159
      30         -0.868231        1.000000        0.00000034        0.00000010        0.00000009        0.00000208
      31         -0.867351        1.000000        0.00000067        0.00000005        0.00000016        0.00000934
      32         -0.865917        1.000000        0.00000014        0.00000137        0.00000003        0.00000015
      33         -0.863792        1.000000        0.00000007        0.00000011        0.00000004        0.00000082
      34         -0.862569        1.000000        0.00000015        0.00000059        0.00000047        0.00000070
      35         -0.861565        1.000000        0.00000035        0.00000064        0.00000542        0.00000060
      36         -0.861384        1.000000        0.00000003        0.00000082        0.00000282        0.00000151
      37         -0.860832        1.000000        0.00000055        0.00000160        0.00000305        0.00000535
      38         -0.860061        1.000000        0.00000033        0.00000106        0.00000057        0.00000092
      39         -0.859984        1.000000        0.00000063        0.00000093        0.00000229        0.00001034
      40         -0.859942        1.000000        0.00000075        0.00000031        0.00000404        0.00000027
      41         -0.858807        1.000000        0.00000010        0.00000093        0.00000225        0.00000128
      42         -0.857688        1.000000        0.00000061        0.00000153        0.00000056        0.00000251
      43         -0.855725        1.000000        0.00000023        0.00000213        0.00000124        0.00000138
      44         -0.855265        1.000000        0.00000015        0.00000313        0.00000054        0.00000050
      45         -0.854546        1.000000        0.00000004        0.00000045        0.00000023        0.00000324
      46         -0.854081        1.000000        0.00000027        0.00000013        0.00000175        0.00000013
      47         -0.852687        1.000000        0.00000150        0.00000999        0.00000538        0.00000023
      48         -0.852463        1.000000        0.00000001        0.00000103        0.00000067        0.00000016
      49         -0.850443        1.000000        0.00000063        0.00000022        0.00000402        0.00000071
      50         -0.849476        1.000000        0.00000089        0.00000018        0.00000615        0.00000330
      51         -0.848522        1.000000        0.00000048        0.00000001        0.00000557        0.00000009
      52         -0.848463        1.000000        0.00000001        0.00000099        0.00000080        0.00000035
      53         -0.848364        1.000000        0.00000001        0.00000017        0.00000012        0.00000056
      54         -0.846974        1.000000        0.00000005        0.00000027        0.00000047        0.00000029
      55         -0.846330        1.000000        0.00000004        0.00000093        0.00000086        0.00000010
      56         -0.845537        1.000000        0.00000001        0.00000002        0.00000003        0.00000006
      57         -0.845446        1.000000        0.00000020        0.00000023        0.00000087        0.00000021
      58         -0.843877        1.000000        0.00000039        0.00000220        0.00000626        0.00000392
      59         -0.843168        1.000000        0.00000002        0.00000037        0.00000001        0.00000043
      60         -0.842759        1.000000        0.00000001        0.00000007        0.00000004        0.00000004
      61         -0.842650        1.000000        0.00000149        0.00001045        0.00001414        0.00001032
      62         -0.842256        1.000000        0.00000015        0.00000305        0.00000518        0.00000126
      63         -0.841264        1.000000        0.00000002        0.00000111        0.00000068        0.00000018
      64         -0.840214        1.000000        0.00000028        0.00000006        0.00000022        0.00000111
      65         -0.837594        1.000000        0.00000023        0.00000026        0.00000029        0.00000028
      66         -0.837527        1.000000        0.00000013        0.00000002        0.00000084        0.00000079
      67         -0.837245        1.000000        0.00000005        0.00000315        0.00000719        0.00000261
      68         -0.837111        1.000000        0.00000051        0.00000019        0.00000252        0.00000024
      69         -0.837058        1.000000        0.00000000        0.00000002        0.00000001        0.00000001
      70         -0.836314        1.000000        0.00000022        0.00000000        0.00000081        0.00000002
      71         -0.835576        1.000000        0.00000038        0.00000165        0.00000061        0.00000042
      72         -0.834939        1.000000        0.00000001        0.00000017        0.00000028        0.00000015
      73         -0.834233        1.000000        0.00000028        0.00000079        0.00000025        0.00000042
      74         -0.833619        1.000000        0.00000012        0.00000072        0.00000089        0.00000075
      75         -0.830626        1.000000        0.00000219        0.00001337        0.00000569        0.00000089
      76         -0.830612        1.000000        0.00000093        0.00000573        0.00000253        0.00000132
      77         -0.830142        1.000000        0.00000040        0.00000251        0.00000385        0.00000299
      78         -0.828566        1.000000        0.00000002        0.00000008        0.00000042        0.00000004
      79         -0.828323        1.000000        0.00000037        0.00000036        0.00000027        0.00000358
      80         -0.828086        1.000000        0.00000050        0.00000021        0.00000240        0.00000037
      81         -0.827138        1.000000        0.00000065        0.00000448        0.00000083        0.00000020
      82         -0.825986        1.000000        0.00000025        0.00000170        0.00000082        0.00000006
      83         -0.824255        1.000000        0.00000009        0.00000014        0.00000032        0.00000037
      84         -0.824186        1.000000        0.00000049        0.00000052        0.00000007        0.00000141
      85         -0.823340        1.000000        0.00000009        0.00000084        0.00000042        0.00000025
      86         -0.822306        1.000000        0.00000001        0.00000000        0.00000000        0.00000010
      87         -0.819530        1.000000        0.00000003        0.00000019        0.00000014        0.00000011
      88         -0.817999        1.000000        0.00000019        0.00000004        0.00000010        0.00000058
      89         -0.817505        1.000000        0.00000108        0.00000101        0.00000084        0.00000151
      90         -0.816929        1.000000        0.00000021        0.00000054        0.00000104        0.00000030
      91         -0.815376        1.000000        0.00000049        0.00000069        0.00000330        0.00000597
      92         -0.814795        1.000000        0.00000017        0.00000608        0.00000076        0.00000005
      93         -0.814747        1.000000        0.00000017        0.00000006        0.00000008        0.00000054
      94         -0.814638        1.000000        0.00000012        0.00000031        0.00000079        0.00000206
      95         -0.813569        1.000000        0.00000165        0.00000901        0.00000276        0.00000008
      96         -0.813454        1.000000        0.00000000        0.00000012        0.00000026        0.00000000
      97         -0.811324        1.000000        0.00000082        0.00000100        0.00000783        0.00000161
      98         -0.808512        1.000000        0.00000031        0.00000111        0.00000140        0.00000105
      99         -0.808315        1.000000        0.00000000        0.00000000        0.00000000        0.00000000
     100         -0.807191        1.000000        0.00000862        0.00005662        0.00000690        0.00000018
     101         -0.803634        1.000000        0.00000027        0.00000009        0.00000153        0.00000013
     102         -0.800437        1.000000        0.00000441        0.00002170        0.00000083        0.00000000
     103         -0.799960        1.000000        0.00000044        0.00000000        0.00000206        0.00000006
     104         -0.796070        1.000000        0.00000003        0.00000010        0.00000004        0.00000031
     105         -0.793523        1.000000        0.00000002        0.00000028        0.00000020        0.00000000
     106         -0.791372        1.000000        0.00000000        0.00000009        0.00000000        0.00000008
     107         -0.790678        1.000000        0.00000015        0.00000053        0.00000083        0.00000077
     108         -0.787351        1.000000        0.00000025        0.00000077        0.00000111        0.00000074
     109         -0.786916        1.000000        0.00002708        0.00000456        0.00014718        0.00000409
     110         -0.786487        1.000000        0.00000001        0.00000008        0.00000001        0.00000001
     111         -0.779709        1.000000        0.00000092        0.00000001        0.00000457        0.00000064
     112         -0.630417        1.000000        0.00001763        0.00002056        0.00001721        0.00000672
     113         -0.627283        1.000000        0.00004471        0.00003121        0.00004177        0.00001261
     114         -0.616952        1.000000        0.00005604        0.00005417        0.00004545        0.00001458
     115         -0.614874        1.000000        0.00003181        0.00003711        0.00004887        0.00002466
     116         -0.593016        1.000000        0.00002020        0.00002119        0.00002550        0.00000313
     117         -0.592772        1.000000        0.00459889        0.00021919        0.00667451        0.00005716
     118         -0.577770        1.000000        0.00269315        0.00017100        0.00269184        0.00131664
     119         -0.576063        1.000000        0.00025844        0.00010270        0.00003401        0.00009730
     120         -0.574103        1.000000        0.00648009        0.00072084        0.00667431        0.00043808
     121         -0.570753        1.000000        0.00066923        0.00003090        0.00036896        0.00011005
     122         -0.568747        1.000000        0.00109430        0.00221200        0.00097590        0.00017635
     123         -0.553952        1.000000        0.01028940        0.00778516        0.00013492        0.00007784
     124         -0.543590        1.000000        0.08447878        0.00027397        0.02348308        0.00213218
     125         -0.537672        1.000000        0.00914494        0.00062812        0.00210243        0.00190320
     126         -0.532880        1.000000        0.00376065        0.00283328        0.00085864        0.00005043
     127         -0.532379        1.000000        0.05018123        0.00157016        0.00954247        0.00186086
     128         -0.531128        1.000000        0.06086142        0.00273938        0.00765163        0.01049101
     129         -0.527802        1.000000        0.00666917        0.00061876        0.00483442        0.01210843
     130         -0.526313        1.000000        0.06110497        0.01214735        0.00383502        0.00195874
     131         -0.525284        1.000000        0.08396553        0.00831676        0.01020164        0.00093225
     132         -0.524916        1.000000        0.05677121        0.00645405        0.00878260        0.00416363
     133         -0.524104        1.000000        0.02440532        0.01423955        0.00480257        0.00374873
     134         -0.522859        1.000000        0.01841187        0.01230552        0.00330166        0.01064509
     135         -0.521135        1.000000        0.04682041        0.00694096        0.00362865        0.00264804
     136         -0.520704        1.000000        0.02711711        0.00850161        0.00152698        0.00748866
     137         -0.518501        1.000000        0.01674918        0.00346714        0.00454921        0.00474020
     138         -0.517134        1.000000        0.00480121        0.00018629        0.01127505        0.00479614
     139         -0.513743        1.000000        0.03049392        0.00802092        0.00877492        0.00479374
     140         -0.513442        1.000000        0.02799383        0.01009808        0.00727413        0.00511772
     141         -0.512403        1.000000        0.04713941        0.00713753        0.01068854        0.00319720
     142         -0.511980        1.000000        0.01873658        0.01862919        0.00267434        0.00584638
     143         -0.511180        1.000000        0.05145959        0.00455801        0.01259943        0.00236698
     144         -0.508735        1.000000        0.02296012        0.00691924        0.00740251        0.01073306
     145         -0.508014        1.000000        0.00041350        0.00136135        0.01727034        0.02450227
     146         -0.507298        1.000000        0.00983661        0.00517459        0.01086203        0.00244212
     147         -0.507097        1.000000        0.00446484        0.01088100        0.00544604        0.00493470
     148         -0.506756        1.000000        0.00753223        0.00356414        0.00694144        0.01287664
     149         -0.505738        1.000000        0.00639849        0.00361037        0.00467397        0.01589004
     150         -0.504724        1.000000        0.00720038        0.01326932        0.00279755        0.00279948
     151         -0.503790        1.000000        0.00118645        0.00541471        0.00428558        0.00181026
     152         -0.503130        1.000000        0.00070395        0.00038778        0.01791499        0.01121236
     153         -0.501974        1.000000        0.00020216        0.00177782        0.00365815        0.01860258
     154         -0.500484        1.000000        0.00433461        0.00149780        0.00445632        0.01892195
     155         -0.499215        1.000000        0.00587222        0.00046417        0.00262981        0.00933896
     156         -0.494404        1.000000        0.00836240        0.00176516        0.00731574        0.00047879
     157         -0.493101        1.000000        0.01127619        0.01897845        0.00175266        0.00079677
     158         -0.490430        1.000000        0.00689182        0.00116400        0.00540829        0.00061780
     159         -0.487925        1.000000        0.00209609        0.00281131        0.00074665        0.00098128
     160         -0.484372        1.000000        0.00632755        0.00406945        0.00104709        0.00077414
     161         -0.474225        1.000000        0.00083313        0.00006393        0.00020752        0.00046292
     162         -0.472411        1.000000        0.00335012        0.00033087        0.00028088        0.00244604
     163         -0.467611        1.000000        0.00041903        0.00001535        0.00010960        0.00022140
     164         -0.467257        1.000000        0.00117086        0.00003370        0.00139164        0.00025270
     165         -0.466394        1.000000        0.00137027        0.00048105        0.00000661        0.00005436
     166         -0.465444        1.000000        0.00501545        0.00240265        0.00003407        0.00000803
     167         -0.463578        1.000000        0.00004935        0.00002794        0.00000269        0.00000016
     168         -0.461164        1.000000        0.00157348        0.00046844        0.00000675        0.00062349
     169         -0.459876        1.000000        0.00038760        0.00006321        0.00000746        0.00000853
     170         -0.457909        1.000000        0.00522738        0.00024344        0.00007388        0.00050942
     171         -0.457140        1.000000        0.00042648        0.00071846        0.00000455        0.00110526
     172         -0.454620        1.000000        0.00047739        0.00033013        0.00004909        0.00000069
     173         -0.454557        1.000000        0.00039138        0.00006881        0.00000497        0.00000334
     174         -0.453293        1.000000        0.00125884        0.00002335        0.00009110        0.00014378
     175         -0.451986        1.000000        0.00002054        0.00001270        0.00000159        0.00000014
     176         -0.451650        1.000000        0.00023086        0.00004609        0.00001260        0.00000467
     177         -0.451124        1.000000        0.00060381        0.00003395        0.00000405        0.00011014
     178         -0.448386        1.000000        0.00123736        0.00058341        0.00000523        0.00002083
     179         -0.447956        1.000000        0.00173245        0.00011294        0.00004194        0.00024025
     180         -0.447381        1.000000        0.00005479        0.00000107        0.00000392        0.00001468
     181         -0.446051        1.000000        0.00022371        0.00014001        0.00000089        0.00001109
     182         -0.444604        1.000000        0.00318028        0.00000813        0.00003291        0.00074463
     183         -0.443529        1.000000        0.00160200        0.00000151        0.00001522        0.00018924
     184         -0.442578        1.000000        0.00697364        0.00008896        0.00074312        0.00002401
     185         -0.442058        1.000000        0.00411593        0.00004675        0.00002887        0.00044860
     186         -0.441615        1.000000        0.00007084        0.00000192        0.00000005        0.00001959
     187         -0.441565        1.000000        0.00036086        0.00001430        0.00032251        0.00009332
     188         -0.441209        1.000000        0.00004263        0.00012801        0.00000089        0.00000631
     189         -0.440943        1.000000        0.00245715        0.00008997        0.00003366        0.00064511
     190         -0.440780        1.000000        0.00386908        0.00001004        0.00000549        0.00097881
     191         -0.439772        1.000000        0.00484727        0.00001482        0.00004485        0.00039751
     192         -0.439643        1.000000        0.00002471        0.00000804        0.00000133        0.00000140
     193         -0.439468        1.000000        0.00272162        0.00003395        0.00001340        0.00045554
     194         -0.438766        1.000000        0.00003462        0.00002732        0.00000159        0.00001418
     195         -0.437781        1.000000        0.00021358        0.00021054        0.00002348        0.00000847
     196         -0.437088        1.000000        0.00370292        0.00002673        0.00005782        0.00032676
     197         -0.436981        1.000000        0.00015833        0.00000268        0.00000258        0.00001325
     198         -0.436264        1.000000        0.00042036        0.00000406        0.00000400        0.00008980
     199         -0.436228        1.000000        0.00017143        0.00000393        0.00002171        0.00000401
     200         -0.434519        1.000000        0.00136159        0.00000327        0.00011009        0.00000025
     201         -0.433651        1.000000        0.00015868        0.00000297        0.00001740        0.00001864
     202         -0.433395        1.000000        0.00429149        0.00001086        0.00003779        0.00020944
     203         -0.432893        1.000000        0.00053255        0.00000183        0.00002079        0.00000348
     204         -0.432315        1.000000        0.00106353        0.00000655        0.00010148        0.00001274
     205         -0.431074        1.000000        0.00069500        0.00012141        0.00000222        0.00001081
     206         -0.430777        1.000000        0.00062712        0.00000163        0.00002158        0.00000797
     207         -0.430194        1.000000        0.00108169        0.00016595        0.00000424        0.00005724
     208         -0.430141        1.000000        0.00383908        0.00007970        0.00001169        0.00013587
     209         -0.428751        1.000000        0.00379540        0.00012549        0.00000998        0.00018019
     210         -0.428715        1.000000        0.00018961        0.00001533        0.00000701        0.00000084
     211         -0.428257        1.000000        0.00017173        0.00000468        0.00000617        0.00003125
     212         -0.427617        1.000000        0.00142993        0.00001516        0.00012142        0.00000718
     213         -0.427504        1.000000        0.00007607        0.00001448        0.00001855        0.00001449
     214         -0.427280        1.000000        0.00003746        0.00000811        0.00000433        0.00001581
     215         -0.425210        1.000000        0.00069907        0.00000031        0.00001558        0.00000818
     216         -0.425118        1.000000        0.00039684        0.00000122        0.00001248        0.00001634
     217         -0.424987        1.000000        0.00514728        0.00004117        0.00011503        0.00002301
     218         -0.424859        1.000000        0.00472100        0.00001606        0.00019495        0.00006865
     219         -0.423450        1.000000        0.00003944        0.00000360        0.00000188        0.00000246
     220         -0.421971        1.000000        0.00034565        0.00000272        0.00000648        0.00000987
     221         -0.421818        1.000000        0.00170150        0.00001258        0.00008068        0.00001504
     222         -0.420486        1.000000        0.00132530        0.00000151        0.00000472        0.00013161
     223         -0.419904        1.000000        0.00033307        0.00000873        0.00005754        0.00001054
     224         -0.418928        1.000000        0.00087707        0.00001140        0.00001628        0.00000445
     225         -0.418212        1.000000        0.00152459        0.00001063        0.00002945        0.00000772
     226         -0.418139        1.000000        0.00137965        0.00000269        0.00000206        0.00000155
     227         -0.417896        1.000000        0.00041739        0.00000123        0.00000295        0.00000860
     228         -0.417423        1.000000        0.00244203        0.00008849        0.00002902        0.00007925
     229         -0.416896        1.000000        0.00293961        0.00000785        0.00001441        0.00003363
     230         -0.416379        1.000000        0.00155273        0.00001125        0.00000664        0.00008012
     231         -0.414900        1.000000        0.00010263        0.00002259        0.00000045        0.00005216
     232         -0.414682        1.000000        0.00280892        0.00000964        0.00000737        0.00004278
     233         -0.414340        1.000000        0.00040925        0.00001985        0.00000068        0.00001080
     234         -0.414234        1.000000        0.01595796        0.00000816        0.00001634        0.00002981
     235         -0.413972        1.000000        0.01186571        0.00000447        0.00000539        0.00010910
     236         -0.413211        1.000000        0.00050120        0.00000127        0.00001131        0.00000909
     237         -0.412848        1.000000        0.00292025        0.00000255        0.00000047        0.00012140
     238         -0.412768        1.000000        0.00252612        0.00000473        0.00001263        0.00001804
     239         -0.412386        1.000000        0.00030087        0.00000060        0.00000106        0.00000203
     240         -0.412105        1.000000        0.08885529        0.00006408        0.00020997        0.00002047
     241         -0.411498        1.000000        0.01372244        0.00006172        0.00004400        0.00002130
     242         -0.410757        1.000000        0.07032894        0.00002963        0.00016752        0.00007238
     243         -0.410509        1.000000        0.01528817        0.00002528        0.00007494        0.00004139
     244         -0.410267        1.000000        0.00792802        0.00004423        0.00004009        0.00001102
     245         -0.409240        1.000000        0.50823094        0.00037683        0.00101566        0.00059929
     246         -0.408473        1.000000        0.03153179        0.00007900        0.00010203        0.00005318
     247         -0.407763        1.000000        0.01117906        0.00001624        0.00006730        0.00001583
     248         -0.405404        1.000000        0.01101341        0.00000692        0.00016076        0.00002019
     249         -0.404502        1.000000        0.00051951        0.00000280        0.00001082        0.00000067
     250         -0.402621        1.000000        0.00243119        0.00001894        0.00000919        0.00000179
     251         -0.402183        1.000000        0.01289729        0.00001209        0.00002086        0.00002771
     252         -0.402142        1.000000        0.00504108        0.00000840        0.00002964        0.00002167
     253         -0.401512        1.000000        0.00087976        0.00000383        0.00000534        0.00000460
     254         -0.399956        1.000000        0.00334181        0.00002492        0.00000472        0.00000307
     255         -0.399477        1.000000        0.61980429        0.00034145        0.00040976        0.00053198
     256         -0.398608        1.000000        0.34624930        0.00020613        0.00007142        0.00037000
     257         -0.397591        1.000000        0.09484177        0.00007067        0.00003603        0.00007683
     258         -0.397526        1.000000        0.00198142        0.00000327        0.00000073        0.00000272
     259         -0.397178        1.000000        0.19453609        0.00014192        0.00016251        0.00004448