 DBCSR| CPU Multiplication driver                                           XSMM
 DBCSR| Multrec recursion limit                                              512
 DBCSR| Multiplication stack size                                           1000
 DBCSR| Maximum elements for images                                    UNLIMITED
 DBCSR| Multiplicative factor virtual images                                   1
 DBCSR| Use multiplication densification                                       T
 DBCSR| Multiplication size stacks                                             3
 DBCSR| Use memory pool for CPU allocation                                     F
 DBCSR| Number of 3D layers                                               SINGLE
 DBCSR| Use MPI memory allocation                                              F
 DBCSR| Use RMA algorithm                                                      F
 DBCSR| Use Communication thread                                               T
 DBCSR| Communication thread load                                             87
 DBCSR| MPI: My node id                                                        0
 DBCSR| MPI: Number of nodes                                                  24
 DBCSR| OMP: Current number of threads                                         1
 DBCSR| OMP: Max number of threads                                             1
 DBCSR| Split modifier for TAS multiplication algorithm                  1.0E+00


  **** **** ******  **  PROGRAM STARTED AT               2023-12-04 02:06:51.680
 ***** ** ***  *** **   PROGRAM STARTED ON              csl1.int.triton.aalto.fi
 **    ****   ******    PROGRAM STARTED BY                               huangj4
 ***** **    ** ** **   PROGRAM PROCESS ID                                168527
  **** **  *******  **  PROGRAM STARTED IN /scratch/phys/sin/Jie/Github/cp2kTest
                                           /PDOS234/Cluster_222

 CP2K| version string:                                          CP2K version 8.2
 CP2K| source code revision number:                                  git:310b7ab
 CP2K| cp2kflags: omp libint fftw3 libxc parallel mpi3 scalapack xsmm           
 CP2K| is freely available from                            https://www.cp2k.org/
 CP2K| Program compiled at                          Thu May 12 10:08:29 UTC 2022
 CP2K| Program compiled on                                          80d7174ae3e8
 CP2K| Program compiled for                            linux-centos7-haswell-gcc
 CP2K| Data directory path    /share/apps/spack/envs/fgci-centos7-haswell/softwa
 CP2K| Input file name                                                 input.inp

 GLOBAL| Force Environment number                                              1
 GLOBAL| Basis set file name                                        BASIS_MOLOPT
 GLOBAL| Potential file name                                      GTH_POTENTIALS
 GLOBAL| MM Potential file name                                     MM_POTENTIAL
 GLOBAL| Coordinate file name                                MAPbI3-pos-last.xyz
 GLOBAL| Method name                                                        CP2K
 GLOBAL| Project name                                                 MAPbI3_DOS
 GLOBAL| Run type                                                         ENERGY
 GLOBAL| FFT library                                                       FFTW3
 GLOBAL| Diagonalization library                                       ScaLAPACK
 GLOBAL| Orthonormality check for eigenvectors                          DISABLED
 GLOBAL| Matrix multiplication library                                    SCALAP
 GLOBAL| All-to-all communication in single precision                          F
 GLOBAL| FFTs using library dependent lengths                                  F
 GLOBAL| Grid backend                                                       AUTO
 GLOBAL| Global print level                                               MEDIUM
 GLOBAL| MPI I/O enabled                                                       T
 GLOBAL| Total number of message passing processes                            24
 GLOBAL| Number of threads for this process                                    1
 GLOBAL| This output is from process                                           0
 GLOBAL| CPU model name                 Intel(R) Xeon(R) Gold 6248 CPU @ 2.50GHz
 GLOBAL| CPUID                                                              1003
 GLOBAL| Compiled for CPUID                                                 1002

 *** HINT in environment.F:872 :: The compiler target flags (x86_avx2)     ***
 *** used to build this binary cannot exploit all extensions of this CPU   ***
 *** model (x86_avx512). Consider compiler target flags as part of FCFLAGS ***
 *** and CFLAGS (ARCH file).                                               ***


 MEMORY| system memory details [Kb]
 MEMORY|                        rank 0           min           max       average
 MEMORY| MemTotal            196637596     196637596     196637596     196637596
 MEMORY| MemFree             178203064     178203064     178203064     178203064
 MEMORY| Buffers                     0             0             0             0
 MEMORY| Cached                9574168       9574168       9574168       9574168
 MEMORY| Slab                  1143928       1143928       1143928       1143928
 MEMORY| SReclaimable           329328        329328        329328        329328
 MEMORY| MemLikelyFree       188106560     188106560     188106560     188106560


 *** Fundamental physical constants (SI units) ***

 *** Literature: B. J. Mohr and B. N. Taylor,
 ***             CODATA recommended values of the fundamental physical
 ***             constants: 2006, Web Version 5.1
 ***             http://physics.nist.gov/constants

 Speed of light in vacuum [m/s]                             2.99792458000000E+08
 Magnetic constant or permeability of vacuum [N/A**2]       1.25663706143592E-06
 Electric constant or permittivity of vacuum [F/m]          8.85418781762039E-12
 Planck constant (h) [J*s]                                  6.62606896000000E-34
 Planck constant (h-bar) [J*s]                              1.05457162825177E-34
 Elementary charge [C]                                      1.60217648700000E-19
 Electron mass [kg]                                         9.10938215000000E-31
 Electron g factor [ ]                                     -2.00231930436220E+00
 Proton mass [kg]                                           1.67262163700000E-27
 Fine-structure constant                                    7.29735253760000E-03
 Rydberg constant [1/m]                                     1.09737315685270E+07
 Avogadro constant [1/mol]                                  6.02214179000000E+23
 Boltzmann constant [J/K]                                   1.38065040000000E-23
 Atomic mass unit [kg]                                      1.66053878200000E-27
 Bohr radius [m]                                            5.29177208590000E-11

 *** Conversion factors ***

 [u] -> [a.u.]                                              1.82288848426455E+03
 [Angstrom] -> [Bohr] = [a.u.]                              1.88972613288564E+00
 [a.u.] = [Bohr] -> [Angstrom]                              5.29177208590000E-01
 [a.u.] -> [s]                                              2.41888432650478E-17
 [a.u.] -> [fs]                                             2.41888432650478E-02
 [a.u.] -> [J]                                              4.35974393937059E-18
 [a.u.] -> [N]                                              8.23872205491840E-08
 [a.u.] -> [K]                                              3.15774647902944E+05
 [a.u.] -> [kJ/mol]                                         2.62549961709828E+03
 [a.u.] -> [kcal/mol]                                       6.27509468713739E+02
 [a.u.] -> [Pa]                                             2.94210107994716E+13
 [a.u.] -> [bar]                                            2.94210107994716E+08
 [a.u.] -> [atm]                                            2.90362800883016E+08
 [a.u.] -> [eV]                                             2.72113838565563E+01
 [a.u.] -> [Hz]                                             6.57968392072181E+15
 [a.u.] -> [1/cm] (wave numbers)                            2.19474631370540E+05
 [a.u./Bohr**2] -> [1/cm]                                   5.14048714338585E+03
 

 CELL_TOP| Volume [angstrom^3]:                                     30035.989929
 CELL_TOP| Vector a [angstrom    31.790     0.000     0.000   |a| =    31.790000
 CELL_TOP| Vector b [angstrom     0.000    31.090     0.000   |b| =    31.090000
 CELL_TOP| Vector c [angstrom     0.000     0.000    30.390   |c| =    30.390000
 CELL_TOP| Angle (b,c), alpha [degree]:                                90.000000
 CELL_TOP| Angle (a,c), beta  [degree]:                                90.000000
 CELL_TOP| Angle (a,b), gamma [degree]:                                90.000000
 CELL_TOP| Numerically orthorhombic:                                         YES

 GENERATE|  Preliminary Number of Bonds generated:                             0
 GENERATE|  Achieved consistency in connectivity generation.

 CELL| Volume [angstrom^3]:                                         30035.989929
 CELL| Vector a [angstrom]:      31.790     0.000     0.000   |a| =    31.790000
 CELL| Vector b [angstrom]:       0.000    31.090     0.000   |b| =    31.090000
 CELL| Vector c [angstrom]:       0.000     0.000    30.390   |c| =    30.390000
 CELL| Angle (b,c), alpha [degree]:                                    90.000000
 CELL| Angle (a,c), beta  [degree]:                                    90.000000
 CELL| Angle (a,b), gamma [degree]:                                    90.000000
 CELL| Numerically orthorhombic:                                             YES

 CELL_REF| Volume [angstrom^3]:                                     30035.989929
 CELL_REF| Vector a [angstrom    31.790     0.000     0.000   |a| =    31.790000
 CELL_REF| Vector b [angstrom     0.000    31.090     0.000   |b| =    31.090000
 CELL_REF| Vector c [angstrom     0.000     0.000    30.390   |c| =    30.390000
 CELL_REF| Angle (b,c), alpha [degree]:                                90.000000
 CELL_REF| Angle (a,c), beta  [degree]:                                90.000000
 CELL_REF| Angle (a,b), gamma [degree]:                                90.000000
 CELL_REF| Numerically orthorhombic:                                         YES

 *******************************************************************************
 *******************************************************************************
 **                                                                           **
 **     #####                         ##              ##                      **
 **    ##   ##            ##          ##              ##                      **
 **   ##     ##                       ##            ######                    **
 **   ##     ##  ##   ##  ##   #####  ##  ##   ####   ##    #####    #####    **
 **   ##     ##  ##   ##  ##  ##      ## ##   ##      ##   ##   ##  ##   ##   **
 **   ##  ## ##  ##   ##  ##  ##      ####     ###    ##   ######   ######    **
 **    ##  ###   ##   ##  ##  ##      ## ##      ##   ##   ##       ##        **
 **     #######   #####   ##   #####  ##  ##  ####    ##    #####   ##        **
 **           ##                                                    ##        **
 **                                                                           **
 **                                                ... make the atoms dance   **
 **                                                                           **
 **            Copyright (C) by CP2K developers group (2000-2021)             **
 **                      J. Chem. Phys. 152, 194103 (2020)                    **
 **                                                                           **
 *******************************************************************************

 DFT| Spin unrestricted (spin-polarized) Kohn-Sham calculation               UKS
 DFT| Multiplicity                                                             2
 DFT| Number of spin states                                                    2
 DFT| Charge                                                                   0
 DFT| Self-interaction correction (SIC)                                       NO
 DFT| Cutoffs: density                                              1.000000E-10
 DFT|          gradient                                             1.000000E-10
 DFT|          tau                                                  1.000000E-10
 DFT|          cutoff_smoothing_range                               0.000000E+00
 DFT| XC density smoothing                                                  NONE
 DFT| XC derivatives                                                          PW
 FUNCTIONAL| ROUTINE=NEW
 FUNCTIONAL| PBE:
 FUNCTIONAL| J.P.Perdew, K.Burke, M.Ernzerhof, Phys. Rev. Letter, vol. 77, n 18,
 FUNCTIONAL|  pp. 3865-3868, (1996){spin polarized}                             
 vdW POTENTIAL|                                                   Pair Potential
 vdW POTENTIAL|          DFT-D3 (Version 3.1)
 vdW POTENTIAL|          Potential Form: S. Grimme et al, JCP 132: 154104 (2010)
 vdW POTENTIAL|          Zero Damping
 vdW POTENTIAL|          Cutoff Radius [Bohr]:                             20.00
 vdW POTENTIAL|          s6 Scaling Factor:                               1.0000
 vdW POTENTIAL|          sr6 Scaling Factor:                              1.2170
 vdW POTENTIAL|          s8 Scaling Factor:                               0.7220
 vdW POTENTIAL|          Cutoff for CN calculation:                   0.1000E-05

 QS| Method:                                                                 GPW
 QS| Density plane wave grid type                        NON-SPHERICAL FULLSPACE
 QS| Number of grid levels:                                                    4
 QS| Density cutoff [a.u.]:                                                110.0
 QS| Multi grid cutoff [a.u.]: 1) grid level                               110.0
 QS|                           2) grid level                                36.7
 QS|                           3) grid level                                12.2
 QS|                           4) grid level                                 4.1
 QS| Grid level progression factor:                                          3.0
 QS| Relative density cutoff [a.u.]:                                        30.0
 QS| Interaction thresholds: eps_pgf_orb:                                1.0E-05
 QS|                         eps_filter_matrix:                          0.0E+00
 QS|                         eps_core_charge:                            1.0E-12
 QS|                         eps_rho_gspace:                             1.0E-10
 QS|                         eps_rho_rspace:                             1.0E-10
 QS|                         eps_gvg_rspace:                             1.0E-05
 QS|                         eps_ppl:                                    1.0E-02
 QS|                         eps_ppnl:                                   1.0E-07


 ATOMIC KIND INFORMATION

  1. Atomic kind: I                                     Number of atoms:      36

     Orbital Basis Set                                         SZV-MOLOPT-SR-GTH

       Number of orbital shell sets:                                           1
       Number of orbital shells:                                               2
       Number of primitive Cartesian functions:                                5
       Number of Cartesian basis functions:                                    4
       Number of spherical basis functions:                                    4
       Norm type:                                                              2

       Normalised Cartesian orbitals:

                        Set   Shell   Orbital            Exponent    Coefficient

                          1       1    2s                0.966173      -0.369082
                                                         0.828886      -0.032154
                                                         0.367159       0.255166
                                                         0.201369       0.106471
                                                         0.083015       0.018311

                          1       2    3px               0.966173      -1.009678
                                                         0.828886       0.783764
                                                         0.367159       0.107863
                                                         0.201369       0.101262
                                                         0.083015       0.016495
                          1       2    3py               0.966173      -1.009678
                                                         0.828886       0.783764
                                                         0.367159       0.107863
                                                         0.201369       0.101262
                                                         0.083015       0.016495
                          1       2    3pz               0.966173      -1.009678
                                                         0.828886       0.783764
                                                         0.367159       0.107863
                                                         0.201369       0.101262
                                                         0.083015       0.016495

       Atomic covalent radius [Angstrom]:                                  1.330

       Atomic van der Waals radius [Angstrom]:                             1.980

     GTH Potential information for                                       GTH-PBE

       Description:                       Goedecker-Teter-Hutter pseudopotential
                                           Goedecker et al., PRB 54, 1703 (1996)
                                          Hartwigsen et al., PRB 58, 3641 (1998)
                                                      Krack, TCA 114, 145 (2005)

       Gaussian exponent of the core charge distribution:               1.594388
       Electronic configuration (s p d ...):                               2   5

       Parameters of the local part of the GTH pseudopotential:

                          rloc        C1          C2          C3          C4
                        0.560000    8.207102

       Parameters of the non-local part of the GTH pseudopotential:

                   l      r(l)      h(i,j,l)

                   0    0.531928    2.308146    1.003909   -0.959156
                                    1.003909   -2.856109    2.476530
                                   -0.959156    2.476530   -1.965685
                   1    0.589182    0.906482    0.425071
                                    0.425071   -0.502950
                   2    0.739721    0.479195

  2. Atomic kind: Pb                                    Number of atoms:       8

     Orbital Basis Set                                         SZV-MOLOPT-SR-GTH

       Number of orbital shell sets:                                           1
       Number of orbital shells:                                               2
       Number of primitive Cartesian functions:                                5
       Number of Cartesian basis functions:                                    4
       Number of spherical basis functions:                                    4
       Norm type:                                                              2

       Normalised Cartesian orbitals:

                        Set   Shell   Orbital            Exponent    Coefficient

                          1       1    2s                1.933598      -0.156134
                                                         0.981425       0.419979
                                                         0.222223      -0.230246
                                                         0.077759      -0.022545
                                                         0.073968      -0.008640

                          1       2    3px               1.933598       0.064608
                                                         0.981425      -0.243154
                                                         0.222223       0.142297
                                                         0.077759       0.018505
                                                         0.073968       0.009435
                          1       2    3py               1.933598       0.064608
                                                         0.981425      -0.243154
                                                         0.222223       0.142297
                                                         0.077759       0.018505
                                                         0.073968       0.009435
                          1       2    3pz               1.933598       0.064608
                                                         0.981425      -0.243154
                                                         0.222223       0.142297
                                                         0.077759       0.018505
                                                         0.073968       0.009435

       Atomic covalent radius [Angstrom]:                                  1.470

       Atomic van der Waals radius [Angstrom]:                             2.020

     GTH Potential information for                                       GTH-PBE

       Description:                       Goedecker-Teter-Hutter pseudopotential
                                           Goedecker et al., PRB 54, 1703 (1996)
                                          Hartwigsen et al., PRB 58, 3641 (1998)
                                                      Krack, TCA 114, 145 (2005)

       Gaussian exponent of the core charge distribution:               1.311282
       Electronic configuration (s p d ...):                               2   2

       Parameters of the local part of the GTH pseudopotential:

                          rloc        C1          C2          C3          C4
                        0.617500    4.672384

       Parameters of the non-local part of the GTH pseudopotential:

                   l      r(l)      h(i,j,l)

                   0    0.622359    0.879918    2.081148   -1.431257
                                    2.081148   -5.014690    3.695490
                                   -1.431257    3.695490   -2.933204
                   1    0.812002    0.153457    0.478898
                                    0.478898   -0.566640
                   2    1.025015    0.301702

  3. Atomic kind: C                                     Number of atoms:       7

     Orbital Basis Set                                            SZV-MOLOPT-GTH

       Number of orbital shell sets:                                           1
       Number of orbital shells:                                               2
       Number of primitive Cartesian functions:                                7
       Number of Cartesian basis functions:                                    4
       Number of spherical basis functions:                                    4
       Norm type:                                                              2

       Normalised Cartesian orbitals:

                        Set   Shell   Orbital            Exponent    Coefficient

                          1       1    2s                6.132625      -0.263661
                                                         2.625196      -0.231112
                                                         1.045457       0.042712
                                                         0.478316       0.306085
                                                         0.178617       0.065483
                                                         0.075145       0.000568
                                                         0.030287       0.000417

                          1       2    3px               6.132625       0.562677
                                                         2.625196       0.633910
                                                         1.045457       0.379157
                                                         0.478316       0.235193
                                                         0.178617       0.052379
                                                         0.075145       0.003677
                                                         0.030287       0.000105
                          1       2    3py               6.132625       0.562677
                                                         2.625196       0.633910
                                                         1.045457       0.379157
                                                         0.478316       0.235193
                                                         0.178617       0.052379
                                                         0.075145       0.003677
                                                         0.030287       0.000105
                          1       2    3pz               6.132625       0.562677
                                                         2.625196       0.633910
                                                         1.045457       0.379157
                                                         0.478316       0.235193
                                                         0.178617       0.052379
                                                         0.075145       0.003677
                                                         0.030287       0.000105

       Atomic covalent radius [Angstrom]:                                  0.770

       Atomic van der Waals radius [Angstrom]:                             1.700

     GTH Potential information for                                       GTH-PBE

       Description:                       Goedecker-Teter-Hutter pseudopotential
                                           Goedecker et al., PRB 54, 1703 (1996)
                                          Hartwigsen et al., PRB 58, 3641 (1998)
                                                      Krack, TCA 114, 145 (2005)

       Gaussian exponent of the core charge distribution:               4.364419
       Electronic configuration (s p d ...):                               2   2

       Parameters of the local part of the GTH pseudopotential:

                          rloc        C1          C2          C3          C4
                        0.338471   -8.803674    1.339211

       Parameters of the non-local part of the GTH pseudopotential:

                   l      r(l)      h(i,j,l)

                   0    0.302576    9.622487
                   1    0.291507

  4. Atomic kind: N                                     Number of atoms:       7

     Orbital Basis Set                                            SZV-MOLOPT-GTH

       Number of orbital shell sets:                                           1
       Number of orbital shells:                                               2
       Number of primitive Cartesian functions:                                7
       Number of Cartesian basis functions:                                    4
       Number of spherical basis functions:                                    4
       Norm type:                                                              2

       Normalised Cartesian orbitals:

                        Set   Shell   Orbital            Exponent    Coefficient

                          1       1    2s                9.042730      -0.237404
                                                         3.882225      -0.265910
                                                         1.512880       0.102064
                                                         0.586631       0.295369
                                                         0.222851       0.088647
                                                         0.084583       0.003860
                                                         0.039194       0.000722

                          1       2    3px               9.042730       0.822162
                                                         3.882225       0.990771
                                                         1.512880       0.665657
                                                         0.586631       0.321705
                                                         0.222851       0.063706
                                                         0.084583       0.004155
                                                         0.039194      -0.000005
                          1       2    3py               9.042730       0.822162
                                                         3.882225       0.990771
                                                         1.512880       0.665657
                                                         0.586631       0.321705
                                                         0.222851       0.063706
                                                         0.084583       0.004155
                                                         0.039194      -0.000005
                          1       2    3pz               9.042730       0.822162
                                                         3.882225       0.990771
                                                         1.512880       0.665657
                                                         0.586631       0.321705
                                                         0.222851       0.063706
                                                         0.084583       0.004155
                                                         0.039194      -0.000005

       Atomic covalent radius [Angstrom]:                                  0.750

       Atomic van der Waals radius [Angstrom]:                             1.550

     GTH Potential information for                                       GTH-PBE

       Description:                       Goedecker-Teter-Hutter pseudopotential
                                           Goedecker et al., PRB 54, 1703 (1996)
                                          Hartwigsen et al., PRB 58, 3641 (1998)
                                                      Krack, TCA 114, 145 (2005)

       Gaussian exponent of the core charge distribution:               6.208322
       Electronic configuration (s p d ...):                               2   3

       Parameters of the local part of the GTH pseudopotential:

                          rloc        C1          C2          C3          C4
                        0.283791  -12.415226    1.868096

       Parameters of the non-local part of the GTH pseudopotential:

                   l      r(l)      h(i,j,l)

                   0    0.255405   13.630263
                   1    0.245495

  5. Atomic kind: H                                     Number of atoms:     354

     Orbital Basis Set                                            SZV-MOLOPT-GTH

       Number of orbital shell sets:                                           1
       Number of orbital shells:                                               1
       Number of primitive Cartesian functions:                                7
       Number of Cartesian basis functions:                                    1
       Number of spherical basis functions:                                    1
       Norm type:                                                              2

       Normalised Cartesian orbitals:

                        Set   Shell   Orbital            Exponent    Coefficient

                          1       1    2s               11.478000       0.129129
                                                         3.700759       0.177012
                                                         1.446884       0.141285
                                                         0.716815       0.245670
                                                         0.247919       0.094768
                                                         0.066918       0.004062
                                                         0.021708      -0.000053

       Atomic covalent radius [Angstrom]:                                  0.320

       Atomic van der Waals radius [Angstrom]:                             1.090

     GTH Potential information for                                    GTH-PBE-q1

       Description:                       Goedecker-Teter-Hutter pseudopotential
                                           Goedecker et al., PRB 54, 1703 (1996)
                                          Hartwigsen et al., PRB 58, 3641 (1998)
                                                      Krack, TCA 114, 145 (2005)

       Gaussian exponent of the core charge distribution:              12.500000
       Electronic configuration (s p d ...):                                   1

       Parameters of the local part of the GTH pseudopotential:

                          rloc        C1          C2          C3          C4
                        0.200000   -4.178900    0.724463

  6. Atomic kind: O                                     Number of atoms:     156

     Orbital Basis Set                                            SZV-MOLOPT-GTH

       Number of orbital shell sets:                                           1
       Number of orbital shells:                                               2
       Number of primitive Cartesian functions:                                7
       Number of Cartesian basis functions:                                    4
       Number of spherical basis functions:                                    4
       Norm type:                                                              2

       Normalised Cartesian orbitals:

                        Set   Shell   Orbital            Exponent    Coefficient

                          1       1    2s               12.015955      -0.284499
                                                         5.108150      -0.322498
                                                         2.048398       0.148191
                                                         0.832382       0.295475
                                                         0.352316       0.150829
                                                         0.142977       0.015788
                                                         0.046761      -0.000019

                          1       2    3px              12.015955       1.192141
                                                         5.108150       1.354170
                                                         2.048398       0.897267
                                                         0.832382       0.408839
                                                         0.352316       0.116648
                                                         0.142977       0.022184
                                                         0.046761       0.000308
                          1       2    3py              12.015955       1.192141
                                                         5.108150       1.354170
                                                         2.048398       0.897267
                                                         0.832382       0.408839
                                                         0.352316       0.116648
                                                         0.142977       0.022184
                                                         0.046761       0.000308
                          1       2    3pz              12.015955       1.192141
                                                         5.108150       1.354170
                                                         2.048398       0.897267
                                                         0.832382       0.408839
                                                         0.352316       0.116648
                                                         0.142977       0.022184
                                                         0.046761       0.000308

       Atomic covalent radius [Angstrom]:                                  0.730

       Atomic van der Waals radius [Angstrom]:                             1.520

     GTH Potential information for                                    GTH-PBE-q6

       Description:                       Goedecker-Teter-Hutter pseudopotential
                                           Goedecker et al., PRB 54, 1703 (1996)
                                          Hartwigsen et al., PRB 58, 3641 (1998)
                                                      Krack, TCA 114, 145 (2005)

       Gaussian exponent of the core charge distribution:               8.360253
       Electronic configuration (s p d ...):                               2   4

       Parameters of the local part of the GTH pseudopotential:

                          rloc        C1          C2          C3          C4
                        0.244554  -16.667215    2.487311

       Parameters of the non-local part of the GTH pseudopotential:

                   l      r(l)      h(i,j,l)

                   0    0.220956   18.337458
                   1    0.211332


 MOLECULE KIND INFORMATION


 All atoms are their own molecule, skipping detailed information


 TOTAL NUMBERS AND MAXIMUM NUMBERS

  Total number of            - Atomic kinds:                                   6
                             - Atoms:                                        568
                             - Shell sets:                                   568
                             - Shells:                                       782
                             - Primitive Cartesian functions:               3888
                             - Cartesian basis functions:                   1210
                             - Spherical basis functions:                   1210

  Maximum angular momentum of- Orbital basis functions:                        1
                             - Local part of the GTH pseudopotential:          2
                             - Non-local part of the GTH pseudopotential:      4


 MODULE QUICKSTEP:  ATOMIC COORDINATES IN angstrom

  Atom  Kind  Element       X           Y           Z          Z(eff)       Mass

       1     1 I   53   12.663884   12.255908    8.826669      7.0000     126.9045
       2     1 I   53   18.387303   12.593459    9.032005      7.0000     126.9045
       3     1 I   53   11.788612   18.701797    9.059449      7.0000     126.9045
       4     1 I   53   18.421120   18.370628    8.852040      7.0000     126.9045
       5     1 I   53   11.705007    9.245343   12.200936      7.0000     126.9045
       6     1 I   53   19.087236    9.460360   12.238149      7.0000     126.9045
       7     1 I   53    9.239863   12.931547   11.501840      7.0000     126.9045
       8     1 I   53   11.775453   12.288144   15.026930      7.0000     126.9045
       9     1 I   53   12.599937   15.423768   11.994450      7.0000     126.9045
      10     1 I   53   15.448023   11.797433   12.414614      7.0000     126.9045
      11     1 I   53   18.618896   12.468053   15.415984      7.0000     126.9045
      12     1 I   53   17.879011   15.772696   12.349594      7.0000     126.9045
      13     1 I   53   21.727888   13.397392   12.147135      7.0000     126.9045
      14     1 I   53    8.925742   18.402232   12.441770      7.0000     126.9045
      15     1 I   53   12.422671   18.140557   15.346088      7.0000     126.9045
      16     1 I   53   11.800665   21.843939   12.476063      7.0000     126.9045
      17     1 I   53   15.311580   19.101339   11.780296      7.0000     126.9045
      18     1 I   53   18.610674   18.823973   15.264943      7.0000     126.9045
      19     1 I   53   18.455551   22.460858   12.232498      7.0000     126.9045
      20     1 I   53   21.895703   19.173115   11.882383      7.0000     126.9045
      21     1 I   53   12.465315    8.395792   17.828392      7.0000     126.9045
      22     1 I   53   16.982578    8.611360   17.996874      7.0000     126.9045
      23     1 I   53    9.200196   13.017941   18.144226      7.0000     126.9045
      24     1 I   53   12.033801   12.315155   21.326274      7.0000     126.9045
      25     1 I   53   12.771437   15.113863   18.216267      7.0000     126.9045
      26     1 I   53   15.873346   11.679494   18.688395      7.0000     126.9045
      27     1 I   53   19.620531   12.398151   21.566779      7.0000     126.9045
      28     1 I   53   19.191695   16.090926   19.132464      7.0000     126.9045
      29     1 I   53   22.323241   12.714654   17.830053      7.0000     126.9045
      30     1 I   53    9.291674   18.700083   18.046023      7.0000     126.9045
      31     1 I   53   12.501960   18.312426   20.933563      7.0000     126.9045
      32     1 I   53   12.132968   23.540025   17.335057      7.0000     126.9045
      33     1 I   53   15.489902   18.084442   17.913912      7.0000     126.9045
      34     1 I   53   17.460016   19.231510   21.880504      7.0000     126.9045
      35     1 I   53   16.686856   22.428831   18.734402      7.0000     126.9045
      36     1 I   53   21.610539   19.568170   18.158160      7.0000     126.9045
      37     2 Pb  82   12.383555   12.209224   11.892406      4.0000     207.2000
      38     2 Pb  82   18.768050   12.674632   12.098758      4.0000     207.2000
      39     2 Pb  82   11.997976   18.674206   12.122689      4.0000     207.2000
      40     2 Pb  82   18.487926   18.974454   11.950620      4.0000     207.2000
      41     2 Pb  82   12.610974   12.119143   18.301855      4.0000     207.2000
      42     2 Pb  82   19.299275   13.020716   18.569065      4.0000     207.2000
      43     2 Pb  82   12.213998   19.593925   18.190038      4.0000     207.2000
      44     2 Pb  82   18.049702   19.372716   18.862778      4.0000     207.2000
      45     3 C    6   14.825898   15.572862    8.468172      4.0000      12.0107
      46     3 C    6   14.821269    7.579991   14.475240      4.0000      12.0107
      47     3 C    6    8.814532   15.232661   14.795605      4.0000      12.0107
      48     3 C    6   15.043025   14.996746   14.941796      4.0000      12.0107
      49     3 C    6   21.134945   15.897926   15.351092      4.0000      12.0107
      50     3 C    6   15.025449   21.267890   15.031008      4.0000      12.0107
      51     3 C    6   15.366850   15.245087   21.050529      4.0000      12.0107
      52     4 N    7   16.244967   15.468371    9.120147      5.0000      14.0067
      53     4 N    7   16.231597    7.998374   13.963003      5.0000      14.0067
      54     4 N    7   10.171464   15.353513   15.554882      5.0000      14.0067
      55     4 N    7   16.463779   15.256365   15.551299      5.0000      14.0067
      56     4 N    7   22.641668   15.551347   15.450897      5.0000      14.0067
      57     4 N    7   16.543185   21.514268   15.323300      5.0000      14.0067
      58     4 N    7   16.572920   15.550145   21.991605      5.0000      14.0067
      59     5 H    1   14.964778   15.731962    7.426928      1.0000       1.0079
      60     5 H    1   14.315895   16.388554    8.921049      1.0000       1.0079
      61     5 H    1   14.308683   14.662141    8.652829      1.0000       1.0079
      62     5 H    1   16.842378   16.291310    8.856573      1.0000       1.0079
      63     5 H    1   16.745304   14.588733    8.841195      1.0000       1.0079
      64     5 H    1   16.183796   15.476245   10.160106      1.0000       1.0079
      65     5 H    1   14.243295    7.302844   13.628800      1.0000       1.0079
      66     5 H    1   14.381729    8.404410   14.976762      1.0000       1.0079
      67     5 H    1   14.940398    6.760618   15.148270      1.0000       1.0079
      68     5 H    1   16.167369    8.841077   13.374599      1.0000       1.0079
      69     5 H    1   16.669656    7.181192   13.318560      1.0000       1.0079
      70     5 H    1   16.859237    8.188802   14.755242      1.0000       1.0079
      71     5 H    1    8.999501   15.408185   13.764775      1.0000       1.0079
      72     5 H    1    8.143416   15.950955   15.196804      1.0000       1.0079
      73     5 H    1    8.448203   14.249152   14.958096      1.0000       1.0079
      74     5 H    1   10.668567   16.255738   15.357703      1.0000       1.0079
      75     5 H    1   10.795008   14.547101   15.291440      1.0000       1.0079
      76     5 H    1   10.011639   15.286403   16.578737      1.0000       1.0079
      77     5 H    1   15.183051   14.544097   13.991856      1.0000       1.0079
      78     5 H    1   14.546735   15.932782   14.855487      1.0000       1.0079
      79     5 H    1   14.520052   14.346227   15.597686      1.0000       1.0079
      80     5 H    1   17.035083   15.789211   14.855686      1.0000       1.0079
      81     5 H    1   16.962131   14.347190   15.721083      1.0000       1.0079
      82     5 H    1   16.391702   15.815420   16.426698      1.0000       1.0079
      83     5 H    1   20.816268   15.724125   14.353502      1.0000       1.0079
      84     5 H    1   21.020680   16.918601   15.608376      1.0000       1.0079
      85     5 H    1   20.591941   15.289765   16.027733      1.0000       1.0079
      86     5 H    1   23.216904   16.076209   14.641526      1.0000       1.0079
      87     5 H    1   22.785834   14.537793   15.359172      1.0000       1.0079
      88     5 H    1   23.054212   15.859134   16.358311      1.0000       1.0079
      89     5 H    1   14.953838   20.712349   14.128376      1.0000       1.0079
      90     5 H    1   14.535007   22.205573   14.949404      1.0000       1.0079
      91     5 H    1   14.632952   20.700847   15.838678      1.0000       1.0079
      92     5 H    1   16.981185   22.084345   14.572037      1.0000       1.0079
      93     5 H    1   17.073110   20.597334   15.354134      1.0000       1.0079
      94     5 H    1   16.648511   21.983218   16.251446      1.0000       1.0079
      95     5 H    1   15.735500   14.848750   20.138860      1.0000       1.0079
      96     5 H    1   14.847158   16.155063   20.875315      1.0000       1.0079
      97     5 H    1   14.736240   14.540258   21.534348      1.0000       1.0079
      98     5 H    1   17.243462   16.171296   21.512870      1.0000       1.0079
      99     5 H    1   17.056755   14.672387   22.240304      1.0000       1.0079
     100     5 H    1   16.217275   16.059974   22.935314      1.0000       1.0079
     101     5 H    1    7.026446   11.105788   10.640741      1.0000       1.0079
     102     6 O    8    7.846655   10.920959   10.070951      6.0000      15.9994
     103     5 H    1    8.195300   11.677906    8.868916      1.0000       1.0079
     104     5 H    1    6.340259   12.007831   13.501126      1.0000       1.0079
     105     6 O    8    7.197967   11.255249   13.859500      6.0000      15.9994
     106     5 H    1    8.034305   11.757377   13.612283      1.0000       1.0079
     107     5 H    1    6.135663   13.350507   17.338887      1.0000       1.0079
     108     6 O    8    6.745717   11.891647   17.232460      6.0000      15.9994
     109     5 H    1    7.028074   11.527997   16.324535      1.0000       1.0079
     110     5 H    1    6.819969   10.984264   18.260108      1.0000       1.0079
     111     6 O    8    6.967804   10.279415   19.133650      6.0000      15.9994
     112     5 H    1    7.140375   10.795354   19.984091      1.0000       1.0079
     113     5 H    1    5.887735   15.263009   10.718453      1.0000       1.0079
     114     6 O    8    5.746530   14.159047   11.008513      6.0000      15.9994
     115     5 H    1    5.689761   13.574434   10.203373      1.0000       1.0079
     116     5 H    1    5.018358   13.353795   13.806067      1.0000       1.0079
     117     6 O    8    5.636974   12.969496   13.126729      6.0000      15.9994
     118     5 H    1    5.700961   13.562764   12.120354      1.0000       1.0079
     119     5 H    1    5.898911   15.128315   17.071865      1.0000       1.0079
     120     6 O    8    5.750798   14.272251   17.656359      6.0000      15.9994
     121     5 H    1    5.901850   14.455990   18.899757      1.0000       1.0079
     122     5 H    1    6.340016   15.761111   20.439034      1.0000       1.0079
     123     6 O    8    6.128278   14.625104   20.034501      6.0000      15.9994
     124     5 H    1    6.792041   13.959799   20.374933      1.0000       1.0079
     125     5 H    1    5.826455   17.412233   10.610649      1.0000       1.0079
     126     6 O    8    6.092000   16.445296   10.268940      6.0000      15.9994
     127     5 H    1    6.959699   16.541483    9.701502      1.0000       1.0079
     128     5 H    1    5.264712   16.693980   13.059993      1.0000       1.0079
     129     6 O    8    5.971679   16.863151   13.751455      6.0000      15.9994
     130     5 H    1    6.743768   17.341053   13.295194      1.0000       1.0079
     131     5 H    1    5.945236   16.716367   15.375150      1.0000       1.0079
     132     6 O    8    6.080510   16.534514   16.384735      6.0000      15.9994
     133     5 H    1    6.346703   17.369674   16.868544      1.0000       1.0079
     134     5 H    1    6.292844   17.773690   20.346165      1.0000       1.0079
     135     6 O    8    6.637487   16.856017   20.826025      6.0000      15.9994
     136     5 H    1    7.569136   16.922818   21.277444      1.0000       1.0079
     137     5 H    1    5.722521   19.528655   11.754182      1.0000       1.0079
     138     6 O    8    5.748474   18.910370   10.901373      6.0000      15.9994
     139     5 H    1    6.221568   19.416416   10.177009      1.0000       1.0079
     140     5 H    1    5.040601   21.193153   13.061183      1.0000       1.0079
     141     6 O    8    5.811085   20.581213   12.882346      6.0000      15.9994
     142     5 H    1    6.703234   21.136353   12.880219      1.0000       1.0079
     143     5 H    1    5.261896   20.262477   16.732086      1.0000       1.0079
     144     6 O    8    5.963698   20.207466   17.442794      6.0000      15.9994
     145     5 H    1    6.690031   20.901916   17.258545      1.0000       1.0079
     146     5 H    1    5.917609   19.385225   18.906062      1.0000       1.0079
     147     6 O    8    5.972632   19.031677   19.871411      6.0000      15.9994
     148     5 H    1    6.440740   19.737357   20.460470      1.0000       1.0079
     149     5 H    1    6.912571    9.243223    8.211494      1.0000       1.0079
     150     6 O    8    7.399929    8.446407    7.845422      6.0000      15.9994
     151     5 H    1    8.115378    8.214949    8.551052      1.0000       1.0079
     152     5 H    1    9.107748    9.104336   10.225025      1.0000       1.0079
     153     6 O    8    9.352873    8.259879    9.729793      6.0000      15.9994
     154     5 H    1   10.180137    8.524950    8.866538      1.0000       1.0079
     155     5 H    1    7.576587   10.081281   13.899864      1.0000       1.0079
     156     6 O    8    8.296512    9.088209   13.964699      6.0000      15.9994
     157     5 H    1    9.155664    9.347613   13.498647      1.0000       1.0079
     158     5 H    1    8.689546    8.747488   15.433012      1.0000       1.0079
     159     6 O    8    9.061593    8.220447   16.274536      6.0000      15.9994
     160     5 H    1    8.833288    8.388292   17.513627      1.0000       1.0079
     161     5 H    1    7.791126    9.374281   18.931450      1.0000       1.0079
     162     6 O    8    8.607861    8.554878   18.623089      6.0000      15.9994
     163     5 H    1    9.245488    8.162101   19.283633      1.0000       1.0079
     164     5 H    1    7.387971    8.944488   22.780355      1.0000       1.0079
     165     6 O    8    8.281884    9.298673   22.515720      6.0000      15.9994
     166     5 H    1    8.247866   10.301213   22.170123      1.0000       1.0079
     167     5 H    1    8.779993   13.113317    8.003177      1.0000       1.0079
     168     6 O    8    8.507397   12.113289    7.946366      6.0000      15.9994
     169     5 H    1    9.118315   11.346927    7.193464      1.0000       1.0079
     170     5 H    1    8.451415   12.571084   21.799439      1.0000       1.0079
     171     6 O    8    8.399693   11.582862   21.454083      6.0000      15.9994
     172     5 H    1    9.205238   11.497018   20.850201      1.0000       1.0079
     173     5 H    1    8.911279   15.510614    8.442109      1.0000       1.0079
     174     6 O    8    9.398587   14.601098    8.168525      6.0000      15.9994
     175     5 H    1   10.106393   14.423255    8.865038      1.0000       1.0079
     176     5 H    1    8.817387   15.049856   22.059225      1.0000       1.0079
     177     6 O    8    9.059977   14.061442   21.986702      6.0000      15.9994
     178     5 H    1   10.000875   14.000834   21.616610      1.0000       1.0079
     179     5 H    1    8.354163   17.795389    8.430610      1.0000       1.0079
     180     6 O    8    8.400234   16.863752    9.007180      6.0000      15.9994
     181     5 H    1    8.982441   17.073542    9.806569      1.0000       1.0079
     182     5 H    1    9.084573   18.028031   22.221673      1.0000       1.0079
     183     6 O    8    9.072725   16.973885   21.875232      6.0000      15.9994
     184     5 H    1    9.673134   16.989951   21.063836      1.0000       1.0079
     185     5 H    1    7.924889   20.011256    7.988004      1.0000       1.0079
     186     6 O    8    8.521197   19.123997    7.849785      6.0000      15.9994
     187     5 H    1    9.452467   19.368817    8.162835      1.0000       1.0079
     188     5 H    1    8.348433   19.964914   22.110037      1.0000       1.0079
     189     6 O    8    9.110347   19.389610   22.534983      6.0000      15.9994
     190     5 H    1    9.980930   19.921764   22.587978      1.0000       1.0079
     191     5 H    1    6.806864   21.902794    7.846300      1.0000       1.0079
     192     6 O    8    7.392392   21.291748    8.370776      6.0000      15.9994
     193     5 H    1    7.912462   21.777950    9.169556      1.0000       1.0079
     194     5 H    1    8.403974   22.129951   11.272897      1.0000       1.0079
     195     6 O    8    8.734812   22.254570   10.276893      6.0000      15.9994
     196     5 H    1    9.663148   21.869164   10.231615      1.0000       1.0079
     197     5 H    1    8.161162   22.895900   13.273916      1.0000       1.0079
     198     6 O    8    8.067997   21.931891   12.802734      6.0000      15.9994
     199     5 H    1    8.798332   21.312412   13.120150      1.0000       1.0079
     200     5 H    1    8.479920   22.690460   16.652353      1.0000       1.0079
     201     6 O    8    8.185189   21.826076   17.128129      6.0000      15.9994
     202     5 H    1    8.779990   21.041108   16.869985      1.0000       1.0079
     203     5 H    1    8.417201   22.020592   18.679581      1.0000       1.0079
     204     6 O    8    8.573990   22.190401   19.702167      6.0000      15.9994
     205     5 H    1    9.550393   22.321031   19.895374      1.0000       1.0079
     206     5 H    1    6.685684   21.426075   21.926680      1.0000       1.0079
     207     6 O    8    7.284526   20.857094   21.361266      6.0000      15.9994
     208     5 H    1    7.816758   21.463915   20.644542      1.0000       1.0079
     209     5 H    1    9.470080    7.270619   10.426148      1.0000       1.0079
     210     6 O    8    9.613976    6.281358   11.120449      6.0000      15.9994
     211     5 H    1   10.651795    5.848415   11.180723      1.0000       1.0079
     212     5 H    1    8.213982    7.741706   13.741855      1.0000       1.0079
     213     6 O    8    8.299020    6.605970   13.544224      6.0000      15.9994
     214     5 H    1    9.055946    6.275549   11.979512      1.0000       1.0079
     215     5 H    1    9.340960    7.308761   15.909793      1.0000       1.0079
     216     6 O    8    9.484952    6.178033   14.584013      6.0000      15.9994
     217     5 H    1   10.248222    6.000333   13.925897      1.0000       1.0079
     218     5 H    1   10.879138    5.403972   20.576415      1.0000       1.0079
     219     6 O    8   11.034374    6.374672   20.408779      6.0000      15.9994
     220     5 H    1   10.665685    7.063360   21.209823      1.0000       1.0079
     221     5 H    1   10.413545    9.633792    7.295022      1.0000       1.0079
     222     6 O    8   10.844356    8.876357    7.939305      6.0000      15.9994
     223     5 H    1   11.863597    8.714924    7.839439      1.0000       1.0079
     224     5 H    1    9.465003    8.532969   22.313872      1.0000       1.0079
     225     6 O    8   10.390559    8.015347   22.095629      6.0000      15.9994
     226     5 H    1   11.205351    8.501335   22.426941      1.0000       1.0079
     227     5 H    1    9.075391   10.101076    5.896486      1.0000       1.0079
     228     6 O    8    9.725712   10.601783    6.472901      6.0000      15.9994
     229     5 H    1   10.587022   11.601821    5.803758      1.0000       1.0079
     230     5 H    1   12.106370   11.408283   25.967132      1.0000       1.0079
     231     6 O    8   12.442370   11.744180   25.089398      6.0000      15.9994
     232     5 H    1   11.873649   12.592150   24.807128      1.0000       1.0079
     233     5 H    1   10.224374   14.789854    6.787034      1.0000       1.0079
     234     6 O    8   10.825592   14.805149    5.946607      6.0000      15.9994
     235     5 H    1   11.309983   15.882034    5.589227      1.0000       1.0079
     236     5 H    1   10.116256   13.457556   24.004576      1.0000       1.0079
     237     6 O    8   10.933311   13.740025   24.515301      6.0000      15.9994
     238     5 H    1   11.005179   14.778259   24.383023      1.0000       1.0079
     239     5 H    1   11.111588   17.861430    5.478531      1.0000       1.0079
     240     6 O    8   11.717471   16.969841    5.313059      6.0000      15.9994
     241     5 H    1   12.732193   17.213486    5.320357      1.0000       1.0079
     242     5 H    1   10.188445   16.555296   23.220031      1.0000       1.0079
     243     6 O    8   10.828980   16.324545   23.988472      6.0000      15.9994
     244     5 H    1   11.319284   17.169225   24.243381      1.0000       1.0079
     245     5 H    1    9.485543   18.877891    6.194187      1.0000       1.0079
     246     6 O    8   10.378296   19.028370    5.737354      6.0000      15.9994
     247     5 H    1   10.735577   19.965296    6.093023      1.0000       1.0079
     248     5 H    1   11.545013   19.393283   25.635119      1.0000       1.0079
     249     6 O    8   11.929622   19.236146   24.726434      6.0000      15.9994
     250     5 H    1   11.643251   20.025502   24.041834      1.0000       1.0079
     251     5 H    1   10.441758   22.068220    6.110399      1.0000       1.0079
     252     6 O    8   10.925581   21.396974    6.670933      6.0000      15.9994
     253     5 H    1   11.804883   21.876595    7.048096      1.0000       1.0079
     254     5 H    1   10.994636   21.924577   23.409951      1.0000       1.0079
     255     6 O    8   11.370739   21.070354   23.048884      6.0000      15.9994
     256     5 H    1   12.353102   21.293581   22.565496      1.0000       1.0079
     257     5 H    1   11.222055   24.353455    9.746737      1.0000       1.0079
     258     6 O    8   12.149866   23.977743    9.857668      6.0000      15.9994
     259     5 H    1   12.088287   23.200665   10.539605      1.0000       1.0079
     260     5 H    1    8.464973   25.008852   13.290973      1.0000       1.0079
     261     6 O    8    8.290249   24.205991   13.859303      6.0000      15.9994
     262     5 H    1    8.681676   24.319119   14.824156      1.0000       1.0079
     263     5 H    1    8.804995   25.018334   16.899091      1.0000       1.0079
     264     6 O    8    9.169356   24.308719   16.288623      6.0000      15.9994
     265     5 H    1   10.188560   24.130558   16.526299      1.0000       1.0079
     266     5 H    1   10.772784   25.277098   20.567395      1.0000       1.0079
     267     6 O    8   11.266483   24.420864   20.398443      6.0000      15.9994
     268     5 H    1   11.346220   24.251124   19.380535      1.0000       1.0079
     269     5 H    1   13.381275    7.177819    9.066581      1.0000       1.0079
     270     6 O    8   13.588945    6.719707    9.949448      6.0000      15.9994
     271     5 H    1   14.250284    7.367426   10.477070      1.0000       1.0079
     272     5 H    1   12.675333    6.009264   10.639782      1.0000       1.0079
     273     6 O    8   11.924672    5.417155   11.220365      6.0000      15.9994
     274     5 H    1   12.107895    4.438112   11.170174      1.0000       1.0079
     275     5 H    1   14.542003    5.903320   17.751473      1.0000       1.0079
     276     6 O    8   15.131171    5.526698   17.029550      6.0000      15.9994
     277     5 H    1   16.097231    5.774160   17.284742      1.0000       1.0079
     278     5 H    1   12.194798    6.832119   19.947319      1.0000       1.0079
     279     6 O    8   13.151486    7.366278   19.655120      6.0000      15.9994
     280     5 H    1   13.536285    8.500173   21.005533      1.0000       1.0079
     281     5 H    1   13.438927    7.755435    6.706188      1.0000       1.0079
     282     6 O    8   13.376338    8.330591    7.524036      6.0000      15.9994
     283     5 H    1   14.151486    9.060609    7.489557      1.0000       1.0079
     284     5 H    1   14.640375    9.261498   11.320937      1.0000       1.0079
     285     6 O    8   15.132533    8.444043   11.009542      6.0000      15.9994
     286     5 H    1   15.875194    8.719752   10.330835      1.0000       1.0079
     287     5 H    1   13.117433   10.041791   21.365500      1.0000       1.0079
     288     6 O    8   13.475364    9.189409   21.768773      6.0000      15.9994
     289     5 H    1   14.161953    9.897819   23.178336      1.0000       1.0079
     290     5 H    1   11.017223   13.795446    5.628723      1.0000       1.0079
     291     6 O    8   11.217435   12.375309    5.399153      6.0000      15.9994
     292     5 H    1   12.164115   12.056091    5.363049      1.0000       1.0079
     293     5 H    1   14.728252   10.837309    8.190129      1.0000       1.0079
     294     6 O    8   15.247832   10.170365    7.629812      6.0000      15.9994
     295     5 H    1   15.819575   10.808556    6.821980      1.0000       1.0079
     296     5 H    1   13.523176   10.971988   24.395459      1.0000       1.0079
     297     6 O    8   14.378333   10.495510   23.986571      6.0000      15.9994
     298     5 H    1   15.393483   11.341691   24.046143      1.0000       1.0079
     299     5 H    1   13.976269   14.249246   25.080286      1.0000       1.0079
     300     6 O    8   14.961459   14.310406   24.922914      6.0000      15.9994
     301     5 H    1   15.277286   15.298465   24.702070      1.0000       1.0079
     302     5 H    1   15.065951   17.448080   24.216226      1.0000       1.0079
     303     6 O    8   15.810942   16.637475   24.203075      6.0000      15.9994
     304     5 H    1   16.629156   17.049573   24.690417      1.0000       1.0079
     305     5 H    1   14.207354   18.421771    4.431980      1.0000       1.0079
     306     6 O    8   14.169802   17.872459    5.269339      6.0000      15.9994
     307     5 H    1   14.420021   18.511182    6.113429      1.0000       1.0079
     308     5 H    1   13.966356   19.043822    8.002440      1.0000       1.0079
     309     6 O    8   14.689635   19.238490    7.319845      6.0000      15.9994
     310     5 H    1   15.064069   20.184395    7.534266      1.0000       1.0079
     311     5 H    1   13.318900   18.830333   24.525318      1.0000       1.0079
     312     6 O    8   14.345328   18.604046   24.304163      6.0000      15.9994
     313     5 H    1   14.735454   19.313672   23.715854      1.0000       1.0079
     314     5 H    1   12.740308   23.257435    8.355182      1.0000       1.0079
     315     6 O    8   12.928477   22.690451    7.530433      6.0000      15.9994
     316     5 H    1   13.885015   22.310957    7.599191      1.0000       1.0079
     317     5 H    1   15.093400   21.411875   10.992472      1.0000       1.0079
     318     6 O    8   15.357053   22.257292   10.483155      6.0000      15.9994
     319     5 H    1   16.180063   22.638418   10.942139      1.0000       1.0079
     320     5 H    1   13.748998   22.543365   21.604817      1.0000       1.0079
     321     6 O    8   13.592560   21.596929   22.088839      6.0000      15.9994
     322     5 H    1   14.070819   20.857217   21.609502      1.0000       1.0079
     323     5 H    1   13.298688   24.888852   10.730071      1.0000       1.0079
     324     6 O    8   13.981387   25.412052   11.280180      6.0000      15.9994
     325     5 H    1   14.949566   25.464385   10.826450      1.0000       1.0079
     326     5 H    1   14.072360   25.543017   12.558922      1.0000       1.0079
     327     6 O    8   14.363393   25.821381   13.651271      6.0000      15.9994
     328     5 H    1   13.870972   26.651888   13.910573      1.0000       1.0079
     329     5 H    1   14.678624   24.372139   16.405837      1.0000       1.0079
     330     6 O    8   15.354967   24.739180   15.757064      6.0000      15.9994
     331     5 H    1   14.857462   25.120038   14.891143      1.0000       1.0079
     332     5 H    1   12.779321   24.130974   20.781219      1.0000       1.0079
     333     6 O    8   13.759714   23.785292   20.893138      6.0000      15.9994
     334     5 H    1   14.201349   23.718198   19.991358      1.0000       1.0079
     335     5 H    1   17.294338    7.525762    9.526527      1.0000       1.0079
     336     6 O    8   17.561502    6.606044    9.956262      6.0000      15.9994
     337     5 H    1   18.174942    6.095583    9.357715      1.0000       1.0079
     338     5 H    1   17.355217    6.335260   11.432055      1.0000       1.0079
     339     6 O    8   17.233897    6.172779   12.480471      6.0000      15.9994
     340     5 H    1   17.966234    5.588024   12.828187      1.0000       1.0079
     341     5 H    1   18.197270    6.046665   18.815682      1.0000       1.0079
     342     6 O    8   17.660922    6.406061   17.653813      6.0000      15.9994
     343     5 H    1   18.442197    6.435197   16.845983      1.0000       1.0079
     344     5 H    1   18.397772    6.379141   20.605593      1.0000       1.0079
     345     6 O    8   18.773856    5.845437   19.769705      6.0000      15.9994
     346     5 H    1   19.815551    6.241831   19.636229      1.0000       1.0079
     347     5 H    1   16.197613    9.474521    8.418114      1.0000       1.0079
     348     6 O    8   16.900104    8.987117    9.113946      6.0000      15.9994
     349     5 H    1   17.595464    9.669253    9.370664      1.0000       1.0079
     350     5 H    1   17.484844    7.938319   21.984681      1.0000       1.0079
     351     6 O    8   18.289726    7.419124   21.693867      6.0000      15.9994
     352     5 H    1   19.134829    8.024992   21.728081      1.0000       1.0079
     353     5 H    1   16.731725   12.637027    5.921916      1.0000       1.0079
     354     6 O    8   16.502123   11.517235    5.967264      6.0000      15.9994
     355     5 H    1   17.279415   11.017904    5.584140      1.0000       1.0079
     356     5 H    1   15.637290   13.110330   24.513209      1.0000       1.0079
     357     6 O    8   16.122311   12.211191   24.198045      6.0000      15.9994
     358     5 H    1   17.152852   12.110174   24.547853      1.0000       1.0079
     359     5 H    1   16.766009   14.865807    5.569226      1.0000       1.0079
     360     6 O    8   17.179696   13.896112    5.842972      6.0000      15.9994
     361     5 H    1   18.179391   13.989356    5.987468      1.0000       1.0079
     362     5 H    1   15.498652   16.696687    5.236086      1.0000       1.0079
     363     6 O    8   16.413962   16.240909    5.316120      6.0000      15.9994
     364     5 H    1   17.129069   16.999396    5.280417      1.0000       1.0079
     365     5 H    1   17.753288   18.747255    6.319422      1.0000       1.0079
     366     6 O    8   18.005165   18.369064    5.418834      6.0000      15.9994
     367     5 H    1   19.036380   18.360440    5.386684      1.0000       1.0079
     368     5 H    1   17.397896   17.862456   26.502419      1.0000       1.0079
     369     6 O    8   17.782227   17.829976   25.578121      6.0000      15.9994
     370     5 H    1   18.408523   18.718883   25.423520      1.0000       1.0079
     371     5 H    1   15.418032   21.960542    9.044939      1.0000       1.0079
     372     6 O    8   15.385307   21.728119    7.994514      6.0000      15.9994
     373     5 H    1   16.192261   22.116995    7.548733      1.0000       1.0079
     374     5 H    1   18.044752   21.842656   21.796276      1.0000       1.0079
     375     6 O    8   18.776928   22.468613   22.093882      6.0000      15.9994
     376     5 H    1   18.817821   23.314327   21.513254      1.0000       1.0079
     377     5 H    1   16.647488   26.492000   10.078561      1.0000       1.0079
     378     6 O    8   16.386738   25.645520   10.543445      6.0000      15.9994
     379     5 H    1   16.768407   25.644744   11.544752      1.0000       1.0079
     380     5 H    1   15.917913   25.861884   13.370021      1.0000       1.0079
     381     6 O    8   16.896188   25.716056   13.016108      6.0000      15.9994
     382     5 H    1   17.405107   25.116471   13.639256      1.0000       1.0079
     383     5 H    1   16.791108   24.671408   15.889879      1.0000       1.0079
     384     6 O    8   17.884429   24.636312   15.863907      6.0000      15.9994
     385     5 H    1   18.262481   25.523812   16.131178      1.0000       1.0079
     386     5 H    1   17.950496   24.037996   19.808722      1.0000       1.0079
     387     6 O    8   18.653637   24.528454   20.398979      6.0000      15.9994
     388     5 H    1   18.282124   25.417086   20.690097      1.0000       1.0079
     389     5 H    1   20.893301    7.640661   10.073874      1.0000       1.0079
     390     6 O    8   21.007164    7.684065   11.432242      6.0000      15.9994
     391     5 H    1   21.780912    8.396795   11.633994      1.0000       1.0079
     392     5 H    1   20.911701    6.840723   12.535906      1.0000       1.0079
     393     6 O    8   20.980550    6.290115   13.540962      6.0000      15.9994
     394     5 H    1   22.373136    7.009458   13.966512      1.0000       1.0079
     395     5 H    1   19.944077    7.547871   16.076304      1.0000       1.0079
     396     6 O    8   19.445374    6.606164   15.960154      6.0000      15.9994
     397     5 H    1   19.829195    6.101697   15.175176      1.0000       1.0079
     398     5 H    1   20.711917    7.851853   20.286009      1.0000       1.0079
     399     6 O    8   20.881148    7.040128   19.659357      6.0000      15.9994
     400     5 H    1   21.681961    7.229373   19.044167      1.0000       1.0079
     401     5 H    1   20.066081    8.064485    8.591078      1.0000       1.0079
     402     6 O    8   20.934320    7.721607    8.951864      6.0000      15.9994
     403     5 H    1   21.992881    8.407403    8.558572      1.0000       1.0079
     404     5 H    1   19.711309    9.486202   16.642566      1.0000       1.0079
     405     6 O    8   20.430950    8.884653   16.287000      6.0000      15.9994
     406     5 H    1   21.043633    9.450841   15.653315      1.0000       1.0079
     407     5 H    1   20.010068    9.888402   21.190218      1.0000       1.0079
     408     6 O    8   20.438604    8.985604   21.353613      6.0000      15.9994
     409     5 H    1   21.423527    9.204627   21.721301      1.0000       1.0079
     410     5 H    1   20.390763   12.933498    5.794814      1.0000       1.0079
     411     6 O    8   20.652356   11.785091    5.725485      6.0000      15.9994
     412     5 H    1   20.814815   11.424053    4.810280      1.0000       1.0079
     413     5 H    1   19.211745   12.852884   24.928352      1.0000       1.0079
     414     6 O    8   18.445729   12.100494   25.053053      6.0000      15.9994
     415     5 H    1   18.713520   11.418806   25.728344      1.0000       1.0079
     416     5 H    1   20.559381   14.899357    5.369364      1.0000       1.0079
     417     6 O    8   20.211810   14.158289    6.055789      6.0000      15.9994
     418     5 H    1   20.703092   14.325058    6.987610      1.0000       1.0079
     419     5 H    1   20.024711   14.880436   24.868797      1.0000       1.0079
     420     6 O    8   20.223039   13.837170   24.831636      6.0000      15.9994
     421     5 H    1   21.032547   13.678468   24.265952      1.0000       1.0079
     422     5 H    1   20.951472   17.018177    4.855190      1.0000       1.0079
     423     6 O    8   21.092793   16.007821    4.572844      6.0000      15.9994
     424     5 H    1   21.813384   15.929479    3.887581      1.0000       1.0079
     425     5 H    1   18.928729   16.833956   25.203497      1.0000       1.0079
     426     6 O    8   19.767525   16.325015   24.832740      6.0000      15.9994
     427     5 H    1   20.281195   16.934551   24.230204      1.0000       1.0079
     428     5 H    1   20.933196   19.184323    4.613798      1.0000       1.0079
     429     6 O    8   20.765496   18.481239    5.307108      6.0000      15.9994
     430     5 H    1   21.308552   18.758468    6.220176      1.0000       1.0079
     431     5 H    1   19.771453   20.332999   24.578186      1.0000       1.0079
     432     6 O    8   19.439026   19.669999   25.363461      6.0000      15.9994
     433     5 H    1   20.048568   19.724167   26.151153      1.0000       1.0079
     434     5 H    1   19.836103   20.914262    8.897057      1.0000       1.0079
     435     6 O    8   20.703080   21.144184    8.440828      6.0000      15.9994
     436     5 H    1   21.378465   21.582092    9.113264      1.0000       1.0079
     437     5 H    1   18.831882   23.574016   16.158883      1.0000       1.0079
     438     6 O    8   19.545004   22.795781   16.396805      6.0000      15.9994
     439     5 H    1   19.371487   22.431323   17.312321      1.0000       1.0079
     440     5 H    1   19.691094   21.770153   22.924446      1.0000       1.0079
     441     6 O    8   20.340834   21.186934   23.568737      6.0000      15.9994
     442     5 H    1   21.124316   21.750647   23.833341      1.0000       1.0079
     443     5 H    1   20.201370   23.712777   11.207351      1.0000       1.0079
     444     6 O    8   21.091062   24.201050   11.008559      6.0000      15.9994
     445     5 H    1   20.912429   24.908019   10.317157      1.0000       1.0079
     446     5 H    1   20.115901   24.032617   13.751958      1.0000       1.0079
     447     6 O    8   20.980107   24.521459   13.963531      6.0000      15.9994
     448     5 H    1   21.357361   24.786273   13.061722      1.0000       1.0079
     449     5 H    1   21.043753   25.034167   15.742605      1.0000       1.0079
     450     6 O    8   21.098792   25.391966   16.702595      6.0000      15.9994
     451     5 H    1   21.682572   26.207355   16.676395      1.0000       1.0079
     452     5 H    1   20.143879   24.348487   19.639598      1.0000       1.0079
     453     6 O    8   20.988704   24.099657   19.124272      6.0000      15.9994
     454     5 H    1   21.024079   24.557246   18.201475      1.0000       1.0079
     455     5 H    1   22.608645   10.217135    7.846069      1.0000       1.0079
     456     6 O    8   22.864947    9.079221    8.274345      6.0000      15.9994
     457     5 H    1   23.690943    8.943130    8.818110      1.0000       1.0079
     458     5 H    1   22.277983   10.025571   12.747719      1.0000       1.0079
     459     6 O    8   22.849589    9.415606   12.177533      6.0000      15.9994
     460     5 H    1   23.608931   10.064350   11.687352      1.0000       1.0079
     461     5 H    1   23.179070    8.374186   13.273391      1.0000       1.0079
     462     6 O    8   23.179251    7.672458   14.066399      6.0000      15.9994
     463     5 H    1   23.578801    8.056708   15.203881      1.0000       1.0079
     464     5 H    1   23.571675    8.310978   17.158977      1.0000       1.0079
     465     6 O    8   23.964582    8.541340   16.186298      6.0000      15.9994
     466     5 H    1   24.437020    9.485462   16.032401      1.0000       1.0079
     467     5 H    1   22.462456    9.096851   18.549060      1.0000       1.0079
     468     6 O    8   22.969111    8.231249   18.499444      6.0000      15.9994
     469     5 H    1   23.614734    8.137010   19.403588      1.0000       1.0079
     470     5 H    1   23.676091    8.701165   21.337751      1.0000       1.0079
     471     6 O    8   24.231410    8.098171   20.612899      6.0000      15.9994
     472     5 H    1   25.220557    8.129399   20.735076      1.0000       1.0079
     473     5 H    1   21.483885   11.461014    6.580237      1.0000       1.0079
     474     6 O    8   22.303970   11.261566    7.421739      6.0000      15.9994
     475     5 H    1   22.473318   12.062204    7.993404      1.0000       1.0079
     476     5 H    1   21.372432   11.376572   14.750205      1.0000       1.0079
     477     6 O    8   21.874762   10.501348   14.810870      6.0000      15.9994
     478     5 H    1   22.816148   10.696674   15.149150      1.0000       1.0079
     479     5 H    1   23.019398    9.690962   22.995222      1.0000       1.0079
     480     6 O    8   22.856848    9.618465   22.010801      6.0000      15.9994
     481     5 H    1   23.264181   10.605499   21.403059      1.0000       1.0079
     482     5 H    1   21.010444   14.127485    9.055090      1.0000       1.0079
     483     6 O    8   21.531503   14.488125    8.272525      6.0000      15.9994
     484     5 H    1   21.804262   15.481932    8.490488      1.0000       1.0079
     485     5 H    1   21.494426   14.144046   21.935810      1.0000       1.0079
     486     6 O    8   22.296747   14.707383   22.192778      6.0000      15.9994
     487     5 H    1   22.219680   15.695916   21.766490      1.0000       1.0079
     488     5 H    1   21.790949   17.229669    9.792003      1.0000       1.0079
     489     6 O    8   22.193761   16.970269    8.903926      6.0000      15.9994
     490     5 H    1   22.025499   17.791306    8.264256      1.0000       1.0079
     491     5 H    1   21.460696   16.915284   20.337214      1.0000       1.0079
     492     6 O    8   22.192212   16.970369   21.033530      6.0000      15.9994
     493     5 H    1   22.095040   17.940006   21.575438      1.0000       1.0079
     494     5 H    1   21.294735   19.944017    7.857030      1.0000       1.0079
     495     6 O    8   21.916032   19.156358    7.439810      6.0000      15.9994
     496     5 H    1   22.875711   19.533520    7.580917      1.0000       1.0079
     497     5 H    1   21.143271   19.167734   15.096103      1.0000       1.0079
[...]
 flops   320 x    32 x    96             78643200       0.0%    100.0%      0.0%
 flops   288 x    64 x    93             82280448       0.0%    100.0%      0.0%
 flops   314 x   192 x    86             82956288       0.0%    100.0%      0.0%
 flops   320 x   192 x    86             84541440       0.0%    100.0%      0.0%
 flops   303 x    64 x   122             85169664       0.0%    100.0%      0.0%
 flops   291 x    64 x    96             85819392       0.0%    100.0%      0.0%
 flops   295 x    64 x    96             86999040       0.0%    100.0%      0.0%
 flops   314 x   192 x    92             88743936       0.0%    100.0%      0.0%
 flops   303 x    64 x   128             89358336       0.0%    100.0%      0.0%
 flops   320 x   192 x    92             90439680       0.0%    100.0%      0.0%
 flops   311 x    64 x    96             91717632       0.0%    100.0%      0.0%
 flops   313 x    64 x    96             92307456       0.0%    100.0%      0.0%
 flops   288 x   218 x    93             93422592       0.0%    100.0%      0.0%
 flops   288 x   224 x    93             95993856       0.0%    100.0%      0.0%
 flops   224 x    64 x    95             98058240       0.0%    100.0%      0.0%
 flops   291 x    64 x    64            100122624       0.0%    100.0%      0.0%
 flops   295 x    64 x    64            101498880       0.0%    100.0%      0.0%
 flops   311 x    64 x    64            107003904       0.0%    100.0%      0.0%
 flops   313 x    64 x    64            107692032       0.0%    100.0%      0.0%
 flops   224 x    64 x   106            109412352       0.0%    100.0%      0.0%
 flops     4 x    32 x    32            126222336       0.0%    100.0%      0.0%
 flops   288 x    32 x    96            141557760       0.0%    100.0%      0.0%
 flops   224 x   160 x    83            142786560       0.0%    100.0%      0.0%
 flops   288 x   192 x    86            152174592       0.0%    100.0%      0.0%
 flops   288 x   192 x    92            162791424       0.0%    100.0%      0.0%
 flops   314 x   192 x    93            179417088       0.0%    100.0%      0.0%
 flops   320 x   192 x    93            182845440       0.0%    100.0%      0.0%
 flops   224 x    64 x    96            198180864       0.0%    100.0%      0.0%
 flops   301 x    64 x    96            221921280       0.0%    100.0%      0.0%
 flops   303 x    32 x    96            223395840       0.0%    100.0%      0.0%
 flops   224 x    64 x    64            231211008       0.0%    100.0%      0.0%
 flops   314 x    64 x    96            231505920       0.0%    100.0%      0.0%
 flops   320 x    64 x    96            235929600       0.0%    100.0%      0.0%
 flops     1 x    32 x     1            312399360       0.0%    100.0%      0.0%
 flops   224 x   160 x    95            326860800       0.0%    100.0%      0.0%
 flops   288 x   192 x    93            329121792       0.0%    100.0%      0.0%
 flops   224 x   160 x   106            364707840       0.0%    100.0%      0.0%
 flops   288 x    64 x    96            424673280       0.0%    100.0%      0.0%
 flops   303 x    64 x    96            670187520       0.0%    100.0%      0.0%
 flops     1 x     1 x    86            816415200       0.0%    100.0%      0.0%
 flops     1 x     1 x    87            825908400       0.0%    100.0%      0.0%
 flops     4 x    32 x     1            979590144       0.0%    100.0%      0.0%
 flops     1 x    32 x     4            979590144       0.0%    100.0%      0.0%
 flops     1 x     4 x    86           2519112000       0.0%    100.0%      0.0%
 flops     4 x     1 x    86           2543673600       0.0%    100.0%      0.0%
 flops     1 x     4 x    87           2548404000       0.0%    100.0%      0.0%
 flops     4 x     1 x    87           2573251200       0.0%    100.0%      0.0%
 flops     4 x    32 x     4           3009896448       0.0%    100.0%      0.0%
 flops     1 x     1 x    96           7290777600       0.0%    100.0%      0.0%
 flops     4 x     4 x    86           7866316800       0.0%    100.0%      0.0%
 flops     4 x     4 x    87           7957785600       0.0%    100.0%      0.0%
 flops     1 x     1 x    64           8505907200       0.0%    100.0%      0.0%
 flops     1 x     4 x    96          22496256000       0.0%    100.0%      0.0%
 flops     4 x     1 x    96          22715596800       0.0%    100.0%      0.0%
 flops     1 x     4 x    64          26245632000       0.0%    100.0%      0.0%
 flops     4 x     1 x    64          26501529600       0.0%    100.0%      0.0%
 flops     4 x     4 x    96          70248038400       0.0%    100.0%      0.0%
 flops     4 x     4 x    64          81956044800       0.0%    100.0%      0.0%
 flops inhomo. stacks                 10454142940     100.0%      0.0%      0.0%
 flops total                       320.244371E+09       3.3%     96.7%      0.0%
 flops max/rank                     14.429968E+09       3.7%     96.3%      0.0%
 matmuls inhomo. stacks                      1824     100.0%      0.0%      0.0%
 matmuls total                          375744154       0.0%    100.0%      0.0%
 number of processed stacks                722044       0.3%     99.7%      0.0%
 average stack size                                     1.0     521.7       0.0
 marketing flops                     1.475684E+12
 -------------------------------------------------------------------------------
 # multiplications                            641
 max memory usage/rank               1.406611E+09
 # max total images/rank                        3
 # max 3D layers                                1
 # MPI messages exchanged                  292296
 MPI messages size (bytes):
  total size                        44.237586E+09
  min size                           0.000000E+00
  max size                         327.680000E+03
  average size                     151.345172E+03
 MPI breakdown and total messages size (bytes):
             size <=      128                3602                     3000
       128 < size <=     8192                 350                  2792640
      8192 < size <=    32768                2675                 68668576
     32768 < size <=   131072               83287               8401219264
    131072 < size <=  4194304              202382              35764999160
   4194304 < size <= 16777216                   0                        0
  16777216 < size                               0                        0
 -------------------------------------------------------------------------------

 *** WARNING in dbcsr_mm.F:294 :: Using a non-square number of MPI ranks ***
 *** might lead to poor performance. Used ranks: 24 Suggested: 25 49     ***

 -------------------------------------------------------------------------------
 -                                                                             -
 -                      DBCSR MESSAGE PASSING PERFORMANCE                      -
 -                                                                             -
 -------------------------------------------------------------------------------
 ROUTINE             CALLS      AVE VOLUME [Bytes]
 MP_Bcast              354                     12.
 MP_Allreduce         5116                     11.
 MP_Alltoall         17379                 129868.
 MP_ISend            30682                  69624.
 MP_IRecv            29456                  69375.
 -------------------------------------------------------------------------------

 -------------------------------------------------------------------------------
 -                                                                             -
 -                                GRID STATISTICS                              -
 -                                                                             -
 -------------------------------------------------------------------------------
 LP    KERNEL             BACKEND                              COUNT     PERCENT
 1     collocate ortho    REF                              162788024      23.44%
 1     integrate ortho    REF                              162247200      23.36%
 0     collocate ortho    REF                              127090628      18.30%
 0     integrate ortho    REF                              126668400      18.24%
 2     collocate ortho    REF                               57909390       8.34%
 2     integrate ortho    REF                               57717000       8.31%
 0     collocate general  REF                                  27264       0.00%
 0     integrate general  REF                                  27264       0.00%
 -------------------------------------------------------------------------------

 MEMORY| Estimated peak process memory [MiB]                                1342

 -------------------------------------------------------------------------------
 ----                             MULTIGRID INFO                            ----
 -------------------------------------------------------------------------------
 count for grid        1:         460461          cutoff [a.u.]          110.00
 count for grid        2:         248792          cutoff [a.u.]           36.67
 count for grid        3:         201405          cutoff [a.u.]           12.22
 count for grid        4:         130744          cutoff [a.u.]            4.07
 total gridlevel count  :        1041402

 -------------------------------------------------------------------------------
 -                                                                             -
 -                         MESSAGE PASSING PERFORMANCE                         -
 -                                                                             -
 -------------------------------------------------------------------------------

 ROUTINE             CALLS      AVE VOLUME [Bytes]
 MP_Group                4
 MP_Bcast              517                2416783.
 MP_Allreduce         7937                   3187.
 MP_Sync               610
 MP_Alltoall         11725               39164347.
 MP_ISendRecv        55292                 182448.
 MP_Wait            133546
 MP_comm_split           2
 MP_ISend            69828                 685900.
 MP_IRecv            69828                 685906.
 MP_Recv               810                 309760.
 -------------------------------------------------------------------------------


 -------------------------------------------------------------------------------
 -                                                                             -
 -                           R E F E R E N C E S                               -
 -                                                                             -
 -------------------------------------------------------------------------------
 
 CP2K version 8.2, the CP2K developers group (2021).
 CP2K is freely available from https://www.cp2k.org/ .

 Kuehne,Thomas D.; Iannuzzi,Marcella; Del Ben,Mauro;
 Rybkin,Vladimir V.; Seewald,Patrick; Stein,Frederick; Laino,Teodoro;
 Khaliullin,Rustam Z.; Schuett,Ole; Schiffmann,Florian; Golze,Dorothea;
 Wilhelm,Jan; Chulkov,Sergey; Bani-Hashemian,Mohammad Hossein;
 Weber,Valery; Borstnik,Urban; Taillefumier,Mathieu;
 Jakobovits,Alice Shoshana; Lazzaro,Alfio; Pabst,Hans; Mueller,Tiziano;
 Schade,Robert; Guidon,Manuel; Andermatt,Samuel; Holmberg,Nico;
 Schenter,Gregory K.; Hehn,Anna; Bussy,Augustin; Belleflamme,Fabian;
 Tabacchi,Gloria; Gloess,Andreas; Lass,Michael; Bethune,Iain;
 Mundy,Christopher J.; Plessl,Christian; Watkins,Matt;
 VandeVondele,Joost; Krack,Matthias; Hutter,Juerg. 
 The Journal of Chemical Physics, 152 (19), (2020). 
 CP2K: An electronic structure and molecular dynamics software package -
 Quickstep: Efficient and accurate electronic structure calculations.
 https://doi.org/10.1063/5.0007045

 Goerigk, Lars; Hansen, Andreas; Bauer, Christoph; Ehrlich, Stephan;
 Najibi, Asim; Grimme, Stefan. , 19 (48), (2017). 
 A look at the density functional theory zoo with the advanced GMTKN55 database
 for general main group thermochemistry, kinetics and noncovalent interactions.
 https://doi.org/10.1039/C7CP04913G

 Schuett, Ole; Messmer, Peter; Hutter, Juerg; VandeVondele, Joost. 
 Electronic Structure Calculations on Graphics Processing Units, John
 Wiley & Sons, Ltd, 173-190 (2016). 
 GPU-Accelerated Sparse Matrix-Matrix Multiplication for
 Linear Scaling Density Functional Theory.
 https://doi.org/10.1002/9781118670712.ch8

 Heinecke, A; Henry, G; Hutchinson, M; Pabst, H. 
 Proceedings of Intl. Supercomputing Conference, 981-991 (2016). 
 LIBXSMM: Accelerating Small Matrix Multiplications
 by Runtime Code Generation.
 https://doi.org/10.1109/SC.2016.83

 Borstnik, U; VandeVondele, J; Weber, V; Hutter, J. 
 PARALLEL COMPUTING, 40 (5-6), 47-58 (2014). 
 Sparse matrix multiplication: The distributed block-compressed sparse
 row library.
 https://doi.org/10.1016/j.parco.2014.03.012

 Hutter, J; Iannuzzi, M; Schiffmann, F; VandeVondele, J. 
 WIREs Comput Mol Sci., 4 (1), 15-25 (2014). 
 CP2K: atomistic simulations of condensed matter systems.
 https://doi.org/10.1002/wcms.1159

 Grimme, S; Ehrlich, S; Goerigk, L. 
 JOURNAL OF COMPUTATIONAL CHEMISTRY, 32, 1456 (2011). 
 Effect of the damping function in dispersion corrected density functional theory.
 https://doi.org/10.1002/jcc.21759

 Grimme, S; Antony, J; Ehrlich, S; Krieg, H. 
 JOURNAL OF CHEMICAL PHYSICS, 132 (15), 154104 (2010). 
 A consistent and accurate ab initio parametrization of density
 functional dispersion correction (DFT-D) for the 94 elements H-Pu.
 https://doi.org/10.1063/1.3382344

 VandeVondele, J; Hutter, J. 
 JOURNAL OF CHEMICAL PHYSICS, 127 (11), 114105 (2007). 
 Gaussian basis sets for accurate calculations on molecular systems in
 gas and condensed phases.
 https://doi.org/10.1063/1.2770708

 Krack, M. 
 THEORETICAL CHEMISTRY ACCOUNTS, 114 (1-3), 145-152 (2005). 
 Pseudopotentials for H to Kr optimized for gradient-corrected
 exchange-correlation functionals.
 https://doi.org/10.1007/s00214-005-0655-y

 VandeVondele, J; Krack, M; Mohamed, F; Parrinello, M; Chassaing, T;
 Hutter, J. COMPUTER PHYSICS COMMUNICATIONS, 167 (2), 103-128 (2005). 
 QUICKSTEP: Fast and accurate density functional calculations using a
 mixed Gaussian and plane waves approach.
 https://doi.org/10.1016/j.cpc.2004.12.014

 Frigo, M; Johnson, SG. 
 PROCEEDINGS OF THE IEEE, 93 (2), 216-231 (2005). 
 The design and implementation of FFTW3.
 https://doi.org/10.1109/JPROC.2004.840301

 VandeVondele, J; Hutter, J. 
 JOURNAL OF CHEMICAL PHYSICS, 118 (10), 4365-4369 (2003). 
 An efficient orbital transformation method for electronic structure
 calculations.
 https://doi.org/10.1063/1.1543154

 Hartwigsen, C; Goedecker, S; Hutter, J. 
 PHYSICAL REVIEW B, 58 (7), 3641-3662 (1998). 
 Relativistic separable dual-space Gaussian pseudopotentials from H to Rn.
 https://doi.org/10.1103/PhysRevB.58.3641

 Lippert, G; Hutter, J; Parrinello, M. 
 MOLECULAR PHYSICS, 92 (3), 477-487 (1997). 
 A hybrid Gaussian and plane wave density functional scheme.
 https://doi.org/10.1080/002689797170220

 Perdew, JP; Burke, K; Ernzerhof, M. 
 PHYSICAL REVIEW LETTERS, 77 (18), 3865-3868 (1996). 
 Generalized gradient approximation made simple.
 https://doi.org/10.1103/PhysRevLett.77.3865

 Goedecker, S; Teter, M; Hutter, J. 
 PHYSICAL REVIEW B, 54 (3), 1703-1710 (1996). 
 Separable dual-space Gaussian pseudopotentials.
 https://doi.org/10.1103/PhysRevB.54.1703


 -------------------------------------------------------------------------------
 -                                                                             -
 -                                T I M I N G                                  -
 -                                                                             -
 -------------------------------------------------------------------------------
 SUBROUTINE                       CALLS  ASD         SELF TIME        TOTAL TIME
                                MAXIMUM       AVERAGE  MAXIMUM  AVERAGE  MAXIMUM
 CP2K                                 1  1.0    0.040    0.049 2102.344 2102.349
 qs_energies                          1  2.0    0.000    0.000 2101.693 2101.697
 scf_env_do_scf                       1  3.0    0.000    0.000 2097.446 2097.457
 scf_env_do_scf_inner_loop          300  4.0    0.008    0.035 2097.445 2097.456
 qs_ks_update_qs_env                300  5.0    0.002    0.003 1230.788 1230.821
 rebuild_ks_matrix                  300  6.0    0.001    0.001 1230.608 1230.639
 qs_ks_build_kohn_sham_matrix       300  7.0    0.037    0.041 1230.607 1230.638
 pw_transfer                      11109  9.5    0.564    0.643  900.131  957.471
 fft_wrap_pw1pw2                  10509 10.5    0.108    0.123  896.111  953.465
 fft_wrap_pw1pw2_110               6903 11.6   52.994   54.531  864.597  923.546
 qs_vxc_create                      300  8.0    0.006    0.006  773.870  774.303
 xc_vxc_pw_create                   300  9.0   16.235   16.706  773.865  774.297
 fft3d_ps                         10509 12.5  404.436  419.607  681.345  739.960
 qs_rho_update_rho                  301  5.0    0.002    0.002  479.560  479.672
 calculate_rho_elec                 602  6.0    3.178    3.224  479.558  479.670
 xc_rho_set_and_dset_create         300 10.0    5.612    5.731  422.854  451.770
 sum_up_and_integrate               300  8.0    1.827    1.852  400.078  400.111
 integrate_v_rspace                 600  9.0    0.018    0.020  398.249  398.275
 gspace_mixing                      299  5.0    3.165    3.228  293.280  293.280
 density_rs2pw                      602  7.0    0.029    0.031  244.761  269.146
 grid_collocate_task_list           602  7.0  229.467  267.148  229.467  267.148
 grid_integrate_task_list           600 10.0  221.269  254.606  221.269  254.606
 broyden_mixing                     299  6.0  184.632  186.842  197.541  200.168
 mp_alltoall_z22v                 10509 14.5  127.592  186.258  127.592  186.258
 xc_functional_eval                 300 11.0    0.003    0.003  154.922  183.814
 pbe_lsd_eval                       300 12.0  154.920  183.811  154.920  183.811
 yz_to_x                           4809 13.1   50.746   51.786  121.549  177.415
 x_to_yz                           5700 13.9   98.383   99.039  155.171  160.945
 rs_pw_transfer                    4812  9.5    0.062    0.065  134.163  158.442
 potential_pw2rs                    600 10.0    0.225    0.257  142.673  142.731
 qs_scf_new_mos                     300  5.0    0.006    0.007   94.408   94.475
 pw_gather_p                       4809 12.1   85.326   89.528   85.326   89.528
 rs_pw_transfer_RS2PW_110           604  9.0   15.863   16.483   59.904   83.563
 mp_waitany                       69828 11.5   56.917   82.379   56.917   82.379
 eigensolver                        600  6.0    0.033    0.049   80.283   80.337
 pw_scatter_p                      5700 12.9   74.408   75.664   74.408   75.664
 cp_fm_syevd                        604  7.0    0.006    0.008   65.319   65.386
 cp_fm_syevd_base                   604  8.0   65.198   65.277   65.198   65.277
 mp_alltoall_d11v                  8639  9.3   34.673   58.703   34.673   58.703
 rs_gather_matrices                 600 10.0    0.581    0.643   34.289   58.386
 -------------------------------------------------------------------------------

 The number of warnings for this run is : 4
 
 -------------------------------------------------------------------------------
  **** **** ******  **  PROGRAM ENDED AT                 2023-12-04 02:41:54.495
 ***** ** ***  *** **   PROGRAM RAN ON                  csl1.int.triton.aalto.fi
 **    ****   ******    PROGRAM RAN BY                                   huangj4
 ***** **    ** ** **   PROGRAM PROCESS ID                                168527
  **** **  *******  **  PROGRAM STOPPED IN /scratch/phys/sin/Jie/Github/cp2kTest
                                           /PDOS234/Cluster_222
