# Projected DOS for atomic kind I at iteration step i = 0, E(Fermi) =    -0.176117 a.u.
#     MO Eigenvalue [a.u.]      Occupation                 s                py                pz                px
       1         -0.977023        1.000000        0.00000676        0.00005480        0.00002301        0.00001587
       2         -0.974210        1.000000        0.00000234        0.00001477        0.00002764        0.00000567
       3         -0.965247        1.000000        0.00005324        0.00006720        0.00008732        0.00023188
       4         -0.956445        1.000000        0.00008271        0.00016815        0.00025224        0.00019071
       5         -0.954369        1.000000        0.00006538        0.00011293        0.00024241        0.00002300
       6         -0.932770        1.000000        0.00023217        0.00053902        0.00028511        0.00030259
       7         -0.932077        1.000000        0.00018937        0.00053218        0.00025051        0.00018020
       8         -0.714691        1.000000        0.00009648        0.00001857        0.00008297        0.00009240
       9         -0.710344        1.000000        0.00041267        0.00016825        0.00019625        0.00021414
      10         -0.699990        1.000000        0.00184710        0.00025275        0.00024041        0.00048876
      11         -0.696713        1.000000        0.00114473        0.00026483        0.00025271        0.00031423
      12         -0.696608        1.000000        0.00040060        0.00012538        0.00019014        0.00005729
      13         -0.682019        1.000000        0.00153226        0.00020213        0.00027985        0.00031441
      14         -0.681207        1.000000        0.00126681        0.00026355        0.00020380        0.00010998
      15         -0.631159        1.000000        0.96431982        0.00470762        0.01986634        0.00801172
      16         -0.624559        1.000000        0.95308244        0.01489552        0.00360607        0.00181660
      17         -0.616638        1.000000        0.94496902        0.00160604        0.01192963        0.00995414
      18         -0.605035        1.000000        0.02091548        0.00029758        0.00070129        0.00013625
      19         -0.602712        1.000000        0.00544871        0.00020134        0.00030817        0.00002932
      20         -0.596102        1.000000        0.13299372        0.00085723        0.00091346        0.00183790
      21         -0.591868        1.000000        0.67282621        0.00305132        0.00266675        0.00234796
      22         -0.591466        1.000000        0.81066744        0.00272870        0.00246568        0.00243738
      23         -0.590272        1.000000        0.70428712        0.00228472        0.00244143        0.00155801
      24         -0.587587        1.000000        0.74350937        0.00454105        0.00371782        0.00446594
      25         -0.587276        1.000000        0.71563742        0.00398921        0.00345904        0.00279111
      26         -0.586300        1.000000        0.94828485        0.00193202        0.00733865        0.00309918
      27         -0.585144        1.000000        0.61564129        0.00572524        0.00305932        0.00243697
      28         -0.583606        1.000000        0.64098712        0.00382537        0.00181905        0.00118835
      29         -0.583099        1.000000        0.06265823        0.00073271        0.00045899        0.00028630
      30         -0.582732        1.000000        0.13949997        0.00176163        0.00047669        0.00033948
      31         -0.581189        1.000000        0.80622142        0.00438409        0.00360874        0.00213689
      32         -0.581115        1.000000        0.82564119        0.00342523        0.00353932        0.00233101
      33         -0.578180        1.000000        0.75483137        0.00303636        0.00231033        0.00180830
      34         -0.577026        1.000000        0.78334481        0.00282715        0.00287234        0.00295128
      35         -0.575818        1.000000        0.45830926        0.00142989        0.00285034        0.00227077
      36         -0.575378        1.000000        0.58494548        0.00202452        0.00230829        0.00279692
      37         -0.573121        1.000000        0.45279923        0.00106854        0.00165309        0.00105163
      38         -0.570668        1.000000        0.64927521        0.00123355        0.00198575        0.00132849
      39         -0.570151        1.000000        0.51633005        0.00302038        0.00217634        0.00326755
      40         -0.569708        1.000000        0.65401876        0.00314054        0.00255435        0.00368076
      41         -0.568949        1.000000        0.61352235        0.00167909        0.00200495        0.00178910
      42         -0.568510        1.000000        0.39269820        0.00195055        0.00234180        0.00251799
      43         -0.567593        1.000000        0.65534333        0.00184784        0.00213529        0.00340482
      44         -0.566994        1.000000        0.82018667        0.00091296        0.00209521        0.00094293
      45         -0.566096        1.000000        0.91461497        0.00153175        0.00257722        0.00189055
      46         -0.563737        1.000000        0.84197249        0.00251954        0.00194938        0.00398522
      47         -0.562947        1.000000        0.90355259        0.00136233        0.00107913        0.00171925
      48         -0.562802        1.000000        0.90225689        0.00135679        0.00115889        0.00184576
      49         -0.562125        1.000000        0.84540803        0.00088379        0.00048090        0.00360882
      50         -0.561626        1.000000        0.79787947        0.00081022        0.00235146        0.00226171
      51         -0.561155        1.000000        0.91753095        0.00142339        0.00238796        0.00116615
      52         -0.560820        1.000000        0.90932607        0.00214891        0.00049231        0.00064555
      53         -0.559912        1.000000        0.96790252        0.00080731        0.00035998        0.00127435
      54         -0.559196        1.000000        0.89232834        0.00431308        0.00089078        0.00121288
      55         -0.555381        1.000000        0.96417476        0.00164885        0.00014395        0.00084112
      56         -0.554370        1.000000        0.96253504        0.00114334        0.00109441        0.00064919
      57         -0.554327        1.000000        0.96164308        0.00110642        0.00107262        0.00067542
      58         -0.553449        1.000000        0.95523186        0.00174253        0.00028912        0.00134946
      59         -0.550813        1.000000        0.29436721        0.00151498        0.00091559        0.00141323
      60         -0.550472        1.000000        0.55545124        0.00188702        0.00128684        0.00072451
      61         -0.548901        1.000000        0.72448065        0.00150216        0.00085705        0.00086493
      62         -0.548596        1.000000        0.99195800        0.00017963        0.00043618        0.00006355
      63         -0.544352        1.000000        0.23198586        0.00268373        0.00217283        0.00185663
      64         -0.541102        1.000000        0.31221882        0.00188196        0.00175809        0.00097992
      65         -0.501657        1.000000        0.00135438        0.00017965        0.00029433        0.00033626
      66         -0.495756        1.000000        0.00232917        0.00053074        0.00064706        0.00067893
      67         -0.484320        1.000000        0.00283330        0.00053515        0.00088889        0.00168604
      68         -0.481103        1.000000        0.00130924        0.00058881        0.00107692        0.00016801
      69         -0.477959        1.000000        0.00237068        0.00131818        0.00143304        0.00124289
      70         -0.461858        1.000000        0.00492981        0.00226318        0.00249074        0.00309251
      71         -0.461044        1.000000        0.00412499        0.00284013        0.00295232        0.00121585
      72         -0.457015        1.000000        0.16486778        0.04831617        0.03766959        0.04463459
      73         -0.453901        1.000000        0.12740144        0.04781963        0.03282075        0.03668220
      74         -0.450753        1.000000        0.12020457        0.04645584        0.04018914        0.03085215
      75         -0.448643        1.000000        0.13792130        0.02789213        0.03873048        0.03646718
      76         -0.446438        1.000000        0.12921190        0.04116082        0.02760325        0.03465009
      77         -0.445837        1.000000        0.13697414        0.02991983        0.03356253        0.03433013
      78         -0.445145        1.000000        0.13683152        0.02751053        0.03922995        0.03317947
      79         -0.441632        1.000000        0.13426612        0.02561509        0.02244745        0.03658986
      80         -0.424572        1.000000        0.00027050        0.00028593        0.00022887        0.00031407
      81         -0.423763        1.000000        0.00214944        0.00202131        0.00115722        0.00191408
      82         -0.422844        1.000000        0.00037722        0.00021621        0.00043017        0.00050072
      83         -0.420650        1.000000        0.00090039        0.00195473        0.00115127        0.00051704
      84         -0.413369        1.000000        0.00065112        0.00125315        0.00087094        0.00153881
      85         -0.412961        1.000000        0.00177981        0.00160148        0.00193580        0.00340892
      86         -0.412014        1.000000        0.00133110        0.00232484        0.00087359        0.00248265
      87         -0.411219        1.000000        0.00071632        0.00054150        0.00132855        0.00046237
      88         -0.410338        1.000000        0.00112591        0.00135632        0.00196061        0.00165318
      89         -0.408400        1.000000        0.00031776        0.00055924        0.00026911        0.00041700
      90         -0.399894        1.000000        0.00077191        0.00100961        0.00172852        0.00107146
      91         -0.398531        1.000000        0.00089802        0.00168324        0.00144890        0.00083650
      92         -0.398207        1.000000        0.00108030        0.00190892        0.00120343        0.00065194
      93         -0.397031        1.000000        0.00179879        0.00187476        0.00161495        0.00240375
      94         -0.308605        1.000000        0.03242647        0.13454389        0.58643265        0.24440341
      95         -0.301498        1.000000        0.02158730        0.70581783        0.22221898        0.00367191
      96         -0.295266        1.000000        0.02301887        0.00907121        0.49581851        0.42841088
      97         -0.273320        1.000000        0.01133423        0.18414271        0.24285284        0.33071397
      98         -0.269490        1.000000        0.01232632        0.36824722        0.27741883        0.08821113
      99         -0.265727        1.000000        0.01084210        0.33762298        0.15360603        0.23747104
     100         -0.264842        1.000000        0.00884178        0.12740725        0.33005610        0.33120231
     101         -0.262363        1.000000        0.01317885        0.20417206        0.27026815        0.28354330
     102         -0.261666        1.000000        0.01035516        0.18462476        0.31484514        0.25473927
     103         -0.260397        1.000000        0.00849435        0.26992939        0.27008444        0.21957925
     104         -0.257729        1.000000        0.01270526        0.30591506        0.17455950        0.25353478
     105         -0.256647        1.000000        0.01704768        0.27051986        0.29764675        0.15389223
     106         -0.254216        1.000000        0.01128711        0.14440989        0.36560229        0.25479704
     107         -0.253504        1.000000        0.01186293        0.33443039        0.27255118        0.13645534
     108         -0.252741        1.000000        0.01053924        0.16430375        0.22825161        0.40789475
     109         -0.249214        1.000000        0.01200324        0.18398993        0.17957806        0.44519659
     110         -0.246962        1.000000        0.01246346        0.06794702        0.26958069        0.46895779
     111         -0.244559        1.000000        0.01224192        0.42268051        0.11762079        0.27033466
     112         -0.242466        1.000000        0.01006475        0.19650200        0.35604262        0.24703381
     113         -0.240538        1.000000        0.00715117        0.43046871        0.16545341        0.30611807
     114         -0.238892        1.000000        0.00730181        0.54684336        0.18606238        0.15717799
     115         -0.238234        1.000000        0.01292860        0.31063732        0.18939872        0.28447576
     116         -0.237998        1.000000        0.01372001        0.23601259        0.23902704        0.30723903
     117         -0.236724        1.000000        0.01278623        0.16870844        0.34237656        0.29190720
     118         -0.235514        1.000000        0.01568792        0.29236526        0.10040908        0.37283268
     119         -0.234447        1.000000        0.01031631        0.32272960        0.20535786        0.27878982
     120         -0.232865        1.000000        0.01004681        0.33506597        0.29819336        0.22011240
     121         -0.231038        1.000000        0.01119888        0.43037571        0.21409449        0.17385725
     122         -0.229501        1.000000        0.01121104        0.28082923        0.24102255        0.27278383
     123         -0.227385        1.000000        0.00504622        0.14945106        0.21605899        0.51577163
     124         -0.227018        1.000000        0.01013343        0.24117657        0.23547102        0.31703858
     125         -0.224321        1.000000        0.00413672        0.07994028        0.29412989        0.56280647
     126         -0.222989        1.000000        0.00276013        0.37014630        0.23078621        0.32296868
     127         -0.221572        1.000000        0.00539698        0.15427580        0.56540547        0.19087588
     128         -0.219807        1.000000        0.00310083        0.56786087        0.13168281        0.24133868
     129         -0.217633        1.000000        0.00329700        0.48836872        0.33396266        0.13044405
     130         -0.216903        1.000000        0.00294112        0.29307620        0.20200391        0.45947828
     131         -0.214686        1.000000        0.00344954        0.21854502        0.39999603        0.31409466
     132         -0.212860        1.000000        0.00247378        0.15794005        0.23988573        0.55574898
     133         -0.212267        1.000000        0.00267740        0.42385929        0.15236064        0.37455224
     134         -0.211805        1.000000        0.00188415        0.12279541        0.26428403        0.58058054
     135         -0.211138        1.000000        0.00220589        0.28649685        0.34307023        0.32690902
     136         -0.209905        1.000000        0.00204214        0.37492651        0.28930074        0.30010492
     137         -0.208792        1.000000        0.00092661        0.25449199        0.47699365        0.25304359
     138         -0.208125        1.000000        0.00168944        0.57876435        0.13895788        0.25251853
     139         -0.207546        1.000000        0.00134631        0.32426966        0.39429145        0.26531333
     140         -0.206009        1.000000        0.00160351        0.43338100        0.31965398        0.21256785
     141         -0.205428        1.000000        0.00091537        0.54173041        0.34709572        0.09551730
     142         -0.204906        1.000000        0.00079266        0.52330037        0.31882397        0.14525350
     143         -0.204015        1.000000        0.00109568        0.29990721        0.35919302        0.32509625
     144         -0.203243        1.000000        0.00127132        0.30643514        0.32468916        0.34367175
     145         -0.201541        1.000000        0.00162491        0.41747187        0.29327428        0.25476512
     146         -0.201127        1.000000        0.00065397        0.34196171        0.36915141        0.26844783
     147         -0.199904        1.000000        0.00213631        0.61380392        0.16687410        0.17000960
     148         -0.198634        1.000000        0.00111030        0.28299854        0.38521707        0.30812420
     149         -0.197504        1.000000        0.00159341        0.22737411        0.46698283        0.27928374
     150         -0.196745        1.000000        0.00113952        0.38032287        0.40971784        0.18666983
     151         -0.195569        1.000000        0.00148361        0.25700585        0.43329033        0.26723438
     152         -0.194905        1.000000        0.00048771        0.23769803        0.27473359        0.46683848
     153         -0.193770        1.000000        0.00194784        0.31158202        0.35537001        0.29689711
     154         -0.193692        1.000000        0.00080782        0.30182443        0.35080766        0.32259666
     155         -0.192867        1.000000        0.00069472        0.30318104        0.37064991        0.30572340
     156         -0.192317        1.000000        0.00094573        0.37671545        0.34535058        0.25121966
     157         -0.191811        1.000000        0.00140614        0.35129162        0.22914487        0.39745292
     158         -0.191278        1.000000        0.00066542        0.35727696        0.08829821        0.54742556
     159         -0.190774        1.000000        0.00065696        0.34455523        0.20563929        0.44185017
     160         -0.190403        1.000000        0.00044009        0.31707552        0.32109476        0.35682835
     161         -0.189857        1.000000        0.00040044        0.19529602        0.45044845        0.35119395
     162         -0.189553        1.000000        0.00099718        0.41064747        0.32138625        0.25108573
     163         -0.188918        1.000000        0.00104432        0.31416846        0.41139479        0.25668986
     164         -0.188476        1.000000        0.00119333        0.31885383        0.43839623        0.22708659
     165         -0.188208        1.000000        0.00133290        0.28553303        0.33139560        0.36589082
     166         -0.187446        1.000000        0.00125981        0.42097623        0.32338952        0.23974386
     167         -0.187213        1.000000        0.00134625        0.32334807        0.37489661        0.28785591
     168         -0.186526        1.000000        0.00070232        0.36825905        0.23616003        0.38871804
     169         -0.186136        1.000000        0.00057594        0.28673633        0.27430005        0.43440736
     170         -0.186018        1.000000        0.00081912        0.31362773        0.21305880        0.46442935
     171         -0.185578        1.000000        0.00102162        0.40177773        0.26512781        0.31637619
     172         -0.184463        1.000000        0.00088158        0.21014763        0.51106206        0.26223211
     173         -0.184317        1.000000        0.00082973        0.29003291        0.47466097        0.21940840
     174         -0.183009        1.000000        0.00113669        0.45092733        0.17015134        0.34783362
     175         -0.182826        1.000000        0.00092833        0.27084088        0.37543048        0.32270397
     176         -0.181992        1.000000        0.00067620        0.28008098        0.44789541        0.24515948
     177         -0.181592        1.000000        0.00077747        0.09732677        0.79447584        0.09620562
     178         -0.181059        1.000000        0.00101137        0.23776244        0.26355138        0.47236961
     179         -0.180585        1.000000        0.00108557        0.21143498        0.41184639        0.34086499
     180         -0.179828        1.000000        0.00044217        0.27118303        0.43430353        0.27206076
     181         -0.179634        1.000000        0.00035907        0.15811196        0.17330623        0.66231469
     182         -0.179385        1.000000        0.00044103        0.27482868        0.55334060        0.16382214
     183         -0.178666        1.000000        0.00082486        0.27151085        0.18945113        0.51687058
     184         -0.178455        1.000000        0.00040353        0.31596689        0.41097794        0.26017456
     185         -0.178113        1.000000        0.00037827        0.40447283        0.21638029        0.36955940
     186         -0.177941        1.000000        0.00037803        0.40805978        0.11710748        0.43956457
     187         -0.177610        1.000000        0.00039168        0.09471438        0.28265863        0.61855867
     188         -0.177424        1.000000        0.00084305        0.11120928        0.41449697        0.46593077
     189         -0.177362        1.000000        0.00061139        0.34226439        0.18180364        0.43893461
     190         -0.177029        1.000000        0.00075244        0.25310274        0.37105858        0.35902963
     191         -0.176941        1.000000        0.00069335        0.35590735        0.42024546        0.21771652
     192         -0.176708        1.000000        0.00045770        0.38139897        0.40898758        0.19508320
     193         -0.176475        1.000000        0.00055165        0.41508345        0.36994951        0.19627465
     194         -0.176292        1.000000        0.00023579        0.54195224        0.27011514        0.18242274
     195         -0.176117        1.000000        0.00128395        0.47926767        0.10289202        0.40712439
     196         -0.175865        0.000000        0.00291304        0.34849072        0.35537527        0.27592208
     197         -0.175660        0.000000        0.00165472        0.26799060        0.28840565        0.38229664
     198         -0.175290        0.000000        0.00572126        0.58514709        0.29322158        0.09719150
     199         -0.174746        0.000000        0.00948447        0.13880124        0.53040473        0.30610495
     200         -0.174221        0.000000        0.00542868        0.25196040        0.40815353        0.28145172
     201         -0.171381        0.000000        0.00045141        0.32268280        0.20467055        0.33581211
     202         -0.066170        0.000000        0.02141463        0.07331831        0.09843975        0.06409277
     203         -0.061522        0.000000        0.02328141        0.01110879        0.03869679        0.19122615
     204         -0.059314        0.000000        0.01599726        0.07063435        0.12291987        0.06426681
     205         -0.057656        0.000000        0.01562202        0.04901723        0.15895430        0.05261624
     206         -0.056322        0.000000        0.02400566        0.06111460        0.17285944        0.02251658
     207         -0.053283        0.000000        0.02287051        0.03809485        0.18906509        0.03243126
     208         -0.047162        0.000000        0.02139934        0.05609388        0.17214497        0.03835533
     209         -0.045481        0.000000        0.02628304        0.13690595        0.03711389        0.08672785
     210         -0.043253        0.000000        0.02624372        0.12968638        0.09895565        0.04302104
     211         -0.041446        0.000000        0.02183244        0.08590049        0.02086989        0.16888040
     212         -0.038887        0.000000        0.02517907        0.13940392        0.06013230        0.07294648
     213         -0.036860        0.000000        0.02290458        0.09613319        0.07823685        0.10444412
     214         -0.035862        0.000000        0.01823919        0.04900960        0.04064261        0.19436756
     215         -0.032162        0.000000        0.01745110        0.04296871        0.16338709        0.08175673
     216         -0.030618        0.000000        0.01777876        0.01718018        0.16767014        0.10483048
     217         -0.028048        0.000000        0.01950241        0.01859505        0.10417350        0.16429114
     218         -0.027159        0.000000        0.01664056        0.03860529        0.15842813        0.08720082
     219         -0.025771        0.000000        0.01587252        0.02551285        0.09643853        0.16797644
     220         -0.022601        0.000000        0.01698661        0.09035392        0.06073867        0.14239923
     221         -0.021900        0.000000        0.01685003        0.12410046        0.04944566        0.11667452
     222         -0.012127        0.000000        0.01609184        0.06889181        0.03545789        0.19547326
     223         -0.011121        0.000000        0.01442068        0.30183174        0.00355321        0.00985338
     224         -0.010631        0.000000        0.01371934        0.22632379        0.03863500        0.03168883
     225         -0.005369        0.000000        0.01657938        0.26481411        0.02046463        0.02583433
     226          0.079420        0.000000        0.00003845        0.00026368        0.00069659        0.00097179
     227          0.083425        0.000000        0.00007063        0.00056751        0.00110062        0.00057203
     228          0.086119        0.000000        0.00006872        0.00076419        0.00083765        0.00095292
     229          0.090192        0.000000        0.00007308        0.00049423        0.00077811        0.00114036
     230          0.092274        0.000000        0.00003382        0.00069384        0.00054253        0.00012557
     231          0.106701        0.000000        0.00005030        0.00095456        0.00076871        0.00034608
     232          0.109227        0.000000        0.00006647        0.00080604        0.00077797        0.00085767
     233          0.131196        0.000000        0.00000822        0.00006504        0.00030408        0.00006583
     234          0.149174        0.000000        0.00000352        0.00007306        0.00011590        0.00011848
     235          0.180471        0.000000        0.00000640        0.00005888        0.00002968        0.00004587
     236          0.202896        0.000000        0.00000292        0.00014875        0.00004693        0.00004228
     237          0.238405        0.000000        0.00001120        0.00020055        0.00014111        0.00006393
     238          0.268952        0.000000        0.00000743        0.00035828        0.00034344        0.00013512
     239          0.273463        0.000000        0.00031068        0.00417641        0.00070595        0.00247579
     240          0.281472        0.000000        0.00013230        0.00036670        0.00022164        0.00292944
     241          0.282142        0.000000        0.00018028        0.00155398        0.00019697        0.00238035
     242          0.284778        0.000000        0.00041608        0.00373454        0.00572134        0.00068309
     243          0.288120        0.000000        0.00011190        0.00187892        0.00264118        0.00037331
     244          0.293598        0.000000        0.00001505        0.00064657        0.00070274        0.00013753
     245          0.300124        0.000000        0.00107455        0.00797102        0.00441692        0.00519473
     246          0.304154        0.000000        0.00080851        0.00908906        0.00380833        0.00293650
     247          0.306222        0.000000        0.00031271        0.00432698        0.00095691        0.00251276
     248          0.308603        0.000000        0.00010634        0.00113287        0.00088538        0.00293712
     249          0.309771        0.000000        0.00034007        0.00512580        0.00217441        0.00180532
     250          0.317663        0.000000        0.00042779        0.00421905        0.00155676        0.00402715
     251          0.323980        0.000000        0.00058613        0.00288377        0.00895627        0.00070272
     252          0.348801        0.000000        0.00092382        0.01064929        0.00399880        0.00397893
     253          0.351648        0.000000        0.00101747        0.00916799        0.00417108        0.00495854
     254          0.440279        0.000000        0.00000573        0.00005077        0.00008442        0.00002846
     255          0.441711        0.000000        0.00000636        0.00001456        0.00009075        0.00006845
     256          0.444892        0.000000        0.00001386        0.00037110        0.00018260        0.00010364
     257          0.446745        0.000000        0.00002836        0.00030931        0.00020023        0.00009988
     258          0.450381        0.000000        0.00001660        0.00002945        0.00018050        0.00005598
     259          0.451260        0.000000        0.00001252        0.00003920        0.00009977        0.00018363