# Projected DOS for atomic kind Pb at iteration step i = 0, E(Fermi) =    -0.175275 a.u.
#     MO Eigenvalue [a.u.]      Occupation                 s                py                pz                px
       1         -0.976723        1.000000        0.00000001        0.00000028        0.00000034        0.00000039
       2         -0.973917        1.000000        0.00000015        0.00000420        0.00000352        0.00000124
       3         -0.964965        1.000000        0.00000006        0.00000071        0.00000104        0.00000059
       4         -0.956174        1.000000        0.00000010        0.00000161        0.00000134        0.00000078
       5         -0.954071        1.000000        0.00000009        0.00000354        0.00000191        0.00000067
       6         -0.932478        1.000000        0.00000116        0.00001116        0.00000987        0.00001642
       7         -0.931792        1.000000        0.00000023        0.00000137        0.00000320        0.00000191
       8         -0.714379        1.000000        0.00000246        0.00000648        0.00000284        0.00000703
       9         -0.710053        1.000000        0.00003283        0.00007464        0.00008122        0.00001814
      10         -0.699714        1.000000        0.00002361        0.00002831        0.00003890        0.00001758
      11         -0.696444        1.000000        0.00001365        0.00001887        0.00001605        0.00000865
      12         -0.696316        1.000000        0.00000540        0.00000674        0.00000891        0.00000245
      13         -0.681730        1.000000        0.00003790        0.00003709        0.00002347        0.00003587
      14         -0.680926        1.000000        0.00001473        0.00000732        0.00001700        0.00000864
      15         -0.630871        1.000000        0.00099407        0.00000270        0.00046501        0.00150841
      16         -0.624196        1.000000        0.00626866        0.00027553        0.00872705        0.00005637
      17         -0.615918        1.000000        0.00487221        0.00023078        0.00121439        0.00488403
      18         -0.604701        1.000000        0.00059705        0.00002360        0.00012780        0.00031158
      19         -0.602396        1.000000        0.00039190        0.00012233        0.00001041        0.00008771
      20         -0.595794        1.000000        0.00221873        0.00011121        0.00028300        0.00049573
      21         -0.591490        1.000000        0.05508822        0.00548957        0.00630735        0.00217052
      22         -0.590937        1.000000        0.04456372        0.00039181        0.01701757        0.00047754
      23         -0.589920        1.000000        0.04609749        0.00813596        0.00784391        0.00144547
      24         -0.587365        1.000000        0.09035226        0.00392318        0.00269303        0.00456541
      25         -0.587003        1.000000        0.06723334        0.00322156        0.00219672        0.00539540
      26         -0.586025        1.000000        0.00361532        0.00041351        0.00203159        0.00214431
      27         -0.584695        1.000000        0.03969081        0.00600950        0.00225194        0.00112660
      28         -0.582944        1.000000        0.02528639        0.00092689        0.00498749        0.00176770
      29         -0.582734        1.000000        0.00923429        0.00071360        0.00224820        0.00093509
      30         -0.582343        1.000000        0.00882758        0.00059213        0.00371751        0.00023943
      31         -0.580792        1.000000        0.00516002        0.00142744        0.00240455        0.00014298
      32         -0.580416        1.000000        0.00483760        0.00024825        0.00289447        0.00208942
      33         -0.577871        1.000000        0.01784497        0.00216214        0.00907449        0.00867533
      34         -0.576499        1.000000        0.04684365        0.00418846        0.00490516        0.00738486
      35         -0.575456        1.000000        0.03532080        0.00244891        0.00690203        0.00708952
      36         -0.574757        1.000000        0.04520073        0.00909846        0.00127891        0.00194045
      37         -0.572821        1.000000        0.01226788        0.00059567        0.00555667        0.01211972
      38         -0.570252        1.000000        0.01530336        0.01555253        0.00393249        0.00448927
      39         -0.569690        1.000000        0.04830914        0.00308343        0.00167660        0.00508251
      40         -0.569189        1.000000        0.05584089        0.00525853        0.00420732        0.00456205
      41         -0.568569        1.000000        0.02648651        0.00796285        0.00897526        0.00486924
      42         -0.568076        1.000000        0.03641690        0.00407515        0.00501091        0.00283142
      43         -0.567057        1.000000        0.01162809        0.00149798        0.01212555        0.00518140
      44         -0.566655        1.000000        0.00662276        0.00436151        0.01109828        0.00757643
      45         -0.565156        1.000000        0.02755487        0.00176344        0.00635059        0.02365469
      46         -0.562939        1.000000        0.04622228        0.00408832        0.00502062        0.01915111
      47         -0.562746        1.000000        0.00843335        0.03107851        0.00259203        0.00403297
      48         -0.561958        1.000000        0.02745489        0.00277703        0.00234587        0.02392306
      49         -0.561628        1.000000        0.01365641        0.00286108        0.00335566        0.02392293
      50         -0.561037        1.000000        0.02869678        0.00661847        0.00881067        0.01241676
      51         -0.560595        1.000000        0.00402677        0.01724128        0.00506354        0.00258441
      52         -0.560324        1.000000        0.01609683        0.00830553        0.00959498        0.00187984
      53         -0.559431        1.000000        0.00169727        0.00047353        0.00179324        0.01932528
      54         -0.559074        1.000000        0.01456133        0.02286218        0.00525772        0.00134098
      55         -0.554461        1.000000        0.00333579        0.01895374        0.00645084        0.00012980
      56         -0.553582        1.000000        0.00022035        0.00051931        0.01505905        0.01590452
      57         -0.552977        1.000000        0.00300885        0.02262483        0.00083181        0.00735390
      58         -0.552752        1.000000        0.00574212        0.02803740        0.00455490        0.00042450
      59         -0.550493        1.000000        0.00227305        0.00202407        0.00162910        0.00384407
      60         -0.549824        1.000000        0.00538974        0.00338525        0.00444647        0.00303916
      61         -0.547698        1.000000        0.00351928        0.01095050        0.00007376        0.00081733
      62         -0.547167        1.000000        0.00037557        0.00005221        0.00401343        0.00005076
      63         -0.544026        1.000000        0.00494199        0.00087928        0.00498315        0.00112618
      64         -0.540689        1.000000        0.00362582        0.00040978        0.00525673        0.00198263
      65         -0.501354        1.000000        0.00023550        0.00002652        0.00000144        0.00001705
      66         -0.495472        1.000000        0.00033764        0.00007604        0.00006084        0.00002012
      67         -0.484053        1.000000        0.00027949        0.00001490        0.00002344        0.00002700
      68         -0.480818        1.000000        0.00060644        0.00001444        0.00001930        0.00000619
      69         -0.477696        1.000000        0.00169455        0.00004769        0.00004473        0.00001292
      70         -0.461574        1.000000        0.01670344        0.00002654        0.00001262        0.00014164
      71         -0.460765        1.000000        0.01638063        0.00001770        0.00011263        0.00002028
      72         -0.456785        1.000000        0.69099360        0.00154422        0.00145083        0.00090439
      73         -0.453679        1.000000        0.73881233        0.00163321        0.00031651        0.00079291
      74         -0.450281        1.000000        0.75236081        0.00107267        0.00106772        0.00156730
      75         -0.448434        1.000000        0.73823276        0.00021600        0.00058742        0.00070165
      76         -0.446098        1.000000        0.76144191        0.00093069        0.00047830        0.00059011
      77         -0.445486        1.000000        0.75470804        0.00030731        0.00049405        0.00050655
      78         -0.444751        1.000000        0.75955220        0.00011990        0.00079243        0.00043178
      79         -0.441297        1.000000        0.77236922        0.00008699        0.00006393        0.00017597
      80         -0.424267        1.000000        0.00076617        0.00002322        0.00000888        0.00002207
      81         -0.423487        1.000000        0.00834387        0.00036363        0.00045269        0.00004060
      82         -0.422549        1.000000        0.00046500        0.00005276        0.00001120        0.00010246
      83         -0.420374        1.000000        0.00140744        0.00023550        0.00018465        0.00004808
      84         -0.413117        1.000000        0.00024247        0.00010880        0.00005241        0.00010041
      85         -0.412717        1.000000        0.00109529        0.00008137        0.00005084        0.00000743
      86         -0.411762        1.000000        0.00057477        0.00004919        0.00006796        0.00002222
      87         -0.410941        1.000000        0.00014731        0.00001970        0.00002713        0.00000757
      88         -0.410083        1.000000        0.00064308        0.00007496        0.00020127        0.00010801
      89         -0.408122        1.000000        0.00012263        0.00000956        0.00002739        0.00000237
      90         -0.399624        1.000000        0.00049346        0.00001391        0.00002055        0.00010006
      91         -0.398267        1.000000        0.00073646        0.00000960        0.00016084        0.00001945
      92         -0.397941        1.000000        0.00054289        0.00001377        0.00010891        0.00004701
      93         -0.396755        1.000000        0.00031975        0.00001304        0.00003080        0.00012522
      94         -0.308219        1.000000        0.00002759        0.00016696        0.00049647        0.00059529
      95         -0.301042        1.000000        0.00521319        0.00409503        0.03376593        0.00108159
      96         -0.294249        1.000000        0.00232069        0.00179812        0.00509196        0.03280550
      97         -0.273013        1.000000        0.00354242        0.02762743        0.09744362        0.10110291
      98         -0.269145        1.000000        0.00371293        0.16048646        0.08194459        0.00660534
      99         -0.265109        1.000000        0.00816287        0.08122072        0.03091175        0.13541607
     100         -0.264503        1.000000        0.00196546        0.02177737        0.08025143        0.09675115
     101         -0.261965        1.000000        0.00158769        0.08913509        0.06438383        0.06972368
     102         -0.261261        1.000000        0.00512465        0.07909023        0.10275741        0.04874517
     103         -0.259854        1.000000        0.00417267        0.07221661        0.06880955        0.08848334
     104         -0.257462        1.000000        0.00142662        0.10236975        0.03703743        0.10677401
     105         -0.256432        1.000000        0.00219923        0.09042399        0.09703378        0.06850569
     106         -0.253559        1.000000        0.00333105        0.12710801        0.04236078        0.06274086
     107         -0.253070        1.000000        0.00235807        0.06214085        0.13382512        0.03202970
     108         -0.252222        1.000000        0.00023586        0.04531505        0.04491403        0.09567265
     109         -0.248813        1.000000        0.00238357        0.05441596        0.08448908        0.03712503
     110         -0.246732        1.000000        0.00035040        0.01580839        0.07855915        0.08054695
     111         -0.244183        1.000000        0.00080175        0.04394163        0.02966965        0.09710855
     112         -0.242140        1.000000        0.00132913        0.02767908        0.08943299        0.06734481
     113         -0.240266        1.000000        0.00140748        0.02667411        0.02580931        0.02755837
     114         -0.238573        1.000000        0.00170890        0.04101884        0.02181156        0.03211107
     115         -0.237959        1.000000        0.00146790        0.08477956        0.06413315        0.05071625
     116         -0.237643        1.000000        0.00137113        0.06639294        0.08435125        0.05564959
     117         -0.236438        1.000000        0.00374672        0.04718878        0.06273818        0.07106646
     118         -0.235226        1.000000        0.00160855        0.09599308        0.02984867        0.08112444
     119         -0.234051        1.000000        0.00871512        0.12409024        0.01736420        0.02665940
     120         -0.232379        1.000000        0.00406598        0.02225477        0.07760743        0.02733335
     121         -0.230688        1.000000        0.00687737        0.11583516        0.01465474        0.02698766
     122         -0.228970        1.000000        0.00464317        0.10657919        0.06649247        0.01704295
     123         -0.226988        1.000000        0.00855707        0.00358791        0.01160276        0.08128034
     124         -0.226540        1.000000        0.00892889        0.06350034        0.05334806        0.06520897
     125         -0.223633        1.000000        0.00189488        0.00496133        0.01078233        0.03444426
     126         -0.222442        1.000000        0.00371797        0.01630038        0.01529451        0.02945363
     127         -0.221023        1.000000        0.00547704        0.00812150        0.03090837        0.02795271
     128         -0.219450        1.000000        0.00211163        0.02259237        0.02124769        0.00612656
     129         -0.217347        1.000000        0.00188426        0.00794215        0.01340260        0.00852607
     130         -0.216325        1.000000        0.00279895        0.00381399        0.01178538        0.01568499
     131         -0.214131        1.000000        0.00685685        0.00230797        0.01241198        0.03248389
     132         -0.212478        1.000000        0.00654599        0.00734783        0.00881598        0.02052217
     133         -0.211951        1.000000        0.00682097        0.00788632        0.01104497        0.00794714
     134         -0.211481        1.000000        0.00364650        0.00927203        0.00927114        0.00841819
     135         -0.210775        1.000000        0.00462176        0.00548287        0.01882715        0.00578936
     136         -0.209539        1.000000        0.00410857        0.00660531        0.00791148        0.00398378
     137         -0.208445        1.000000        0.00097583        0.00271216        0.00416511        0.00156413
     138         -0.207835        1.000000        0.00446487        0.01070183        0.00398834        0.00620658
     139         -0.207190        1.000000        0.00111060        0.00389233        0.00341497        0.00209909
     140         -0.205548        1.000000        0.00396334        0.00616440        0.01255944        0.00680974
     141         -0.205121        1.000000        0.00304912        0.00337157        0.00468427        0.00090282
     142         -0.204615        1.000000        0.00289839        0.00315194        0.00522500        0.00210431
     143         -0.203711        1.000000        0.00231684        0.00380456        0.00362987        0.00297350
     144         -0.202834        1.000000        0.00617213        0.00810584        0.00378294        0.00558852
     145         -0.201045        1.000000        0.01017489        0.00776237        0.00833744        0.00467765
     146         -0.200600        1.000000        0.00510542        0.00414700        0.00674964        0.00245795
     147         -0.199635        1.000000        0.01518793        0.01558829        0.00573430        0.00567736
     148         -0.198271        1.000000        0.00569026        0.00280652        0.00493017        0.00324822
     149         -0.197085        1.000000        0.00834210        0.00349698        0.01165225        0.00314423
     150         -0.196401        1.000000        0.00320023        0.00361217        0.00819093        0.00131746
     151         -0.195116        1.000000        0.01571543        0.00921404        0.00915929        0.00808272
     152         -0.194414        1.000000        0.00802359        0.00273635        0.00331963        0.00388187
     153         -0.193292        1.000000        0.00602345        0.00425991        0.00649963        0.00450799
     154         -0.193184        1.000000        0.01236359        0.00516551        0.00596048        0.00498335
     155         -0.192383        1.000000        0.01192291        0.00502109        0.00484882        0.00426224
     156         -0.191778        1.000000        0.01042852        0.00206771        0.00358147        0.00271332
     157         -0.191345        1.000000        0.00898478        0.00181923        0.00187969        0.00349221
     158         -0.190811        1.000000        0.00404484        0.00079069        0.00106416        0.00125391
     159         -0.190305        1.000000        0.00513609        0.00136866        0.00226674        0.00154217
     160         -0.189914        1.000000        0.00111554        0.00031986        0.00045621        0.00102442
     161         -0.189033        1.000000        0.00517001        0.00377254        0.00162340        0.00201414
     162         -0.188683        1.000000        0.00494614        0.00143299        0.00562541        0.00291692
     163         -0.188345        1.000000        0.00300933        0.00243831        0.00292142        0.00134570
     164         -0.187957        1.000000        0.00332489        0.00230062        0.00307170        0.00207295
     165         -0.187523        1.000000        0.00383997        0.00209790        0.00148294        0.00081913
     166         -0.186977        1.000000        0.00757835        0.00283728        0.00401930        0.00160114
     167         -0.186570        1.000000        0.00683054        0.00176732        0.00199182        0.00047813
     168         -0.186287        1.000000        0.00235932        0.00147512        0.00230522        0.00137871
     169         -0.185865        1.000000        0.00164645        0.00065569        0.00054565        0.00056890
     170         -0.185582        1.000000        0.00219214        0.00016235        0.00209032        0.00071010
     171         -0.184603        1.000000        0.00561635        0.00105023        0.00167059        0.00294436
     172         -0.184008        1.000000        0.00599044        0.00062301        0.00061516        0.00065906
     173         -0.183373        1.000000        0.01501736        0.00228917        0.00337648        0.00437229
     174         -0.182468        1.000000        0.00712323        0.00096537        0.00147358        0.00133733
     175         -0.182264        1.000000        0.02850302        0.00327690        0.00548758        0.00688625
     176         -0.181326        1.000000        0.00205571        0.00059308        0.00130023        0.00044182
     177         -0.181144        1.000000        0.02059706        0.00060514        0.00420539        0.00295559
     178         -0.180279        1.000000        0.02288480        0.00224963        0.00132257        0.00464158
     179         -0.179929        1.000000        0.00926507        0.00109486        0.00267700        0.00099010
     180         -0.179411        1.000000        0.01432778        0.00128909        0.00243344        0.00379216
     181         -0.179136        1.000000        0.01630516        0.00213666        0.00177008        0.00443560
     182         -0.179077        1.000000        0.00484090        0.00027216        0.00155971        0.00040450
     183         -0.178203        1.000000        0.00615414        0.00027645        0.00177698        0.00280430
     184         -0.177798        1.000000        0.01292536        0.00080606        0.00139233        0.00089031
     185         -0.177537        1.000000        0.01546413        0.00108910        0.00120615        0.00134982
     186         -0.177241        1.000000        0.00564141        0.00026578        0.00059023        0.00031435
     187         -0.176734        1.000000        0.00493792        0.00039147        0.00034196        0.00052345
     188         -0.176533        1.000000        0.00870451        0.00042955        0.00067323        0.00242332
     189         -0.176102        1.000000        0.01037342        0.00072542        0.00050346        0.00164085
     190         -0.175916        1.000000        0.00573637        0.00031828        0.00042229        0.00056282
     191         -0.175761        1.000000        0.00483358        0.00017520        0.00037924        0.00073475
     192         -0.175516        1.000000        0.00947694        0.00063333        0.00121801        0.00062196
     193         -0.175452        1.000000        0.01286606        0.00084282        0.00090223        0.00125282
     194         -0.175275        1.000000        0.00223004        0.00012215        0.00016319        0.00038481
     195         -0.175113        0.000000        0.03396172        0.00128170        0.00178176        0.00409470
     196         -0.174809        0.000000        0.01990851        0.00042331        0.00092268        0.00194470
     197         -0.174737        0.000000        0.04662460        0.00402066        0.00432927        0.00374400
     198         -0.174541        0.000000        0.03795656        0.00062565        0.00089171        0.00344637
     199         -0.174166        0.000000        0.00573070        0.00009332        0.00023480        0.00054775
     200         -0.173349        0.000000        0.03819030        0.00037178        0.00065051        0.00032140
     201         -0.170847        0.000000        0.11952633        0.00124081        0.00860747        0.00056328
     202         -0.065841        0.000000        0.00990293        0.23439515        0.40896673        0.08741913
     203         -0.061202        0.000000        0.00736703        0.02574450        0.08859872        0.61251018
     204         -0.058948        0.000000        0.00762090        0.28388781        0.31252541        0.12026296
     205         -0.057409        0.000000        0.00379154        0.15618434        0.42709234        0.13484169
     206         -0.056062        0.000000        0.00852647        0.14884503        0.55292348        0.00695732
     207         -0.053007        0.000000        0.00462611        0.06518371        0.59620771        0.04971219
     208         -0.046802        0.000000        0.00477898        0.16726895        0.37295272        0.16500702
     209         -0.045212        0.000000        0.00497826        0.40279276        0.09319383        0.20935491
     210         -0.042964        0.000000        0.00722716        0.35338642        0.23881864        0.10204682
     211         -0.041101        0.000000        0.00163068        0.28559001        0.03597079        0.37640079
     212         -0.038597        0.000000        0.00212963        0.39582312        0.11910118        0.18451490
     213         -0.036575        0.000000        0.00392330        0.26507220        0.17369753        0.25515303
     214         -0.035557        0.000000        0.00183283        0.09690316        0.10574531        0.49231351
     215         -0.031881        0.000000        0.00281203        0.11759046        0.38236779        0.19051272
     216         -0.030381        0.000000        0.00094485        0.04542942        0.32383596        0.32206601
     217         -0.027694        0.000000        0.00084524        0.09462880        0.14704658        0.44861892
     218         -0.026818        0.000000        0.00140382        0.12667761        0.39967430        0.17021038
     219         -0.025434        0.000000        0.00222371        0.03663205        0.28347260        0.37040566
     220         -0.022254        0.000000        0.00027725        0.29984768        0.18751995        0.19988167
     221         -0.021553        0.000000        0.00145858        0.18883482        0.05300795        0.44850885
     222         -0.011896        0.000000        0.00034527        0.21682159        0.13192026        0.33457648
     223         -0.011063        0.000000        0.00018677        0.63093740        0.02444086        0.01517906
     224         -0.010109        0.000000        0.00067596        0.41062787        0.11477746        0.16006898
     225         -0.005117        0.000000        0.00040039        0.49356555        0.06513366        0.11278307
     226          0.079702        0.000000        0.00000200        0.00015171        0.00001820        0.00003332
     227          0.083693        0.000000        0.00000073        0.00027133        0.00018938        0.00014529
     228          0.086370        0.000000        0.00000482        0.00016973        0.00006003        0.00002687
     229          0.090445        0.000000        0.00000116        0.00005405        0.00005738        0.00003594
     230          0.092540        0.000000        0.00000143        0.00001774        0.00004541        0.00000220
     231          0.106965        0.000000        0.00000792        0.00001380        0.00013554        0.00001136
     232          0.109495        0.000000        0.00000307        0.00007419        0.00004663        0.00011682
     233          0.131480        0.000000        0.00000076        0.00008503        0.00014854        0.00013641
     234          0.149446        0.000000        0.00000119        0.00000798        0.00000201        0.00002931
     235          0.180762        0.000000        0.00000016        0.00000969        0.00000064        0.00000608
     236          0.203179        0.000000        0.00000119        0.00000072        0.00000131        0.00000025
     237          0.238701        0.000000        0.00000030        0.00000671        0.00000838        0.00000379
     238          0.269235        0.000000        0.00000404        0.00002232        0.00001045        0.00004528
     239          0.273704        0.000000        0.00000257        0.00008246        0.00012121        0.00000453
     240          0.281740        0.000000        0.00000112        0.00001856        0.00002908        0.00003474
     241          0.282402        0.000000        0.00000390        0.00005775        0.00003075        0.00001312
     242          0.285052        0.000000        0.00000306        0.00006617        0.00006802        0.00000310
     243          0.288384        0.000000        0.00000315        0.00000243        0.00003172        0.00008272
     244          0.293884        0.000000        0.00000457        0.00001670        0.00000715        0.00008236
     245          0.300393        0.000000        0.00001072        0.00006089        0.00005733        0.00010074
     246          0.304418        0.000000        0.00003625        0.00008686        0.00028812        0.00006757
     247          0.306483        0.000000        0.00000268        0.00001541        0.00002107        0.00002367
     248          0.308874        0.000000        0.00000102        0.00002482        0.00004807        0.00003331
     249          0.310022        0.000000        0.00002207        0.00003193        0.00024641        0.00005804
     250          0.317912        0.000000        0.00000845        0.00008826        0.00006072        0.00000829
     251          0.324265        0.000000        0.00000217        0.00005903        0.00001209        0.00000668
     252          0.349058        0.000000        0.00003654        0.00004666        0.00033198        0.00007274
     253          0.351913        0.000000        0.00000503        0.00002620        0.00002855        0.00007917
     254          0.440541        0.000000        0.00000024        0.00001974        0.00001348        0.00006092
     255          0.441966        0.000000        0.00000017        0.00000099        0.00000396        0.00000429
     256          0.445131        0.000000        0.00000082        0.00007889        0.00007122        0.00004465
     257          0.446988        0.000000        0.00000195        0.00030088        0.00025282        0.00002805
     258          0.450618        0.000000        0.00000016        0.00000393        0.00000278        0.00000300
     259          0.451481        0.000000        0.00000007        0.00004525        0.00002566        0.00001843