# Projected DOS for atomic kind C at iteration step i = 0, E(Fermi) =    -0.176117 a.u.
#     MO Eigenvalue [a.u.]      Occupation                 s                py                pz                px
       1         -0.977023        1.000000        0.05974512        0.00186067        0.02943939        0.01426247
       2         -0.974210        1.000000        0.06293281        0.00125304        0.00544116        0.04049797
       3         -0.965247        1.000000        0.06038531        0.00091790        0.00000628        0.04514584
       4         -0.956445        1.000000        0.05728288        0.00010026        0.01502846        0.02774906
       5         -0.954369        1.000000        0.06213736        0.00035790        0.00090865        0.04428946
       6         -0.932770        1.000000        0.06263728        0.00193246        0.02289829        0.01933395
       7         -0.932077        1.000000        0.06293899        0.00101651        0.00943777        0.03370448
       8         -0.714691        1.000000        0.43118453        0.00000003        0.00014023        0.00019857
       9         -0.710344        1.000000        0.42945675        0.00032330        0.00000926        0.00076929
      10         -0.699990        1.000000        0.43030907        0.00011946        0.00013266        0.00048361
      11         -0.696713        1.000000        0.44194078        0.00000258        0.00030184        0.00060215
      12         -0.696608        1.000000        0.43676437        0.00000180        0.00013041        0.00098585
      13         -0.682019        1.000000        0.43973368        0.00001388        0.00099050        0.00072773
      14         -0.681207        1.000000        0.44185834        0.00000204        0.00055661        0.00174275
      15         -0.631159        1.000000        0.00003089        0.00001285        0.00002338        0.00000170
      16         -0.624559        1.000000        0.00118738        0.00042158        0.00003298        0.00025705
      17         -0.616638        1.000000        0.00003446        0.00157124        0.00011539        0.00001864
      18         -0.605035        1.000000        0.00013881        0.03341906        0.01272878        0.00685327
      19         -0.602712        1.000000        0.00004474        0.00058857        0.04960065        0.00539614
      20         -0.596102        1.000000        0.00003111        0.02427608        0.02061341        0.00066094
      21         -0.591868        1.000000        0.00020595        0.00363103        0.00822031        0.00411450
      22         -0.591466        1.000000        0.00006398        0.00604954        0.00113882        0.00062600
      23         -0.590272        1.000000        0.00046374        0.00460218        0.00632117        0.00207070
      24         -0.587587        1.000000        0.00038502        0.00312197        0.00376246        0.00103067
      25         -0.587276        1.000000        0.00034006        0.00511230        0.00421586        0.00279086
      26         -0.586300        1.000000        0.00007269        0.00087438        0.00084285        0.00049367
      27         -0.585144        1.000000        0.00018022        0.00988745        0.00688195        0.00560441
      28         -0.583606        1.000000        0.00018921        0.01372829        0.00137557        0.00441145
      29         -0.583099        1.000000        0.00144203        0.04702844        0.00506521        0.01418686
      30         -0.582732        1.000000        0.00087540        0.03376869        0.00609344        0.01695815
      31         -0.581189        1.000000        0.00037495        0.00559286        0.00334781        0.00201860
      32         -0.581115        1.000000        0.00020594        0.00587570        0.00269952        0.00179741
      33         -0.578180        1.000000        0.00021637        0.00514150        0.00504444        0.00145887
      34         -0.577026        1.000000        0.00016531        0.00522346        0.00210754        0.00070545
      35         -0.575818        1.000000        0.00072093        0.01238981        0.01898009        0.00186725
      36         -0.575378        1.000000        0.00031663        0.00478115        0.01229816        0.00408639
      37         -0.573121        1.000000        0.00089039        0.01526413        0.01680642        0.00068710
      38         -0.570668        1.000000        0.00012106        0.01656014        0.00186812        0.00063547
      39         -0.570151        1.000000        0.00003772        0.02276079        0.00272117        0.00107252
      40         -0.569708        1.000000        0.00004143        0.01594637        0.00170128        0.00032593
      41         -0.568949        1.000000        0.00006844        0.00674829        0.01343790        0.00087489
      42         -0.568510        1.000000        0.00003028        0.00749568        0.02734886        0.00129287
      43         -0.567593        1.000000        0.00008243        0.00730748        0.00715098        0.00272381
      44         -0.566994        1.000000        0.00009399        0.00186579        0.00415330        0.00216399
      45         -0.566096        1.000000        0.00003641        0.00089024        0.00053447        0.00006183
      46         -0.563737        1.000000        0.00002714        0.00446993        0.00047063        0.00028356
      47         -0.562947        1.000000        0.00004357        0.00280679        0.00043469        0.00008710
      48         -0.562802        1.000000        0.00003026        0.00266435        0.00035407        0.00024521
      49         -0.562125        1.000000        0.00008186        0.00197227        0.00323437        0.00088272
      50         -0.561626        1.000000        0.00009459        0.00062251        0.00931797        0.00016977
      51         -0.561155        1.000000        0.00001182        0.00292391        0.00091272        0.00023471
      52         -0.560820        1.000000        0.00001202        0.00151980        0.00133953        0.00091598
      53         -0.559912        1.000000        0.00000791        0.00020715        0.00009675        0.00010112
      54         -0.559196        1.000000        0.00001581        0.00182406        0.00035200        0.00082383
      55         -0.555381        1.000000        0.00000204        0.00035028        0.00001627        0.00000223
      56         -0.554370        1.000000        0.00000650        0.00016272        0.00008691        0.00000868
      57         -0.554327        1.000000        0.00000766        0.00012519        0.00001524        0.00002458
      58         -0.553449        1.000000        0.00000229        0.00008782        0.00002091        0.00000985
      59         -0.550813        1.000000        0.00007351        0.03025413        0.01131364        0.00615165
      60         -0.550472        1.000000        0.00019202        0.02776056        0.00133515        0.00069411
      61         -0.548901        1.000000        0.00016478        0.01691359        0.00052899        0.00142544
      62         -0.548596        1.000000        0.00000207        0.00021301        0.00002125        0.00002295
      63         -0.544352        1.000000        0.00009668        0.02048083        0.02982104        0.00630715
      64         -0.541102        1.000000        0.00000664        0.00081395        0.02368379        0.02935095
      65         -0.501657        1.000000        0.03362883        0.01486677        0.20182073        0.12110573
      66         -0.495756        1.000000        0.02911669        0.01309456        0.03280996        0.28958059
      67         -0.484320        1.000000        0.03138830        0.00294110        0.00052931        0.33027272
      68         -0.481103        1.000000        0.02713304        0.00115468        0.00595838        0.33402630
      69         -0.477959        1.000000        0.02628351        0.00101240        0.11607805        0.22247363
      70         -0.461858        1.000000        0.02206125        0.01237300        0.17169301        0.15484198
      71         -0.461044        1.000000        0.02026076        0.00450186        0.07957435        0.25539329
      72         -0.457015        1.000000        0.00016636        0.00033950        0.00038449        0.00260003
      73         -0.453901        1.000000        0.00015916        0.00066100        0.00108593        0.00312469
      74         -0.450753        1.000000        0.00002741        0.00028037        0.00121683        0.00051715
      75         -0.448643        1.000000        0.00023148        0.00014819        0.00299506        0.00369803
      76         -0.446438        1.000000        0.00003610        0.00045567        0.00058793        0.00030340
      77         -0.445837        1.000000        0.00015389        0.00054050        0.00155167        0.00135549
      78         -0.445145        1.000000        0.00002566        0.00017573        0.00028782        0.00029106
      79         -0.441632        1.000000        0.00005286        0.00137839        0.00172183        0.00054751
      80         -0.424572        1.000000        0.00000087        0.36813235        0.11821834        0.06236809
      81         -0.423763        1.000000        0.00004736        0.25504200        0.25890568        0.01391846
      82         -0.422844        1.000000        0.00000098        0.15508707        0.08944696        0.29005633
      83         -0.420650        1.000000        0.00002824        0.25271421        0.22265724        0.06146715
      84         -0.413369        1.000000        0.00003640        0.50442083        0.02223548        0.01365561
      85         -0.412961        1.000000        0.00000562        0.02912101        0.32399391        0.18154656
      86         -0.412014        1.000000        0.00001824        0.51986495        0.01450635        0.00135846
      87         -0.411219        1.000000        0.00005672        0.24625584        0.28764110        0.00199052
      88         -0.410338        1.000000        0.00004608        0.01126270        0.52633037        0.00016798
      89         -0.408400        1.000000        0.00000034        0.28958752        0.23959248        0.00939415
      90         -0.399894        1.000000        0.00002219        0.50196734        0.00324991        0.02354546
      91         -0.398531        1.000000        0.00008987        0.51828587        0.00012438        0.01116333
      92         -0.398207        1.000000        0.00000265        0.00281757        0.41186275        0.11343522
      93         -0.397031        1.000000        0.00001123        0.00629798        0.25090336        0.26856379
      94         -0.308605        1.000000        0.00007438        0.00030660        0.00012434        0.00000466
      95         -0.301498        1.000000        0.00013360        0.00090852        0.00002263        0.00034985
      96         -0.295266        1.000000        0.00007773        0.00023074        0.00011155        0.00008149
      97         -0.273320        1.000000        0.00002062        0.00012394        0.00003974        0.00009590
      98         -0.269490        1.000000        0.00003059        0.00028488        0.00009647        0.00009325
      99         -0.265727        1.000000        0.00013159        0.00017401        0.00044956        0.00011177
     100         -0.264842        1.000000        0.00023039        0.00030933        0.00016254        0.00065472
     101         -0.262363        1.000000        0.00004679        0.00013588        0.00020826        0.00038839
     102         -0.261666        1.000000        0.00006397        0.00014980        0.00052175        0.00030571
     103         -0.260397        1.000000        0.00002157        0.00017869        0.00034407        0.00001832
     104         -0.257729        1.000000        0.00006441        0.00012783        0.00054973        0.00010123
     105         -0.256647        1.000000        0.00003610        0.00025961        0.00016149        0.00016268
     106         -0.254216        1.000000        0.00003800        0.00024363        0.00032717        0.00012385
     107         -0.253504        1.000000        0.00003973        0.00014608        0.00003983        0.00008256
     108         -0.252741        1.000000        0.00057439        0.00068508        0.00008353        0.00010181
     109         -0.249214        1.000000        0.00013911        0.00062569        0.00019281        0.00035767
     110         -0.246962        1.000000        0.00009126        0.00010479        0.00013216        0.00040371
     111         -0.244559        1.000000        0.00009891        0.00027517        0.00049989        0.00042860
     112         -0.242466        1.000000        0.00034178        0.00036512        0.00050229        0.00025645
     113         -0.240538        1.000000        0.00012058        0.00015864        0.00044708        0.00067707
     114         -0.238892        1.000000        0.00006095        0.00006418        0.00003935        0.00008995
     115         -0.238234        1.000000        0.00001289        0.00007730        0.00009141        0.00019419
     116         -0.237998        1.000000        0.00009803        0.00004733        0.00016734        0.00014960
     117         -0.236724        1.000000        0.00029067        0.00017591        0.00034273        0.00017848
     118         -0.235514        1.000000        0.00032312        0.00013587        0.00020064        0.00016428
     119         -0.234447        1.000000        0.00028934        0.00038304        0.00069539        0.00038873
     120         -0.232865        1.000000        0.00016148        0.00018307        0.00072911        0.00057946
     121         -0.231038        1.000000        0.00038197        0.00035864        0.00042486        0.00084535
     122         -0.229501        1.000000        0.00016265        0.00019194        0.00024523        0.00011044
     123         -0.227385        1.000000        0.00021287        0.00045149        0.00050843        0.00043427
     124         -0.227018        1.000000        0.00013537        0.00031850        0.00037582        0.00014456
     125         -0.224321        1.000000        0.00062073        0.00062016        0.00020926        0.00038962
     126         -0.222989        1.000000        0.00007164        0.00024594        0.00047874        0.00030317
     127         -0.221572        1.000000        0.00014267        0.00029416        0.00024653        0.00048817
     128         -0.219807        1.000000        0.00023638        0.00025013        0.00045639        0.00007792
     129         -0.217633        1.000000        0.00033151        0.00008145        0.00065141        0.00076877
     130         -0.216903        1.000000        0.00016485        0.00039818        0.00083817        0.00037004
     131         -0.214686        1.000000        0.00045539        0.00018247        0.00030877        0.00024996
     132         -0.212860        1.000000        0.00018503        0.00025442        0.00059874        0.00053778
     133         -0.212267        1.000000        0.00016171        0.00054071        0.00061174        0.00018077
     134         -0.211805        1.000000        0.00006911        0.00043055        0.00022751        0.00046447
     135         -0.211138        1.000000        0.00018745        0.00031173        0.00026820        0.00025946
     136         -0.209905        1.000000        0.00020309        0.00037616        0.00028703        0.00028149
     137         -0.208792        1.000000        0.00009955        0.00031491        0.00068511        0.00012184
     138         -0.208125        1.000000        0.00013482        0.00012262        0.00031056        0.00039071
     139         -0.207546        1.000000        0.00010644        0.00032370        0.00032137        0.00020324
     140         -0.206009        1.000000        0.00008601        0.00010491        0.00020721        0.00020087
     141         -0.205428        1.000000        0.00006267        0.00002618        0.00012885        0.00010598
     142         -0.204906        1.000000        0.00008491        0.00006308        0.00009259        0.00013175
     143         -0.204015        1.000000        0.00006637        0.00010587        0.00022424        0.00005847
     144         -0.203243        1.000000        0.00007916        0.00014125        0.00027984        0.00005158
     145         -0.201541        1.000000        0.00020283        0.00021618        0.00019886        0.00013690
     146         -0.201127        1.000000        0.00003307        0.00014639        0.00018383        0.00004055
     147         -0.199904        1.000000        0.00018252        0.00021445        0.00008539        0.00014662
     148         -0.198634        1.000000        0.00008416        0.00038144        0.00011940        0.00004786
     149         -0.197504        1.000000        0.00010215        0.00016490        0.00008236        0.00015226
     150         -0.196745        1.000000        0.00012055        0.00012853        0.00025581        0.00009627
     151         -0.195569        1.000000        0.00010798        0.00027614        0.00020077        0.00003510
     152         -0.194905        1.000000        0.00012666        0.00019919        0.00020383        0.00007315
     153         -0.193770        1.000000        0.00009697        0.00017505        0.00012452        0.00038526
     154         -0.193692        1.000000        0.00016407        0.00023078        0.00024608        0.00004550
     155         -0.192867        1.000000        0.00017106        0.00020552        0.00026156        0.00014135
     156         -0.192317        1.000000        0.00005614        0.00009573        0.00007852        0.00008109
     157         -0.191811        1.000000        0.00005231        0.00012919        0.00003163        0.00025105
     158         -0.191278        1.000000        0.00008073        0.00014859        0.00013020        0.00039990
     159         -0.190774        1.000000        0.00005012        0.00009588        0.00004232        0.00003852
     160         -0.190403        1.000000        0.00001953        0.00003262        0.00000933        0.00003193
     161         -0.189857        1.000000        0.00006679        0.00005570        0.00011111        0.00007410
     162         -0.189553        1.000000        0.00002667        0.00007079        0.00003811        0.00005947
     163         -0.188918        1.000000        0.00008623        0.00008924        0.00032043        0.00011367
     164         -0.188476        1.000000        0.00022591        0.00024498        0.00083227        0.00008233
     165         -0.188208        1.000000        0.00009957        0.00026563        0.00007634        0.00007794
     166         -0.187446        1.000000        0.00006262        0.00006891        0.00010432        0.00008702
     167         -0.187213        1.000000        0.00006290        0.00007331        0.00013193        0.00013204
     168         -0.186526        1.000000        0.00004099        0.00009347        0.00012243        0.00003935
     169         -0.186136        1.000000        0.00004848        0.00010428        0.00013756        0.00008131
     170         -0.186018        1.000000        0.00009646        0.00007846        0.00017998        0.00002885
     171         -0.185578        1.000000        0.00006005        0.00002290        0.00006249        0.00001103
     172         -0.184463        1.000000        0.00011880        0.00001929        0.00030574        0.00002816
     173         -0.184317        1.000000        0.00010377        0.00000890        0.00022905        0.00000549
     174         -0.183009        1.000000        0.00001677        0.00001752        0.00004265        0.00005916
     175         -0.182826        1.000000        0.00001905        0.00001116        0.00002884        0.00003976
     176         -0.181992        1.000000        0.00003802        0.00002434        0.00006442        0.00003159
     177         -0.181592        1.000000        0.00003092        0.00005224        0.00011680        0.00001696
     178         -0.181059        1.000000        0.00002072        0.00004169        0.00003338        0.00003121
     179         -0.180585        1.000000        0.00002562        0.00002992        0.00002741        0.00002449
     180         -0.179828        1.000000        0.00008300        0.00005560        0.00008326        0.00006211
     181         -0.179634        1.000000        0.00009562        0.00003870        0.00011261        0.00002210
     182         -0.179385        1.000000        0.00008726        0.00013430        0.00004559        0.00001963
     183         -0.178666        1.000000        0.00004491        0.00006317        0.00003665        0.00003051
     184         -0.178455        1.000000        0.00001788        0.00001799        0.00001987        0.00001506
     185         -0.178113        1.000000        0.00003889        0.00002598        0.00006096        0.00002864
     186         -0.177941        1.000000        0.00004330        0.00001887        0.00011231        0.00003271
     187         -0.177610        1.000000        0.00000147        0.00001875        0.00004240        0.00000787
     188         -0.177424        1.000000        0.00002482        0.00001527        0.00003621        0.00001242
     189         -0.177362        1.000000        0.00003965        0.00005557        0.00013861        0.00002615
     190         -0.177029        1.000000        0.00000482        0.00001352        0.00002713        0.00001408
     191         -0.176941        1.000000        0.00000644        0.00002462        0.00000866        0.00003004
     192         -0.176708        1.000000        0.00000984        0.00002272        0.00000519        0.00003546
     193         -0.176475        1.000000        0.00000842        0.00001950        0.00002662        0.00001321
     194         -0.176292        1.000000        0.00005772        0.00004152        0.00002972        0.00001996
     195         -0.176117        1.000000        0.00003149        0.00002021        0.00007857        0.00001873
     196         -0.175865        0.000000        0.00002605        0.00006008        0.00012962        0.00005957
     197         -0.175660        0.000000        0.00001039        0.00001125        0.00001941        0.00000956
     198         -0.175290        0.000000        0.00000977        0.00014612        0.00005518        0.00008279
     199         -0.174746        0.000000        0.00009635        0.00006510        0.00006053        0.00001011
     200         -0.174221        0.000000        0.00003868        0.00010242        0.00001661        0.00000914
     201         -0.171381        0.000000        0.00000578        0.00004105        0.00000491        0.00002316
     202         -0.066170        0.000000        0.00008775        0.00010338        0.00013458        0.00011828
     203         -0.061522        0.000000        0.00006896        0.00001009        0.00007522        0.00005418
     204         -0.059314        0.000000        0.00003931        0.00003586        0.00012164        0.00007188
     205         -0.057656        0.000000        0.00011777        0.00016605        0.00023901        0.00027416
     206         -0.056322        0.000000        0.00003344        0.00002438        0.00005349        0.00017095
     207         -0.053283        0.000000        0.00001937        0.00001926        0.00001246        0.00002693
     208         -0.047162        0.000000        0.00001137        0.00000749        0.00003003        0.00001919
     209         -0.045481        0.000000        0.00002673        0.00001734        0.00005643        0.00013412
     210         -0.043253        0.000000        0.00001804        0.00001671        0.00001747        0.00004226
     211         -0.041446        0.000000        0.00005344        0.00004240        0.00003725        0.00002506
     212         -0.038887        0.000000        0.00000683        0.00000353        0.00001972        0.00001818
     213         -0.036860        0.000000        0.00001838        0.00000856        0.00002191        0.00004353
     214         -0.035862        0.000000        0.00003896        0.00002021        0.00003197        0.00001800
     215         -0.032162        0.000000        0.00000927        0.00001119        0.00001185        0.00002935
     216         -0.030618        0.000000        0.00001817        0.00002638        0.00003473        0.00002378
     217         -0.028048        0.000000        0.00002221        0.00003467        0.00001164        0.00004807
     218         -0.027159        0.000000        0.00006757        0.00001196        0.00007672        0.00002292
     219         -0.025771        0.000000        0.00001365        0.00000283        0.00001753        0.00002883
     220         -0.022601        0.000000        0.00000688        0.00001446        0.00002669        0.00001247
     221         -0.021900        0.000000        0.00001310        0.00002691        0.00002063        0.00004885
     222         -0.012127        0.000000        0.00001245        0.00001197        0.00000731        0.00002467
     223         -0.011121        0.000000        0.00004246        0.00001462        0.00008031        0.00003240
     224         -0.010631        0.000000        0.00000928        0.00000419        0.00006339        0.00000486
     225         -0.005369        0.000000        0.00001752        0.00002940        0.00000355        0.00002896
     226          0.079420        0.000000        0.08491258        0.01949770        0.35031844        0.17734982
     227          0.083425        0.000000        0.07993917        0.01547479        0.06568547        0.45823300
     228          0.086119        0.000000        0.07985083        0.00190860        0.19128550        0.36233127
     229          0.090192        0.000000        0.08057414        0.00899565        0.00032382        0.53720439
     230          0.092274        0.000000        0.08353805        0.00370916        0.01043458        0.52565865
     231          0.106701        0.000000        0.08238563        0.01330388        0.11953492        0.41240336
     232          0.109227        0.000000        0.08090011        0.02312388        0.28223661        0.24056160
     233          0.131196        0.000000        0.00511759        0.00010340        0.00179377        0.01290567
     234          0.149174        0.000000        0.00390182        0.00065277        0.00001997        0.00853100
     235          0.180471        0.000000        0.00064479        0.00097461        0.00074181        0.00003934
     236          0.202896        0.000000        0.00349754        0.00013707        0.00028710        0.00977236
     237          0.238405        0.000000        0.00309310        0.00127693        0.00039567        0.00581556
     238          0.268952        0.000000        0.00000332        0.00000876        0.00454614        0.00056465
     239          0.273463        0.000000        0.00000182        0.00471274        0.00020049        0.00004257
     240          0.281472        0.000000        0.00001194        0.00276645        0.00294205        0.00027387
     241          0.282142        0.000000        0.00000747        0.00057767        0.00327244        0.00197673
     242          0.284778        0.000000        0.00008569        0.00412414        0.00185064        0.00013758
     243          0.288120        0.000000        0.00291996        0.00258012        0.00118834        0.00013144
     244          0.293598        0.000000        0.00351448        0.00280436        0.00000471        0.00010700
     245          0.300124        0.000000        0.00028347        0.00029079        0.00214122        0.00468550
     246          0.304154        0.000000        0.00006097        0.00260048        0.00465396        0.00032137
     247          0.306222        0.000000        0.00021241        0.00742737        0.00117449        0.00007379
     248          0.308603        0.000000        0.00309178        0.00172731        0.00139538        0.00015112
     249          0.309771        0.000000        0.00001709        0.00646752        0.00188818        0.00193550
     250          0.317663        0.000000        0.00475496        0.00007197        0.00013125        0.00007452
     251          0.323980        0.000000        0.00393260        0.00064632        0.00333093        0.00015861
     252          0.348801        0.000000        0.00531603        0.00002973        0.00003094        0.00006002
     253          0.351648        0.000000        0.00539376        0.00005497        0.00022021        0.00004661
     254          0.440279        0.000000        0.00004444        0.37286852        0.01708572        0.00053411
     255          0.441711        0.000000        0.00001843        0.00355549        0.12494082        0.26433860
     256          0.444892        0.000000        0.00013088        0.20987893        0.12921650        0.05102282
     257          0.446745        0.000000        0.00020301        0.17101108        0.21376944        0.00906766
     258          0.450381        0.000000        0.00039271        0.03010570        0.35322889        0.00751645
     259          0.451260        0.000000        0.00151536        0.25379206        0.12852103        0.00792648