# Projected DOS for atomic kind I at iteration step i = 0, E(Fermi) =    -0.175275 a.u.
#     MO Eigenvalue [a.u.]      Occupation                 s                py                pz                px
       1         -0.976723        1.000000        0.00000676        0.00005477        0.00002303        0.00001586
       2         -0.973917        1.000000        0.00000233        0.00001477        0.00002764        0.00000567
       3         -0.964965        1.000000        0.00005315        0.00006712        0.00008724        0.00023166
       4         -0.956174        1.000000        0.00008261        0.00016806        0.00025214        0.00019057
       5         -0.954071        1.000000        0.00006529        0.00011293        0.00024202        0.00002298
       6         -0.932478        1.000000        0.00023183        0.00053860        0.00028484        0.00030238
       7         -0.931792        1.000000        0.00018917        0.00053184        0.00025030        0.00018004
       8         -0.714379        1.000000        0.00009613        0.00001858        0.00008308        0.00009255
       9         -0.710053        1.000000        0.00041102        0.00016835        0.00019635        0.00021429
      10         -0.699714        1.000000        0.00184155        0.00025227        0.00024015        0.00048818
      11         -0.696444        1.000000        0.00112862        0.00026694        0.00026582        0.00031922
      12         -0.696316        1.000000        0.00041215        0.00012321        0.00017653        0.00005227
      13         -0.681730        1.000000        0.00152577        0.00020171        0.00027945        0.00031404
      14         -0.680926        1.000000        0.00126618        0.00026318        0.00020353        0.00010987
      15         -0.630871        1.000000        0.96436308        0.00470197        0.01983604        0.00800163
      16         -0.624196        1.000000        0.95309952        0.01486807        0.00359403        0.00181994
      17         -0.615918        1.000000        0.94468847        0.00161737        0.01188698        0.00992972
      18         -0.604701        1.000000        0.02003238        0.00029747        0.00069579        0.00013502
      19         -0.602396        1.000000        0.00537096        0.00020125        0.00030765        0.00002908
      20         -0.595794        1.000000        0.13214098        0.00084590        0.00090637        0.00183311
      21         -0.591490        1.000000        0.66358714        0.00323490        0.00278113        0.00235429
      22         -0.590937        1.000000        0.81576403        0.00272699        0.00245971        0.00248467
      23         -0.589920        1.000000        0.70330707        0.00213444        0.00230980        0.00150075
      24         -0.587365        1.000000        0.75253000        0.00454363        0.00357827        0.00434401
      25         -0.587003        1.000000        0.71936350        0.00399357        0.00370182        0.00307897
      26         -0.586025        1.000000        0.95176033        0.00188706        0.00739511        0.00307589
      27         -0.584695        1.000000        0.58392778        0.00578196        0.00291687        0.00228850
      28         -0.582944        1.000000        0.43029769        0.00280599        0.00119812        0.00078557
      29         -0.582734        1.000000        0.16321336        0.00118224        0.00074466        0.00048586
      30         -0.582343        1.000000        0.23834618        0.00251287        0.00076592        0.00053620
      31         -0.580792        1.000000        0.68054588        0.00589584        0.00193050        0.00121394
      32         -0.580416        1.000000        0.93268761        0.00181419        0.00516465        0.00318518
      33         -0.577871        1.000000        0.76370871        0.00296818        0.00206659        0.00148814
      34         -0.576499        1.000000        0.76277466        0.00248235        0.00281177        0.00293694
      35         -0.575456        1.000000        0.48808900        0.00165641        0.00305239        0.00242210
      36         -0.574757        1.000000        0.59836654        0.00212231        0.00256425        0.00303403
      37         -0.572821        1.000000        0.45529475        0.00104641        0.00163135        0.00103650
      38         -0.570252        1.000000        0.65148861        0.00117390        0.00187642        0.00125216
      39         -0.569690        1.000000        0.50060709        0.00297136        0.00221567        0.00325289
      40         -0.569189        1.000000        0.66770661        0.00320161        0.00260915        0.00371552
      41         -0.568569        1.000000        0.60163841        0.00173956        0.00213854        0.00182295
      42         -0.568076        1.000000        0.38864122        0.00186839        0.00224609        0.00245324
      43         -0.567057        1.000000        0.68997988        0.00166421        0.00217655        0.00294380
      44         -0.566655        1.000000        0.77944171        0.00112910        0.00192373        0.00148429
      45         -0.565156        1.000000        0.91591854        0.00154918        0.00271400        0.00195066
      46         -0.562939        1.000000        0.84878249        0.00243178        0.00186197        0.00407595
      47         -0.562746        1.000000        0.93806457        0.00100556        0.00068955        0.00086587
      48         -0.561958        1.000000        0.87364948        0.00187871        0.00175215        0.00276774
      49         -0.561628        1.000000        0.84661630        0.00086246        0.00048391        0.00362966
      50         -0.561037        1.000000        0.80581300        0.00088570        0.00244524        0.00237582
      51         -0.560595        1.000000        0.91234691        0.00221472        0.00048642        0.00061970
      52         -0.560324        1.000000        0.88317791        0.00249334        0.00230529        0.00135625
      53         -0.559431        1.000000        0.97198354        0.00068373        0.00037363        0.00128389
      54         -0.559074        1.000000        0.92487183        0.00326780        0.00091249        0.00103916
      55         -0.554461        1.000000        0.96209389        0.00166098        0.00015393        0.00085433
      56         -0.553582        1.000000        0.96111594        0.00093889        0.00112210        0.00071078
      57         -0.552977        1.000000        0.96151910        0.00150194        0.00104817        0.00058317
      58         -0.552752        1.000000        0.95654667        0.00162774        0.00032393        0.00130159
      59         -0.550493        1.000000        0.28636197        0.00149118        0.00086332        0.00139971
      60         -0.549824        1.000000        0.41766935        0.00220369        0.00162124        0.00084063
      61         -0.547698        1.000000        0.86206034        0.00129786        0.00063590        0.00079569
      62         -0.547167        1.000000        0.99419026        0.00018137        0.00043912        0.00006292
      63         -0.544026        1.000000        0.23490748        0.00267635        0.00215111        0.00184775
      64         -0.540689        1.000000        0.32238552        0.00182561        0.00174977        0.00094773
      65         -0.501354        1.000000        0.00137913        0.00017967        0.00029416        0.00033863
      66         -0.495472        1.000000        0.00236264        0.00053012        0.00064709        0.00067906
      67         -0.484053        1.000000        0.00283018        0.00053487        0.00088817        0.00168463
      68         -0.480818        1.000000        0.00131458        0.00058862        0.00107715        0.00016823
      69         -0.477696        1.000000        0.00238045        0.00131723        0.00143057        0.00124136
      70         -0.461574        1.000000        0.00500665        0.00229582        0.00252402        0.00313688
      71         -0.460765        1.000000        0.00417189        0.00285355        0.00296556        0.00122412
      72         -0.456785        1.000000        0.16530106        0.04818279        0.03763527        0.04459798
      73         -0.453679        1.000000        0.12768712        0.04781792        0.03264254        0.03645392
      74         -0.450281        1.000000        0.12129282        0.04588395        0.04027035        0.03111638
      75         -0.448434        1.000000        0.13822033        0.02819009        0.03862639        0.03587264
      76         -0.446098        1.000000        0.13014404        0.04203869        0.02713240        0.03430246
      77         -0.445486        1.000000        0.13804374        0.03003805        0.03323724        0.03485592
      78         -0.444751        1.000000        0.13735428        0.02643031        0.04004546        0.03306737
      79         -0.441297        1.000000        0.13534409        0.02551467        0.02222165        0.03671061
      80         -0.424267        1.000000        0.00027646        0.00028783        0.00022804        0.00031616
      81         -0.423487        1.000000        0.00216489        0.00201587        0.00115510        0.00191425
      82         -0.422549        1.000000        0.00037911        0.00021742        0.00042913        0.00050176
      83         -0.420374        1.000000        0.00090681        0.00195684        0.00115101        0.00051756
      84         -0.413117        1.000000        0.00065350        0.00125422        0.00087287        0.00154570
      85         -0.412717        1.000000        0.00179248        0.00159940        0.00193185        0.00340255
      86         -0.411762        1.000000        0.00133733        0.00232577        0.00086762        0.00247954
      87         -0.410941        1.000000        0.00071496        0.00054165        0.00132708        0.00046208
      88         -0.410083        1.000000        0.00112324        0.00135632        0.00196127        0.00165362
      89         -0.408122        1.000000        0.00031907        0.00055914        0.00026888        0.00041690
      90         -0.399624        1.000000        0.00076988        0.00100783        0.00172370        0.00107392
      91         -0.398267        1.000000        0.00089854        0.00168611        0.00144778        0.00083721
      92         -0.397941        1.000000        0.00107495        0.00190236        0.00119630        0.00064741
      93         -0.396755        1.000000        0.00179946        0.00187236        0.00161416        0.00240306
      94         -0.308219        1.000000        0.03237833        0.13455401        0.58641294        0.24445736
      95         -0.301042        1.000000        0.02156500        0.70592143        0.22209018        0.00355049
      96         -0.294249        1.000000        0.02302153        0.00900740        0.49220092        0.43078407
      97         -0.273013        1.000000        0.01135108        0.18288391        0.24179308        0.33303861
      98         -0.269145        1.000000        0.01245658        0.37942669        0.26783357        0.08531102
      99         -0.265109        1.000000        0.01040395        0.31663068        0.14155084        0.27257065
     100         -0.264503        1.000000        0.00914815        0.12928815        0.34357201        0.31327902
     101         -0.261965        1.000000        0.01265392        0.21690679        0.25275722        0.28970352
     102         -0.261261        1.000000        0.01095183        0.19010641        0.33523265        0.22466347
     103         -0.259854        1.000000        0.00887863        0.26878212        0.27265543        0.21387777
     104         -0.257462        1.000000        0.01229638        0.33373524        0.15147921        0.25264067
     105         -0.256432        1.000000        0.01712480        0.24140535        0.32274630        0.15892620
     106         -0.253559        1.000000        0.01225526        0.26284756        0.24977500        0.23784929
     107         -0.253070        1.000000        0.01079464        0.19848024        0.39542604        0.16352863
     108         -0.252222        1.000000        0.01079113        0.16552020        0.22963760        0.40487074
     109         -0.248813        1.000000        0.01198604        0.19992279        0.17934427        0.42656841
     110         -0.246732        1.000000        0.01237562        0.06460931        0.26245402        0.48209915
     111         -0.244183        1.000000        0.01229750        0.42618426        0.11881440        0.26580565
     112         -0.242140        1.000000        0.01024484        0.19549802        0.35224579        0.25110909
     113         -0.240266        1.000000        0.00672532        0.44761108        0.15828469        0.30104865
     114         -0.238573        1.000000        0.00699376        0.53766512        0.19361693        0.16426028
     115         -0.237959        1.000000        0.01306949        0.24150165        0.18945148        0.35218436
     116         -0.237643        1.000000        0.01413739        0.30280090        0.24240121        0.23029409
     117         -0.236438        1.000000        0.01309603        0.15773668        0.34287497        0.29789674
     118         -0.235226        1.000000        0.01534842        0.28533703        0.09402916        0.39282346
     119         -0.234051        1.000000        0.01040428        0.33458867        0.21092829        0.25890913
     120         -0.232379        1.000000        0.01015294        0.33166442        0.29876409        0.22101129
     121         -0.230688        1.000000        0.01121301        0.42773783        0.21311534        0.17622326
     122         -0.228970        1.000000        0.01141358        0.28165103        0.24585174        0.26414250
     123         -0.226988        1.000000        0.00518065        0.15056068        0.21853127        0.51163939
     124         -0.226540        1.000000        0.01004809        0.23439891        0.22624781        0.33405963
     125         -0.223633        1.000000        0.00410817        0.08959853        0.28589598        0.56234337
     126         -0.222442        1.000000        0.00269654        0.37549704        0.22337425        0.32607445
     127         -0.221023        1.000000        0.00523753        0.15895379        0.55952169        0.19624344
     128         -0.219450        1.000000        0.00330078        0.56569694        0.13784588        0.23327774
     129         -0.217347        1.000000        0.00341581        0.50375193        0.33636176        0.11118497
     130         -0.216325        1.000000        0.00279983        0.26564732        0.20869531        0.48137532
     131         -0.214131        1.000000        0.00332214        0.21241147        0.42144925        0.30382896
     132         -0.212478        1.000000        0.00257416        0.16757449        0.22385727        0.55746880
     133         -0.211951        1.000000        0.00256947        0.40300913        0.14015431        0.41060947
     134         -0.211481        1.000000        0.00223015        0.15009718        0.26537516        0.54639945
     135         -0.210775        1.000000        0.00213736        0.27696754        0.34984692        0.33096357
     136         -0.209539        1.000000        0.00190726        0.39143870        0.27972523        0.29658178
     137         -0.208445        1.000000        0.00098173        0.25720565        0.47321670        0.25405446
     138         -0.207835        1.000000        0.00161684        0.57133452        0.13587747        0.26352284
     139         -0.207190        1.000000        0.00139330        0.32345257        0.38850425        0.27183719
     140         -0.205548        1.000000        0.00156390        0.42075861        0.32515211        0.21889827
     141         -0.205121        1.000000        0.00079238        0.61332606        0.28845563        0.08365629
     142         -0.204615        1.000000        0.00101605        0.46409150        0.35725114        0.16244179
     143         -0.203711        1.000000        0.00105232        0.30284033        0.36470137        0.31709261
     144         -0.202834        1.000000        0.00139753        0.31445895        0.30219328        0.35617602
     145         -0.201045        1.000000        0.00163587        0.42486085        0.29233809        0.24608813
     146         -0.200600        1.000000        0.00062683        0.32222650        0.39849513        0.25882506
     147         -0.199635        1.000000        0.00220373        0.62099963        0.16198299        0.16740100
     148         -0.198271        1.000000        0.00096901        0.25732049        0.39461190        0.32679888
     149         -0.197085        1.000000        0.00168321        0.22264068        0.47106140        0.27553822
     150         -0.196401        1.000000        0.00114601        0.38726652        0.43046110        0.16186501
     151         -0.195116        1.000000        0.00160445        0.29846157        0.36491382        0.29034715
     152         -0.194414        1.000000        0.00053648        0.23632999        0.28802592        0.45461065
     153         -0.193292        1.000000        0.00182215        0.30928760        0.33137771        0.33114426
     154         -0.193184        1.000000        0.00068747        0.28313214        0.43535804        0.25071676
     155         -0.192383        1.000000        0.00110587        0.29692669        0.32735331        0.34543970
     156         -0.191778        1.000000        0.00080130        0.41008115        0.25347688        0.31502317
     157         -0.191345        1.000000        0.00150135        0.32523447        0.29270441        0.35646728
     158         -0.190811        1.000000        0.00077696        0.30892327        0.13244814        0.54781332
     159         -0.190305        1.000000        0.00079883        0.34020302        0.15107194        0.49489589
     160         -0.189914        1.000000        0.00038111        0.39988612        0.31628937        0.27974963
     161         -0.189033        1.000000        0.00095302        0.48778840        0.22416956        0.27347562
     162         -0.188683        1.000000        0.00104078        0.23026860        0.51524371        0.23696849
     163         -0.188345        1.000000        0.00077239        0.26209212        0.39203679        0.33442123
     164         -0.187957        1.000000        0.00117361        0.30766275        0.48296730        0.19495760
     165         -0.187523        1.000000        0.00083156        0.35954170        0.34097483        0.28948806
     166         -0.186977        1.000000        0.00131891        0.34766703        0.37988517        0.25328066
     167         -0.186570        1.000000        0.00098403        0.38685473        0.23842548        0.36127315
     168         -0.186287        1.000000        0.00084776        0.31775500        0.32097436        0.35146596
     169         -0.185865        1.000000        0.00044064        0.39700606        0.25099558        0.34722420
     170         -0.185582        1.000000        0.00104939        0.09660884        0.36068629        0.53558848
     171         -0.184603        1.000000        0.00105862        0.46948340        0.31423793        0.20328438
     172         -0.184008        1.000000        0.00070286        0.15733573        0.63876414        0.19370361
     173         -0.183373        1.000000        0.00108549        0.45456955        0.22550295        0.29321980
     174         -0.182468        1.000000        0.00102586        0.27814878        0.27068550        0.43744893
     175         -0.182264        1.000000        0.00111434        0.34620951        0.35910809        0.24903498
     176         -0.181326        1.000000        0.00078273        0.16536973        0.74371045        0.08505412
     177         -0.181144        1.000000        0.00058066        0.31879934        0.37147387        0.28023369
     178         -0.180279        1.000000        0.00103001        0.18460083        0.29551133        0.48740885
     179         -0.179929        1.000000        0.00035006        0.31822382        0.46826950        0.19858295
     180         -0.179411        1.000000        0.00078090        0.22083012        0.20445360        0.55143735
     181         -0.179136        1.000000        0.00088133        0.18361702        0.26730384        0.52297263
     182         -0.179077        1.000000        0.00044976        0.25101152        0.59338410        0.14732424
     183         -0.178203        1.000000        0.00026253        0.17278408        0.73876146        0.07685425
     184         -0.177798        1.000000        0.00053158        0.42928260        0.14630177        0.40752455
     185         -0.177537        1.000000        0.00077083        0.32230128        0.07128589        0.58609648
     186         -0.177241        1.000000        0.00058370        0.34463738        0.09154897        0.55575827
     187         -0.176734        1.000000        0.00032969        0.35429152        0.16878026        0.46961856
     188         -0.176533        1.000000        0.00050122        0.47595921        0.31925535        0.19094437
     189         -0.176102        1.000000        0.00133620        0.40385278        0.26024419        0.32106756
     190         -0.175916        1.000000        0.00026162        0.28873465        0.36593063        0.33783690
     191         -0.175761        1.000000        0.00036633        0.39511299        0.32934868        0.26878889
     192         -0.175516        1.000000        0.00085837        0.20304096        0.30126805        0.48274582
     193         -0.175452        1.000000        0.00041493        0.39809161        0.27137379        0.31399082
     194         -0.175275        1.000000        0.00035375        0.33575449        0.44430036        0.21651590
     195         -0.175113        0.000000        0.00037113        0.33130654        0.22755442        0.39935277
     196         -0.174809        0.000000        0.00363214        0.38193554        0.37373313        0.21703237
     197         -0.174737        0.000000        0.00200780        0.20726800        0.26796140        0.46375435
     198         -0.174541        0.000000        0.00491420        0.45033844        0.34066080        0.16069119
     199         -0.174166        0.000000        0.01023447        0.16064676        0.56254652        0.25943201
     200         -0.173349        0.000000        0.00527923        0.12773963        0.41741384        0.40974251
     201         -0.170847        0.000000        0.00058584        0.30722540        0.21217267        0.34992166
     202         -0.065841        0.000000        0.02143019        0.07381920        0.09860873        0.06423199
     203         -0.061202        0.000000        0.02329536        0.01165967        0.03780339        0.19189285
     204         -0.058948        0.000000        0.01600432        0.07086708        0.12435787        0.06354938
     205         -0.057409        0.000000        0.01561863        0.04894347        0.15923725        0.05283489
     206         -0.056062        0.000000        0.02395098        0.06079494        0.17299273        0.02243707
     207         -0.053007        0.000000        0.02287291        0.03840159        0.18950555        0.03251660
     208         -0.046802        0.000000        0.02139165        0.05623687        0.17325176        0.03869011
     209         -0.045212        0.000000        0.02626949        0.13949190        0.03730463        0.08604489
     210         -0.042964        0.000000        0.02621935        0.12795809        0.09996722        0.04373618
     211         -0.041101        0.000000        0.02172745        0.08549799        0.02057889        0.17210042
     212         -0.038597        0.000000        0.02521997        0.13998837        0.05979728        0.07314528
     213         -0.036575        0.000000        0.02324398        0.09954191        0.07901012        0.10007466
     214         -0.035557        0.000000        0.01794514        0.04783340        0.04022698        0.19692974
     215         -0.031881        0.000000        0.01756299        0.04362631        0.16389976        0.08101034
     216         -0.030381        0.000000        0.01774315        0.01704125        0.16745693        0.10509746
     217         -0.027694        0.000000        0.01944178        0.01976568        0.11520534        0.15419776
     218         -0.026818        0.000000        0.01663282        0.03699609        0.14898736        0.09881053
     219         -0.025434        0.000000        0.01583734        0.02540657        0.09609596        0.16947794
     220         -0.022254        0.000000        0.01735570        0.09800463        0.05737787        0.13946460
     221         -0.021553        0.000000        0.01647626        0.11695185        0.05356980        0.12083915
     222         -0.011896        0.000000        0.01611419        0.06851801        0.03579714        0.19561037
     223         -0.011063        0.000000        0.01446271        0.30019453        0.00359107        0.00991275
     224         -0.010109        0.000000        0.01369680        0.23033011        0.03825850        0.03118042
     225         -0.005117        0.000000        0.01657055        0.26499329        0.02045683        0.02573821
     226          0.079702        0.000000        0.00003861        0.00026480        0.00069533        0.00096179
     227          0.083693        0.000000        0.00007096        0.00057044        0.00110370        0.00057221
     228          0.086370        0.000000        0.00006861        0.00076345        0.00083710        0.00095364
     229          0.090445        0.000000        0.00007306        0.00049396        0.00077823        0.00113944
     230          0.092540        0.000000        0.00003385        0.00069369        0.00054167        0.00012568
     231          0.106965        0.000000        0.00005031        0.00095383        0.00076867        0.00034616
     232          0.109495        0.000000        0.00006666        0.00080558        0.00077888        0.00085680
     233          0.131480        0.000000        0.00000824        0.00006506        0.00030438        0.00006626
     234          0.149446        0.000000        0.00000352        0.00007288        0.00011597        0.00011845
     235          0.180762        0.000000        0.00000641        0.00005894        0.00002976        0.00004582
     236          0.203179        0.000000        0.00000292        0.00014858        0.00004688        0.00004236
     237          0.238701        0.000000        0.00001123        0.00020064        0.00014147        0.00006376
     238          0.269235        0.000000        0.00000744        0.00035689        0.00034416        0.00013517
     239          0.273704        0.000000        0.00031102        0.00417796        0.00070703        0.00247632
     240          0.281740        0.000000        0.00013231        0.00036603        0.00022164        0.00292937
     241          0.282402        0.000000        0.00018009        0.00155618        0.00019687        0.00238074
     242          0.285052        0.000000        0.00041665        0.00373878        0.00571134        0.00068399
     243          0.288384        0.000000        0.00011228        0.00187873        0.00265384        0.00036966
     244          0.293884        0.000000        0.00001510        0.00064597        0.00070385        0.00013743
     245          0.300393        0.000000        0.00107467        0.00796731        0.00441463        0.00519393
     246          0.304418        0.000000        0.00080840        0.00908860        0.00380397        0.00293775
     247          0.306483        0.000000        0.00031308        0.00432804        0.00096035        0.00251036
     248          0.308874        0.000000        0.00010641        0.00113110        0.00088483        0.00293779
     249          0.310022        0.000000        0.00033969        0.00511783        0.00218312        0.00180721
     250          0.317912        0.000000        0.00042807        0.00421953        0.00155848        0.00402888
     251          0.324265        0.000000        0.00058666        0.00288127        0.00895480        0.00070250
     252          0.349058        0.000000        0.00092376        0.01064510        0.00400204        0.00397991
     253          0.351913        0.000000        0.00101822        0.00916698        0.00417264        0.00495764
     254          0.440541        0.000000        0.00000573        0.00005072        0.00008477        0.00002842
     255          0.441966        0.000000        0.00000640        0.00001448        0.00009086        0.00006863
     256          0.445131        0.000000        0.00001386        0.00037059        0.00018255        0.00010350
     257          0.446988        0.000000        0.00002839        0.00030939        0.00020057        0.00009986
     258          0.450618        0.000000        0.00001659        0.00002944        0.00018048        0.00005599
     259          0.451481        0.000000        0.00001251        0.00003915        0.00009973        0.00018358