# Projected DOS for atomic kind C at iteration step i = 0, E(Fermi) =    -0.175275 a.u.
#     MO Eigenvalue [a.u.]      Occupation                 s                py                pz                px
       1         -0.976723        1.000000        0.05971628        0.00185974        0.02942881        0.01425600
       2         -0.973917        1.000000        0.06290729        0.00125247        0.00543844        0.04048263
       3         -0.964965        1.000000        0.06036378        0.00091758        0.00000628        0.04512894
       4         -0.956174        1.000000        0.05725702        0.00010014        0.01502126        0.02773811
       5         -0.954071        1.000000        0.06211345        0.00035765        0.00090819        0.04427240
       6         -0.932478        1.000000        0.06261002        0.00193183        0.02288873        0.01932548
       7         -0.931792        1.000000        0.06291187        0.00101594        0.00943362        0.03369131
       8         -0.714379        1.000000        0.43122802        0.00000003        0.00014079        0.00019944
       9         -0.710053        1.000000        0.42951209        0.00032315        0.00000949        0.00077362
      10         -0.699714        1.000000        0.43036115        0.00011903        0.00013234        0.00048766
      11         -0.696444        1.000000        0.44208631        0.00000255        0.00030678        0.00059890
      12         -0.696316        1.000000        0.43671171        0.00000184        0.00012774        0.00099718
      13         -0.681730        1.000000        0.43978233        0.00001381        0.00099343        0.00073055
      14         -0.680926        1.000000        0.44189849        0.00000207        0.00055847        0.00174697
      15         -0.630871        1.000000        0.00003093        0.00001287        0.00002341        0.00000170
      16         -0.624196        1.000000        0.00118359        0.00042321        0.00003282        0.00025710
      17         -0.615918        1.000000        0.00003424        0.00158912        0.00011746        0.00001872
      18         -0.604701        1.000000        0.00013904        0.03341399        0.01273427        0.00685614
      19         -0.602396        1.000000        0.00004480        0.00058845        0.04957174        0.00539296
      20         -0.595794        1.000000        0.00003095        0.02430748        0.02062569        0.00065851
      21         -0.591490        1.000000        0.00017402        0.00368171        0.00861006        0.00405098
      22         -0.590937        1.000000        0.00006492        0.00596464        0.00092569        0.00060181
      23         -0.589920        1.000000        0.00049652        0.00489456        0.00617332        0.00217434
      24         -0.587365        1.000000        0.00042513        0.00280044        0.00338429        0.00113821
      25         -0.587003        1.000000        0.00027861        0.00484663        0.00411798        0.00253115
      26         -0.586025        1.000000        0.00006552        0.00076767        0.00074463        0.00043133
      27         -0.584695        1.000000        0.00022118        0.01113526        0.00768667        0.00616108
      28         -0.582944        1.000000        0.00032371        0.01948058        0.00417425        0.01169529
      29         -0.582734        1.000000        0.00142024        0.04652764        0.00298515        0.00913724
      30         -0.582343        1.000000        0.00074900        0.02894206        0.00550309        0.01459050
      31         -0.580792        1.000000        0.00053692        0.00977422        0.00568039        0.00357055
      32         -0.580416        1.000000        0.00003955        0.00207984        0.00083347        0.00055708
      33         -0.577871        1.000000        0.00021841        0.00491730        0.00488799        0.00148926
      34         -0.576499        1.000000        0.00020151        0.00575913        0.00384805        0.00055483
      35         -0.575456        1.000000        0.00069095        0.01203670        0.01743706        0.00149446
      36         -0.574757        1.000000        0.00030027        0.00447559        0.01111793        0.00399387
      37         -0.572821        1.000000        0.00090450        0.01497316        0.01686774        0.00070255
      38         -0.570252        1.000000        0.00012426        0.01653477        0.00171342        0.00063212
      39         -0.569690        1.000000        0.00003075        0.02321611        0.00327602        0.00119701
      40         -0.569189        1.000000        0.00004040        0.01429410        0.00232254        0.00035707
      41         -0.568569        1.000000        0.00006890        0.00656401        0.01459251        0.00079667
      42         -0.568076        1.000000        0.00003241        0.00875698        0.02637702        0.00133346
      43         -0.567057        1.000000        0.00009102        0.00632964        0.00654716        0.00266384
      44         -0.566655        1.000000        0.00008775        0.00325430        0.00482150        0.00220798
      45         -0.565156        1.000000        0.00003117        0.00086893        0.00049660        0.00004932
      46         -0.562939        1.000000        0.00003252        0.00401461        0.00054137        0.00024848
      47         -0.562746        1.000000        0.00004797        0.00066142        0.00021589        0.00012996
      48         -0.561958        1.000000        0.00001199        0.00428147        0.00043319        0.00015036
      49         -0.561628        1.000000        0.00009064        0.00187998        0.00321717        0.00094182
      50         -0.561037        1.000000        0.00009366        0.00067884        0.00850687        0.00015297
      51         -0.560595        1.000000        0.00001262        0.00079993        0.00173197        0.00096355
      52         -0.560324        1.000000        0.00001317        0.00461244        0.00065015        0.00038552
      53         -0.559431        1.000000        0.00000616        0.00013156        0.00006402        0.00010167
      54         -0.559074        1.000000        0.00001196        0.00090870        0.00016662        0.00057052
      55         -0.554461        1.000000        0.00000230        0.00050071        0.00001396        0.00000189
      56         -0.553582        1.000000        0.00000044        0.00023142        0.00002183        0.00001304
      57         -0.552977        1.000000        0.00001407        0.00005394        0.00006702        0.00001632
      58         -0.552752        1.000000        0.00000108        0.00008319        0.00003295        0.00001525
      59         -0.550493        1.000000        0.00006659        0.02965337        0.01210001        0.00650247
      60         -0.549824        1.000000        0.00028575        0.03811510        0.00081592        0.00092663
      61         -0.547698        1.000000        0.00007791        0.00669467        0.00073145        0.00134206
      62         -0.547167        1.000000        0.00000046        0.00004985        0.00000795        0.00000873
      63         -0.544026        1.000000        0.00009761        0.02059149        0.02953255        0.00614638
      64         -0.540689        1.000000        0.00000681        0.00070075        0.02335337        0.02902513
      65         -0.501354        1.000000        0.03362218        0.01486376        0.20175867        0.12107186
      66         -0.495472        1.000000        0.02909356        0.01308877        0.03279885        0.28951819
      67         -0.484053        1.000000        0.03135883        0.00293922        0.00052856        0.33021761
      68         -0.480818        1.000000        0.02711157        0.00115695        0.00596039        0.33394867
      69         -0.477696        1.000000        0.02625790        0.00101292        0.11605462        0.22243073
      70         -0.461574        1.000000        0.02202554        0.01234374        0.17133521        0.15485963
      71         -0.460765        1.000000        0.02024212        0.00451526        0.07976183        0.25499940
      72         -0.456785        1.000000        0.00016943        0.00033924        0.00039948        0.00263455
      73         -0.453679        1.000000        0.00017213        0.00066086        0.00118452        0.00332192
      74         -0.450281        1.000000        0.00003436        0.00028428        0.00130543        0.00063174
      75         -0.448434        1.000000        0.00024162        0.00014319        0.00310004        0.00378527
      76         -0.446098        1.000000        0.00003601        0.00047935        0.00055696        0.00029868
      77         -0.445486        1.000000        0.00014026        0.00053966        0.00139857        0.00119073
      78         -0.444751        1.000000        0.00002692        0.00014220        0.00036637        0.00029740
      79         -0.441297        1.000000        0.00005304        0.00139347        0.00165133        0.00055290
      80         -0.424267        1.000000        0.00000091        0.36763486        0.11847339        0.06262974
      81         -0.423487        1.000000        0.00004714        0.25515722        0.25889173        0.01385229
      82         -0.422549        1.000000        0.00000098        0.15561403        0.08912646        0.28986794
      83         -0.420374        1.000000        0.00002840        0.25260343        0.22277059        0.06147114
      84         -0.413117        1.000000        0.00003649        0.50377087        0.02260913        0.01390301
      85         -0.412717        1.000000        0.00000569        0.02940713        0.32384744        0.18140394
      86         -0.411762        1.000000        0.00001812        0.52033861        0.01411490        0.00127387
      87         -0.410941        1.000000        0.00005651        0.24633573        0.28759278        0.00196868
      88         -0.410083        1.000000        0.00004575        0.01114189        0.52646689        0.00016761
      89         -0.408122        1.000000        0.00000033        0.28951704        0.23966693        0.00939923
      90         -0.399624        1.000000        0.00002253        0.50200544        0.00324823        0.02352255
      91         -0.398267        1.000000        0.00008986        0.51851589        0.00009499        0.01095658
      92         -0.397941        1.000000        0.00000261        0.00260676        0.41188779        0.11364906
      93         -0.396755        1.000000        0.00001122        0.00628644        0.25089649        0.26860023
      94         -0.308219        1.000000        0.00007442        0.00030619        0.00012411        0.00000467
      95         -0.301042        1.000000        0.00013433        0.00090979        0.00002267        0.00035078
      96         -0.294249        1.000000        0.00007740        0.00022945        0.00010828        0.00008061
      97         -0.273013        1.000000        0.00002013        0.00012370        0.00003987        0.00009426
      98         -0.269145        1.000000        0.00003123        0.00029372        0.00009654        0.00009038
      99         -0.265109        1.000000        0.00016282        0.00018816        0.00047393        0.00011058
     100         -0.264503        1.000000        0.00020605        0.00030322        0.00016576        0.00066860
     101         -0.261965        1.000000        0.00004849        0.00013243        0.00028632        0.00037478
     102         -0.261261        1.000000        0.00005979        0.00012481        0.00044894        0.00031267
     103         -0.259854        1.000000        0.00001726        0.00020157        0.00029627        0.00002536
     104         -0.257462        1.000000        0.00006417        0.00011991        0.00056356        0.00007911
     105         -0.256432        1.000000        0.00003693        0.00026058        0.00018561        0.00017197
     106         -0.253559        1.000000        0.00003649        0.00019819        0.00022120        0.00009854
     107         -0.253070        1.000000        0.00005126        0.00019650        0.00014471        0.00011464
     108         -0.252222        1.000000        0.00057319        0.00065999        0.00008035        0.00011225
     109         -0.248813        1.000000        0.00014224        0.00066771        0.00021490        0.00034065
     110         -0.246732        1.000000        0.00009193        0.00010637        0.00012154        0.00040950
     111         -0.244183        1.000000        0.00009804        0.00026135        0.00050452        0.00043346
     112         -0.242140        1.000000        0.00034103        0.00036364        0.00049533        0.00025763
     113         -0.240266        1.000000        0.00011837        0.00015420        0.00045442        0.00066082
     114         -0.238573        1.000000        0.00006338        0.00007021        0.00004959        0.00010407
     115         -0.237959        1.000000        0.00001848        0.00006380        0.00011080        0.00018453
     116         -0.237643        1.000000        0.00009049        0.00005263        0.00013529        0.00016386
     117         -0.236438        1.000000        0.00026524        0.00016913        0.00033543        0.00018751
     118         -0.235226        1.000000        0.00034407        0.00016815        0.00013477        0.00016519
     119         -0.234051        1.000000        0.00032317        0.00037696        0.00078524        0.00039885
     120         -0.232379        1.000000        0.00015344        0.00017800        0.00071180        0.00057882
     121         -0.230688        1.000000        0.00039157        0.00037147        0.00045549        0.00082745
     122         -0.228970        1.000000        0.00017213        0.00019511        0.00024531        0.00010639
     123         -0.226988        1.000000        0.00019690        0.00044120        0.00051164        0.00042807
     124         -0.226540        1.000000        0.00013552        0.00033788        0.00036500        0.00016140
     125         -0.223633        1.000000        0.00062976        0.00052952        0.00018472        0.00045699
     126         -0.222442        1.000000        0.00007891        0.00030292        0.00050968        0.00027261
     127         -0.221023        1.000000        0.00014050        0.00031858        0.00025115        0.00048077
     128         -0.219450        1.000000        0.00021691        0.00025988        0.00052622        0.00007158
     129         -0.217347        1.000000        0.00029677        0.00008701        0.00071213        0.00086210
     130         -0.216325        1.000000        0.00020874        0.00038143        0.00074652        0.00030629
     131         -0.214131        1.000000        0.00043532        0.00019919        0.00024815        0.00023999
     132         -0.212478        1.000000        0.00019290        0.00026045        0.00060871        0.00052367
     133         -0.211951        1.000000        0.00016475        0.00052038        0.00050831        0.00019260
     134         -0.211481        1.000000        0.00006773        0.00043262        0.00033265        0.00042171
     135         -0.210775        1.000000        0.00017853        0.00029987        0.00023532        0.00025449
     136         -0.209539        1.000000        0.00022299        0.00039883        0.00029772        0.00028791
     137         -0.208445        1.000000        0.00008539        0.00029917        0.00068212        0.00011538
     138         -0.207835        1.000000        0.00013005        0.00011250        0.00027805        0.00039902
     139         -0.207190        1.000000        0.00012166        0.00035471        0.00035375        0.00020962
     140         -0.205548        1.000000        0.00009634        0.00011324        0.00022746        0.00020610
     141         -0.205121        1.000000        0.00005021        0.00001878        0.00013016        0.00008225
     142         -0.204615        1.000000        0.00008877        0.00007220        0.00008004        0.00014378
     143         -0.203711        1.000000        0.00006484        0.00009996        0.00019104        0.00005555
     144         -0.202834        1.000000        0.00007001        0.00015183        0.00030293        0.00006459
     145         -0.201045        1.000000        0.00021883        0.00021369        0.00023793        0.00014600
     146         -0.200600        1.000000        0.00002030        0.00012002        0.00013775        0.00004245
     147         -0.199635        1.000000        0.00018320        0.00022325        0.00008315        0.00014045
     148         -0.198271        1.000000        0.00008207        0.00036604        0.00012362        0.00004024
     149         -0.197085        1.000000        0.00011662        0.00016023        0.00007483        0.00014252
     150         -0.196401        1.000000        0.00013478        0.00013137        0.00024556        0.00009186
     151         -0.195116        1.000000        0.00013037        0.00032864        0.00027328        0.00004901
     152         -0.194414        1.000000        0.00010988        0.00018468        0.00019018        0.00007330
     153         -0.193292        1.000000        0.00013833        0.00030885        0.00015654        0.00021229
     154         -0.193184        1.000000        0.00017399        0.00010128        0.00020165        0.00026204
     155         -0.192383        1.000000        0.00013105        0.00017637        0.00026640        0.00006675
     156         -0.191778        1.000000        0.00008024        0.00015665        0.00016140        0.00005849
     157         -0.191345        1.000000        0.00004312        0.00006365        0.00001517        0.00029008
     158         -0.190811        1.000000        0.00007713        0.00016059        0.00011011        0.00044914
     159         -0.190305        1.000000        0.00005005        0.00006775        0.00002873        0.00004296
     160         -0.189914        1.000000        0.00002618        0.00004834        0.00000670        0.00004819
     161         -0.189033        1.000000        0.00003423        0.00008284        0.00008999        0.00002540
     162         -0.188683        1.000000        0.00006066        0.00009635        0.00019594        0.00011450
     163         -0.188345        1.000000        0.00006461        0.00008278        0.00015683        0.00006112
     164         -0.187957        1.000000        0.00022379        0.00025952        0.00083205        0.00006745
     165         -0.187523        1.000000        0.00005342        0.00019988        0.00003995        0.00005223
     166         -0.186977        1.000000        0.00007055        0.00002849        0.00014268        0.00008111
     167         -0.186570        1.000000        0.00004504        0.00004905        0.00016826        0.00010886
     168         -0.186287        1.000000        0.00006293        0.00008880        0.00013598        0.00005991
     169         -0.185865        1.000000        0.00002358        0.00007951        0.00007454        0.00002809
     170         -0.185582        1.000000        0.00014413        0.00015272        0.00018045        0.00007105
     171         -0.184603        1.000000        0.00004406        0.00001872        0.00008687        0.00003048
     172         -0.184008        1.000000        0.00017425        0.00001509        0.00043447        0.00002034
     173         -0.183373        1.000000        0.00002177        0.00001853        0.00004544        0.00000926
     174         -0.182468        1.000000        0.00001453        0.00001644        0.00004300        0.00007936
     175         -0.182264        1.000000        0.00003017        0.00000970        0.00003833        0.00003121
     176         -0.181326        1.000000        0.00006154        0.00006895        0.00021685        0.00001124
     177         -0.181144        1.000000        0.00002377        0.00003250        0.00003289        0.00001743
     178         -0.180279        1.000000        0.00002116        0.00004052        0.00004378        0.00003113
     179         -0.179929        1.000000        0.00010829        0.00002881        0.00007640        0.00005210
     180         -0.179411        1.000000        0.00006258        0.00004190        0.00009858        0.00003797
     181         -0.179136        1.000000        0.00002679        0.00001908        0.00006730        0.00003659
     182         -0.179077        1.000000        0.00007966        0.00013691        0.00003682        0.00001435
     183         -0.178203        1.000000        0.00000098        0.00000370        0.00000275        0.00000967
     184         -0.177798        1.000000        0.00006927        0.00006258        0.00003825        0.00000802
     185         -0.177537        1.000000        0.00003623        0.00003724        0.00010753        0.00003012
     186         -0.177241        1.000000        0.00004479        0.00002434        0.00010709        0.00005030
     187         -0.176734        1.000000        0.00000662        0.00001359        0.00003197        0.00000759
     188         -0.176533        1.000000        0.00001294        0.00010701        0.00011573        0.00005885
     189         -0.176102        1.000000        0.00001586        0.00000549        0.00001643        0.00002135
     190         -0.175916        1.000000        0.00001721        0.00000211        0.00000542        0.00001288
     191         -0.175761        1.000000        0.00001673        0.00001236        0.00002664        0.00001202
     192         -0.175516        1.000000        0.00001156        0.00001123        0.00002308        0.00001662
     193         -0.175452        1.000000        0.00001124        0.00000794        0.00003871        0.00003194
     194         -0.175275        1.000000        0.00003879        0.00001802        0.00002320        0.00000578
     195         -0.175113        0.000000        0.00001612        0.00001502        0.00001764        0.00002372
     196         -0.174809        0.000000        0.00004169        0.00009269        0.00003539        0.00002504
     197         -0.174737        0.000000        0.00001083        0.00001769        0.00001916        0.00000958
     198         -0.174541        0.000000        0.00003051        0.00011083        0.00005803        0.00007920
     199         -0.174166        0.000000        0.00007585        0.00014676        0.00006006        0.00002690
     200         -0.173349        0.000000        0.00002686        0.00004052        0.00005707        0.00002587
     201         -0.170847        0.000000        0.00000693        0.00004326        0.00000567        0.00002367
     202         -0.065841        0.000000        0.00008818        0.00010468        0.00013659        0.00011960
     203         -0.061202        0.000000        0.00007092        0.00001107        0.00007709        0.00005152
     204         -0.058948        0.000000        0.00003741        0.00003387        0.00011686        0.00007187
     205         -0.057409        0.000000        0.00011756        0.00016536        0.00023920        0.00027469
     206         -0.056062        0.000000        0.00003356        0.00002442        0.00005435        0.00017206
     207         -0.053007        0.000000        0.00001871        0.00001906        0.00001187        0.00002566
     208         -0.046802        0.000000        0.00001064        0.00000769        0.00002892        0.00001870
     209         -0.045212        0.000000        0.00002711        0.00001664        0.00005690        0.00013479
     210         -0.042964        0.000000        0.00001837        0.00001681        0.00001794        0.00004266
     211         -0.041101        0.000000        0.00005256        0.00004208        0.00003678        0.00002485
     212         -0.038597        0.000000        0.00000673        0.00000348        0.00001938        0.00001768
     213         -0.036575        0.000000        0.00001781        0.00000842        0.00002227        0.00004270
     214         -0.035557        0.000000        0.00004009        0.00002055        0.00003231        0.00001952
     215         -0.031881        0.000000        0.00000978        0.00001166        0.00001123        0.00002874
     216         -0.030381        0.000000        0.00001787        0.00002585        0.00003513        0.00002394
     217         -0.027694        0.000000        0.00002075        0.00003320        0.00001040        0.00004789
     218         -0.026818        0.000000        0.00006905        0.00001358        0.00007753        0.00002197
     219         -0.025434        0.000000        0.00001341        0.00000285        0.00001767        0.00002904
     220         -0.022254        0.000000        0.00000691        0.00001508        0.00002511        0.00001457
     221         -0.021553        0.000000        0.00001324        0.00002685        0.00002247        0.00004698
     222         -0.011896        0.000000        0.00001226        0.00001189        0.00000727        0.00002492
     223         -0.011063        0.000000        0.00004322        0.00001484        0.00008063        0.00003278
     224         -0.010109        0.000000        0.00000900        0.00000412        0.00006407        0.00000443
     225         -0.005117        0.000000        0.00001747        0.00002936        0.00000352        0.00002890
     226          0.079702        0.000000        0.08492875        0.01950167        0.35038750        0.17738600
     227          0.083693        0.000000        0.07995950        0.01547285        0.06575389        0.45827452
     228          0.086370        0.000000        0.07986461        0.00191454        0.19126223        0.36241925
     229          0.090445        0.000000        0.08059092        0.00899708        0.00032386        0.53728881
     230          0.092540        0.000000        0.08355228        0.00370986        0.01043397        0.52575209
     231          0.106965        0.000000        0.08239486        0.01330678        0.11955002        0.41247010
     232          0.109495        0.000000        0.08091123        0.02312914        0.28228421        0.24059944
     233          0.131480        0.000000        0.00510994        0.00010280        0.00179015        0.01287884
     234          0.149446        0.000000        0.00389742        0.00065266        0.00002005        0.00851502
     235          0.180762        0.000000        0.00064415        0.00097424        0.00074037        0.00003958
     236          0.203179        0.000000        0.00349428        0.00013732        0.00028761        0.00976013
     237          0.238701        0.000000        0.00308871        0.00127621        0.00039365        0.00581124
     238          0.269235        0.000000        0.00000323        0.00000890        0.00454581        0.00056503
     239          0.273704        0.000000        0.00000183        0.00471231        0.00020051        0.00004267
     240          0.281740        0.000000        0.00001186        0.00276655        0.00294317        0.00027408
     241          0.282402        0.000000        0.00000755        0.00057697        0.00327306        0.00197962
     242          0.285052        0.000000        0.00008616        0.00412756        0.00184897        0.00013616
     243          0.288384        0.000000        0.00291932        0.00257804        0.00118644        0.00013130
     244          0.293884        0.000000        0.00351361        0.00280424        0.00000462        0.00010792
     245          0.300393        0.000000        0.00028344        0.00029001        0.00214071        0.00468666
     246          0.304418        0.000000        0.00006098        0.00261060        0.00464815        0.00032003
     247          0.306483        0.000000        0.00021089        0.00743139        0.00117369        0.00007324
     248          0.308874        0.000000        0.00309269        0.00172620        0.00139580        0.00015164
     249          0.310022        0.000000        0.00001762        0.00645567        0.00189529        0.00193818
     250          0.317912        0.000000        0.00475366        0.00007164        0.00013085        0.00007378
     251          0.324265        0.000000        0.00393071        0.00064463        0.00333535        0.00015944
     252          0.349058        0.000000        0.00531454        0.00003003        0.00003094        0.00005975
     253          0.351913        0.000000        0.00539219        0.00005524        0.00022010        0.00004628
     254          0.440541        0.000000        0.00004407        0.37286135        0.01711831        0.00052508
     255          0.441966        0.000000        0.00001881        0.00358259        0.12489601        0.26437659
     256          0.445131        0.000000        0.00013147        0.21015550        0.12898133        0.05099891
     257          0.446988        0.000000        0.00020299        0.17075353        0.21401441        0.00909736
     258          0.450618        0.000000        0.00039289        0.03010237        0.35325287        0.00751587
     259          0.451481        0.000000        0.00151837        0.25396430        0.12836666        0.00793271