# Projected DOS for atomic kind Pb at iteration step i = 0, E(Fermi) =    -0.176117 a.u.
#     MO Eigenvalue [a.u.]      Occupation                 s                py                pz                px
       1         -0.977023        1.000000        0.00000001        0.00000028        0.00000034        0.00000039
       2         -0.974210        1.000000        0.00000015        0.00000420        0.00000352        0.00000124
       3         -0.965247        1.000000        0.00000006        0.00000072        0.00000104        0.00000059
       4         -0.956445        1.000000        0.00000010        0.00000161        0.00000134        0.00000078
       5         -0.954369        1.000000        0.00000009        0.00000354        0.00000191        0.00000067
       6         -0.932770        1.000000        0.00000115        0.00001116        0.00000988        0.00001643
       7         -0.932077        1.000000        0.00000023        0.00000137        0.00000320        0.00000191
       8         -0.714691        1.000000        0.00000246        0.00000648        0.00000284        0.00000703
       9         -0.710344        1.000000        0.00003287        0.00007466        0.00008122        0.00001813
      10         -0.699990        1.000000        0.00002359        0.00002831        0.00003892        0.00001758
      11         -0.696713        1.000000        0.00001401        0.00001952        0.00001560        0.00000873
      12         -0.696608        1.000000        0.00000506        0.00000611        0.00000942        0.00000238
      13         -0.682019        1.000000        0.00003811        0.00003725        0.00002352        0.00003594
      14         -0.681207        1.000000        0.00001473        0.00000733        0.00001700        0.00000866
      15         -0.631159        1.000000        0.00099106        0.00000268        0.00046512        0.00150875
      16         -0.624559        1.000000        0.00627470        0.00027593        0.00871994        0.00005655
      17         -0.616638        1.000000        0.00482797        0.00023009        0.00122074        0.00485679
      18         -0.605035        1.000000        0.00062617        0.00002444        0.00013107        0.00032472
      19         -0.602712        1.000000        0.00039716        0.00012296        0.00001035        0.00008856
      20         -0.596102        1.000000        0.00219996        0.00011356        0.00028534        0.00048554
      21         -0.591868        1.000000        0.05265710        0.00471532        0.00763354        0.00200741
      22         -0.591466        1.000000        0.04405890        0.00040444        0.01683539        0.00050031
      23         -0.590272        1.000000        0.04918336        0.00876635        0.00678763        0.00155717
      24         -0.587587        1.000000        0.09140482        0.00430616        0.00236746        0.00395861
      25         -0.587276        1.000000        0.06252542        0.00326145        0.00225641        0.00576088
      26         -0.586300        1.000000        0.00364731        0.00056939        0.00186675        0.00196926
      27         -0.585144        1.000000        0.04326903        0.00595477        0.00252971        0.00157528
      28         -0.583606        1.000000        0.03587596        0.00138358        0.00825762        0.00256985
      29         -0.583099        1.000000        0.00397691        0.00048155        0.00084924        0.00036063
      30         -0.582732        1.000000        0.00410979        0.00040037        0.00215093        0.00011515
      31         -0.581189        1.000000        0.00850197        0.00062408        0.00297561        0.00092731
      32         -0.581115        1.000000        0.00180289        0.00108192        0.00188439        0.00131444
      33         -0.578180        1.000000        0.02600682        0.00273818        0.00839423        0.00779215
      34         -0.577026        1.000000        0.04679597        0.00310007        0.00639396        0.00750962
      35         -0.575818        1.000000        0.03084466        0.00217691        0.00646814        0.00742956
      36         -0.575378        1.000000        0.03966177        0.00902699        0.00120817        0.00217036
      37         -0.573121        1.000000        0.01245266        0.00053101        0.00555892        0.01202726
      38         -0.570668        1.000000        0.01688776        0.01451105        0.00335297        0.00522760
      39         -0.570151        1.000000        0.04808726        0.00395601        0.00172274        0.00516722
      40         -0.569708        1.000000        0.05497587        0.00539050        0.00389294        0.00469732
      41         -0.568949        1.000000        0.02514285        0.00853990        0.00907287        0.00521243
      42         -0.568510        1.000000        0.03787841        0.00391743        0.00463592        0.00327595
      43         -0.567593        1.000000        0.01394333        0.00174490        0.01104622        0.00402769
      44         -0.566994        1.000000        0.00451516        0.00395284        0.01244613        0.00891429
      45         -0.566096        1.000000        0.02644872        0.00245790        0.00662479        0.02245761
      46         -0.563737        1.000000        0.04693134        0.00317394        0.00519973        0.01891671
      47         -0.562947        1.000000        0.01614470        0.01773172        0.00268126        0.01254817
      48         -0.562802        1.000000        0.01671405        0.01593001        0.00198221        0.01671753
      49         -0.562125        1.000000        0.01353686        0.00341037        0.00362381        0.02290139
      50         -0.561626        1.000000        0.02636262        0.00700405        0.00877366        0.01194539
      51         -0.561155        1.000000        0.01003634        0.00324524        0.01323287        0.00165064
      52         -0.560820        1.000000        0.00313301        0.01713257        0.00509068        0.00219170
      53         -0.559912        1.000000        0.00367295        0.00022971        0.00124183        0.01852760
      54         -0.559196        1.000000        0.02119227        0.02880774        0.00227414        0.00116363
      55         -0.555381        1.000000        0.00333567        0.01893892        0.00642119        0.00011906
      56         -0.554370        1.000000        0.00095680        0.01146858        0.00758643        0.01194853
      57         -0.554327        1.000000        0.00091136        0.01046212        0.00818381        0.01232521
      58         -0.553449        1.000000        0.00693155        0.02813741        0.00469575        0.00026037
      59         -0.550813        1.000000        0.00245122        0.00216988        0.00178585        0.00377949
      60         -0.550472        1.000000        0.00625628        0.00635484        0.00371395        0.00251423
      61         -0.548901        1.000000        0.00156412        0.00775350        0.00070902        0.00147037
      62         -0.548596        1.000000        0.00029583        0.00007334        0.00385185        0.00007158
      63         -0.544352        1.000000        0.00498423        0.00091149        0.00506932        0.00108395
      64         -0.541102        1.000000        0.00366641        0.00034165        0.00508342        0.00208037
      65         -0.501657        1.000000        0.00023197        0.00002623        0.00000145        0.00001676
      66         -0.495756        1.000000        0.00033742        0.00007636        0.00006091        0.00002024
      67         -0.484320        1.000000        0.00028082        0.00001476        0.00002339        0.00002701
      68         -0.481103        1.000000        0.00060443        0.00001452        0.00001926        0.00000606
      69         -0.477959        1.000000        0.00170404        0.00004771        0.00004431        0.00001295
      70         -0.461858        1.000000        0.01606055        0.00002614        0.00001259        0.00014211
      71         -0.461044        1.000000        0.01612237        0.00001741        0.00011393        0.00001994
      72         -0.457015        1.000000        0.69134611        0.00155922        0.00145581        0.00090675
      73         -0.453901        1.000000        0.73948950        0.00162832        0.00031893        0.00083175
      74         -0.450753        1.000000        0.75371552        0.00108948        0.00106060        0.00160163
      75         -0.448643        1.000000        0.73864314        0.00020957        0.00059286        0.00071761
      76         -0.446438        1.000000        0.76240027        0.00090125        0.00050837        0.00058190
      77         -0.445837        1.000000        0.75526952        0.00029472        0.00048005        0.00050667
      78         -0.445145        1.000000        0.75982192        0.00016061        0.00074354        0.00043104
      79         -0.441632        1.000000        0.77314135        0.00008400        0.00007849        0.00017502
      80         -0.424572        1.000000        0.00075005        0.00002290        0.00000867        0.00002203
      81         -0.423763        1.000000        0.00838350        0.00036332        0.00045271        0.00004054
      82         -0.422844        1.000000        0.00046516        0.00005329        0.00001129        0.00010197
      83         -0.420650        1.000000        0.00138692        0.00023555        0.00018524        0.00004833
      84         -0.413369        1.000000        0.00024431        0.00010872        0.00005257        0.00010035
      85         -0.412961        1.000000        0.00107825        0.00008120        0.00005056        0.00000747
      86         -0.412014        1.000000        0.00056806        0.00004913        0.00006799        0.00002231
      87         -0.411219        1.000000        0.00014779        0.00001972        0.00002713        0.00000752
      88         -0.410338        1.000000        0.00064739        0.00007470        0.00020091        0.00010788
      89         -0.408400        1.000000        0.00012288        0.00000954        0.00002740        0.00000236
      90         -0.399894        1.000000        0.00049613        0.00001392        0.00002047        0.00010001
      91         -0.398531        1.000000        0.00073910        0.00000960        0.00016084        0.00001929
      92         -0.398207        1.000000        0.00054865        0.00001376        0.00010933        0.00004711
      93         -0.397031        1.000000        0.00032225        0.00001311        0.00003049        0.00012533
      94         -0.308605        1.000000        0.00002793        0.00016573        0.00049335        0.00059445
      95         -0.301498        1.000000        0.00522796        0.00409458        0.03357588        0.00109231
      96         -0.295266        1.000000        0.00232952        0.00172290        0.00493570        0.03172841
      97         -0.273320        1.000000        0.00352795        0.02853297        0.09702477        0.10064244
      98         -0.269490        1.000000        0.00382840        0.15664218        0.08408671        0.00696635
      99         -0.265727        1.000000        0.00841822        0.08864676        0.03432921        0.12627804
     100         -0.264842        1.000000        0.00198182        0.01714772        0.07701004        0.10218667
     101         -0.262363        1.000000        0.00206016        0.09102559        0.06483575        0.06800769
     102         -0.261666        1.000000        0.00469935        0.07299172        0.09620679        0.05796428
     103         -0.260397        1.000000        0.00411932        0.07298035        0.06775124        0.08490339
     104         -0.257729        1.000000        0.00110405        0.09039997        0.04705206        0.11234826
     105         -0.256647        1.000000        0.00230699        0.10316142        0.08980947        0.06412615
     106         -0.254216        1.000000        0.00274680        0.07290351        0.07397459        0.07224559
     107         -0.253504        1.000000        0.00308228        0.12087736        0.09971265        0.01990726
     108         -0.252741        1.000000        0.00025647        0.04459265        0.04318118        0.09796835
     109         -0.249214        1.000000        0.00230259        0.05105997        0.08469143        0.03752785
     110         -0.246962        1.000000        0.00031736        0.01672199        0.08123629        0.07954724
     111         -0.244559        1.000000        0.00077418        0.04322744        0.02957999        0.09822002
     112         -0.242466        1.000000        0.00134802        0.02739301        0.09205097        0.06442334
     113         -0.240538        1.000000        0.00145864        0.02797559        0.02729726        0.02912956
     114         -0.238892        1.000000        0.00165302        0.04453125        0.02559326        0.03011616
     115         -0.238234        1.000000        0.00122335        0.08744204        0.07047954        0.04075434
     116         -0.237998        1.000000        0.00157443        0.06146543        0.07394740        0.06436465
     117         -0.236724        1.000000        0.00395739        0.04664150        0.06249435        0.06742118
     118         -0.235514        1.000000        0.00140715        0.10869484        0.02730888        0.07759035
     119         -0.234447        1.000000        0.00812241        0.11379641        0.01768613        0.03500103
     120         -0.232865        1.000000        0.00415611        0.02065059        0.07744029        0.02712525
     121         -0.231038        1.000000        0.00674349        0.11372185        0.01472720        0.02790216
     122         -0.229501        1.000000        0.00429754        0.10664654        0.06093599        0.02006815
     123         -0.227385        1.000000        0.00902234        0.00470019        0.01163533        0.07901785
     124         -0.227018        1.000000        0.00927964        0.06251678        0.05674553        0.06351199
     125         -0.224321        1.000000        0.00177849        0.00456662        0.01115503        0.03596663
     126         -0.222989        1.000000        0.00388509        0.01624542        0.01661969        0.02877734
     127         -0.221572        1.000000        0.00569604        0.00975818        0.03215751        0.02911148
     128         -0.219807        1.000000        0.00199921        0.02059859        0.01932740        0.00649795
     129         -0.217633        1.000000        0.00170509        0.00791446        0.01249070        0.00913837
     130         -0.216903        1.000000        0.00309669        0.00362586        0.01137239        0.01628483
     131         -0.214686        1.000000        0.00779585        0.00210338        0.01437823        0.03438320
     132         -0.212860        1.000000        0.00541479        0.00761966        0.00807979        0.01753873
     133         -0.212267        1.000000        0.00734615        0.00833816        0.01202409        0.00895017
     134         -0.211805        1.000000        0.00313324        0.00708829        0.00825182        0.00640662
     135         -0.211138        1.000000        0.00478805        0.00617302        0.01936056        0.00547263
     136         -0.209905        1.000000        0.00477671        0.00730247        0.00958313        0.00463024
     137         -0.208792        1.000000        0.00102198        0.00244175        0.00448326        0.00119770
     138         -0.208125        1.000000        0.00447868        0.01126887        0.00420793        0.00581447
     139         -0.207546        1.000000        0.00125949        0.00361631        0.00334233        0.00232749
     140         -0.206009        1.000000        0.00405696        0.00653454        0.01178306        0.00612906
     141         -0.205428        1.000000        0.00271599        0.00332760        0.00597452        0.00072530
     142         -0.204906        1.000000        0.00251152        0.00251646        0.00377408        0.00156892
     143         -0.204015        1.000000        0.00235773        0.00423706        0.00357564        0.00294692
     144         -0.203243        1.000000        0.00619986        0.00765714        0.00362611        0.00450742
     145         -0.201541        1.000000        0.00896180        0.00743288        0.00808681        0.00429577
     146         -0.201127        1.000000        0.00586504        0.00377311        0.00591480        0.00276692
     147         -0.199904        1.000000        0.01463292        0.01583067        0.00616832        0.00532537
     148         -0.198634        1.000000        0.00714316        0.00346091        0.00456171        0.00368686
     149         -0.197504        1.000000        0.00641475        0.00280921        0.01054319        0.00218131
     150         -0.196745        1.000000        0.00450556        0.00441534        0.00838701        0.00195474
     151         -0.195569        1.000000        0.01453324        0.00829776        0.00876720        0.00717405
     152         -0.194905        1.000000        0.00804021        0.00274108        0.00287351        0.00417799
     153         -0.193770        1.000000        0.00881231        0.00692512        0.00779905        0.00570411
     154         -0.193692        1.000000        0.01041269        0.00239356        0.00424550        0.00411504
     155         -0.192867        1.000000        0.00899294        0.00291631        0.00300629        0.00275832
     156         -0.192317        1.000000        0.01416924        0.00257900        0.00399901        0.00385523
     157         -0.191811        1.000000        0.00672398        0.00196953        0.00082510        0.00269228
     158         -0.191278        1.000000        0.00146180        0.00032261        0.00109858        0.00058549
     159         -0.190774        1.000000        0.00184269        0.00061009        0.00133203        0.00093651
     160         -0.190403        1.000000        0.00144301        0.00044752        0.00095970        0.00077848
     161         -0.189857        1.000000        0.00091294        0.00036249        0.00030909        0.00022580
     162         -0.189553        1.000000        0.00713054        0.00371270        0.00205945        0.00211836
     163         -0.188918        1.000000        0.00319807        0.00304689        0.00677813        0.00222933
     164         -0.188476        1.000000        0.00387199        0.00188195        0.00355218        0.00263439
     165         -0.188208        1.000000        0.00729638        0.00291528        0.00295233        0.00121616
     166         -0.187446        1.000000        0.00484391        0.00259114        0.00390577        0.00142957
     167         -0.187213        1.000000        0.00508415        0.00178543        0.00316641        0.00073683
     168         -0.186526        1.000000        0.00113803        0.00134586        0.00124231        0.00124674
     169         -0.186136        1.000000        0.00153573        0.00040967        0.00039121        0.00061487
     170         -0.186018        1.000000        0.00356028        0.00088542        0.00153137        0.00127488
     171         -0.185578        1.000000        0.00720073        0.00147944        0.00246466        0.00393836
     172         -0.184463        1.000000        0.00879938        0.00138683        0.00214553        0.00212528
     173         -0.184317        1.000000        0.00926891        0.00128804        0.00151289        0.00200738
     174         -0.183009        1.000000        0.01937742        0.00217102        0.00228709        0.00497170
     175         -0.182826        1.000000        0.01886531        0.00091649        0.00532298        0.00397763
     176         -0.181992        1.000000        0.01788117        0.00064428        0.00420407        0.00275159
     177         -0.181592        1.000000        0.00654774        0.00063208        0.00198493        0.00142144
     178         -0.181059        1.000000        0.01732825        0.00239668        0.00137426        0.00384858
     179         -0.180585        1.000000        0.02228514        0.00223408        0.00397195        0.00593475
     180         -0.179828        1.000000        0.01626379        0.00160689        0.00211032        0.00142158
     181         -0.179634        1.000000        0.00314833        0.00010734        0.00062378        0.00125063
     182         -0.179385        1.000000        0.00462757        0.00037009        0.00150820        0.00032793
     183         -0.178666        1.000000        0.01593131        0.00149628        0.00169094        0.00179230
     184         -0.178455        1.000000        0.00771898        0.00070311        0.00166403        0.00198268
     185         -0.178113        1.000000        0.00722261        0.00027284        0.00066656        0.00072624
     186         -0.177941        1.000000        0.02676184        0.00057120        0.00186193        0.00512458
     187         -0.177610        1.000000        0.00206422        0.00024174        0.00030799        0.00055352
     188         -0.177424        1.000000        0.00552074        0.00023058        0.00028871        0.00131342
     189         -0.177362        1.000000        0.02828651        0.00216753        0.00115313        0.00430686
     190         -0.177029        1.000000        0.01177843        0.00156810        0.00136256        0.00088711
     191         -0.176941        1.000000        0.00353373        0.00029173        0.00037555        0.00068621
     192         -0.176708        1.000000        0.01043398        0.00056158        0.00130884        0.00116759
     193         -0.176475        1.000000        0.01399309        0.00058156        0.00147898        0.00173031
     194         -0.176292        1.000000        0.00411064        0.00017283        0.00021363        0.00027412
     195         -0.176117        1.000000        0.00717087        0.00050050        0.00049842        0.00093602
     196         -0.175865        0.000000        0.01342318        0.00019345        0.00107344        0.00206180
     197         -0.175660        0.000000        0.04727900        0.00401026        0.00465773        0.00345590
     198         -0.175290        0.000000        0.01593159        0.00036475        0.00055101        0.00138845
     199         -0.174746        0.000000        0.01428025        0.00016071        0.00015636        0.00021689
     200         -0.174221        0.000000        0.05028424        0.00037772        0.00098821        0.00097729
     201         -0.171381        0.000000        0.12607379        0.00131545        0.00851184        0.00034508
     202         -0.066170        0.000000        0.00990191        0.23334801        0.41025940        0.08800455
     203         -0.061522        0.000000        0.00746725        0.02482328        0.09125310        0.61100667
     204         -0.059314        0.000000        0.00768763        0.28516439        0.30786203        0.12454984
     205         -0.057656        0.000000        0.00382669        0.15650363        0.42885434        0.13314670
     206         -0.056322        0.000000        0.00862765        0.14830658        0.55321525        0.00681381
     207         -0.053283        0.000000        0.00460579        0.06541138        0.59598657        0.05053172
     208         -0.047162        0.000000        0.00466070        0.17261182        0.37257883        0.16173438
     209         -0.045481        0.000000        0.00508763        0.39646972        0.09332799        0.21751400
     210         -0.043253        0.000000        0.00726684        0.35809490        0.23700925        0.09908495
     211         -0.041446        0.000000        0.00158481        0.29304501        0.03695534        0.37042292
     212         -0.038887        0.000000        0.00212073        0.39491192        0.12096603        0.18406170
     213         -0.036860        0.000000        0.00404779        0.25494318        0.17374667        0.26525906
     214         -0.035862        0.000000        0.00177794        0.10143256        0.10592639        0.48833627
     215         -0.032162        0.000000        0.00282386        0.11720155        0.38360332        0.19018142
     216         -0.030618        0.000000        0.00095673        0.04431008        0.32440879        0.32247845
     217         -0.028048        0.000000        0.00076192        0.09090328        0.12498634        0.47652809
     218         -0.027159        0.000000        0.00148026        0.13145249        0.41947301        0.14612289
     219         -0.025771        0.000000        0.00222924        0.03746740        0.28575507        0.36829793
     220         -0.022601        0.000000        0.00030016        0.28004514        0.19545542        0.21346878
     221         -0.021900        0.000000        0.00144052        0.21182530        0.04515710        0.43413370
     222         -0.012127        0.000000        0.00034306        0.21827341        0.13145500        0.33371635
     223         -0.011121        0.000000        0.00018087        0.62944521        0.02458641        0.01503699
     224         -0.010631        0.000000        0.00068012        0.41016126        0.11638901        0.16201796
     225         -0.005369        0.000000        0.00040268        0.49297681        0.06530265        0.11326615
     226          0.079420        0.000000        0.00000197        0.00015031        0.00001827        0.00003358
     227          0.083425        0.000000        0.00000075        0.00027270        0.00018933        0.00014508
     228          0.086119        0.000000        0.00000482        0.00016962        0.00006020        0.00002687
     229          0.090192        0.000000        0.00000115        0.00005427        0.00005746        0.00003590
     230          0.092274        0.000000        0.00000143        0.00001778        0.00004542        0.00000219
     231          0.106701        0.000000        0.00000793        0.00001378        0.00013571        0.00001132
     232          0.109227        0.000000        0.00000306        0.00007502        0.00004698        0.00011716
     233          0.131196        0.000000        0.00000076        0.00008511        0.00014871        0.00013637
     234          0.149174        0.000000        0.00000119        0.00000804        0.00000201        0.00002932
     235          0.180471        0.000000        0.00000016        0.00000970        0.00000064        0.00000609
     236          0.202896        0.000000        0.00000119        0.00000072        0.00000131        0.00000025
     237          0.238405        0.000000        0.00000030        0.00000671        0.00000836        0.00000380
     238          0.268952        0.000000        0.00000404        0.00002242        0.00001047        0.00004527
     239          0.273463        0.000000        0.00000259        0.00008235        0.00012109        0.00000450
     240          0.281472        0.000000        0.00000113        0.00001858        0.00002913        0.00003477
     241          0.282142        0.000000        0.00000389        0.00005792        0.00003059        0.00001312
     242          0.284778        0.000000        0.00000307        0.00006605        0.00006823        0.00000312
     243          0.288120        0.000000        0.00000320        0.00000241        0.00003165        0.00008338
     244          0.293598        0.000000        0.00000459        0.00001674        0.00000713        0.00008238
     245          0.300124        0.000000        0.00001075        0.00006086        0.00005749        0.00010099
     246          0.304154        0.000000        0.00003625        0.00008670        0.00028831        0.00006759
     247          0.306222        0.000000        0.00000265        0.00001538        0.00002114        0.00002371
     248          0.308603        0.000000        0.00000102        0.00002489        0.00004815        0.00003328
     249          0.309771        0.000000        0.00002203        0.00003202        0.00024628        0.00005790
     250          0.317663        0.000000        0.00000846        0.00008837        0.00006067        0.00000830
     251          0.323980        0.000000        0.00000217        0.00005899        0.00001216        0.00000669
     252          0.348801        0.000000        0.00003653        0.00004660        0.00033212        0.00007268
     253          0.351648        0.000000        0.00000502        0.00002618        0.00002866        0.00007925
     254          0.440279        0.000000        0.00000024        0.00001980        0.00001350        0.00006102
     255          0.441711        0.000000        0.00000017        0.00000099        0.00000396        0.00000428
     256          0.444892        0.000000        0.00000081        0.00007922        0.00007141        0.00004468
     257          0.446745        0.000000        0.00000195        0.00030100        0.00025291        0.00002800
     258          0.450381        0.000000        0.00000016        0.00000393        0.00000277        0.00000299
     259          0.451260        0.000000        0.00000007        0.00004526        0.00002569        0.00001845