# Projected DOS for atomic kind H at iteration step i = 0, E(Fermi) =    -0.176117 a.u.
#     MO Eigenvalue [a.u.]      Occupation                 s
       1         -0.977023        1.000000        0.27093117
       2         -0.974210        1.000000        0.26678920
       3         -0.965247        1.000000        0.27085498
       4         -0.956445        1.000000        0.28269355
       5         -0.954369        1.000000        0.27261352
       6         -0.932770        1.000000        0.28072855
       7         -0.932077        1.000000        0.27997913
       8         -0.714691        1.000000        0.33185041
       9         -0.710344        1.000000        0.33704670
      10         -0.699990        1.000000        0.33356509
      11         -0.696713        1.000000        0.34183345
      12         -0.696608        1.000000        0.34098358
      13         -0.682019        1.000000        0.34825917
      14         -0.681207        1.000000        0.35069184
      15         -0.631159        1.000000        0.00002489
      16         -0.624559        1.000000        0.00436349
      17         -0.616638        1.000000        0.00821900
      18         -0.605035        1.000000        0.32368860
      19         -0.602712        1.000000        0.32753545
      20         -0.596102        1.000000        0.28876855
      21         -0.591868        1.000000        0.08846111
      22         -0.591466        1.000000        0.04461858
      23         -0.590272        1.000000        0.07946920
      24         -0.587587        1.000000        0.05126428
      25         -0.587276        1.000000        0.07141776
      26         -0.586300        1.000000        0.01084266
      27         -0.585144        1.000000        0.10621567
      28         -0.583606        1.000000        0.10121022
      29         -0.583099        1.000000        0.29776481
      30         -0.582732        1.000000        0.27388835
      31         -0.581189        1.000000        0.05565835
      32         -0.581115        1.000000        0.05148568
      33         -0.578180        1.000000        0.07029840
      34         -0.577026        1.000000        0.05121977
      35         -0.575818        1.000000        0.15838063
      36         -0.575378        1.000000        0.11736318
      37         -0.573121        1.000000        0.16579031
      38         -0.570668        1.000000        0.09847774
      39         -0.570151        1.000000        0.13337138
      40         -0.569708        1.000000        0.08459952
      41         -0.568949        1.000000        0.10541507
      42         -0.568510        1.000000        0.17718096
      43         -0.567593        1.000000        0.10938671
      44         -0.566994        1.000000        0.05077321
      45         -0.566096        1.000000        0.00661960
      46         -0.563737        1.000000        0.02310364
      47         -0.562947        1.000000        0.01353646
      48         -0.562802        1.000000        0.01263511
      49         -0.562125        1.000000        0.03683090
      50         -0.561626        1.000000        0.04403235
      51         -0.561155        1.000000        0.01547119
      52         -0.560820        1.000000        0.02036045
      53         -0.559912        1.000000        0.00215044
      54         -0.559196        1.000000        0.01690689
      55         -0.555381        1.000000        0.00136464
      56         -0.554370        1.000000        0.00084433
      57         -0.554327        1.000000        0.00111254
      58         -0.553449        1.000000        0.00037789
      59         -0.550813        1.000000        0.22212591
      60         -0.550472        1.000000        0.13500055
      61         -0.548901        1.000000        0.08323318
      62         -0.548596        1.000000        0.00095964
      63         -0.544352        1.000000        0.23544549
      64         -0.541102        1.000000        0.20488371
      65         -0.501657        1.000000        0.19727447
      66         -0.495756        1.000000        0.18984760
      67         -0.484320        1.000000        0.19128665
      68         -0.481103        1.000000        0.18756066
      69         -0.477959        1.000000        0.17866896
      70         -0.461858        1.000000        0.17404537
      71         -0.461044        1.000000        0.17112754
      72         -0.457015        1.000000        0.00173022
      73         -0.453901        1.000000        0.00253899
      74         -0.450753        1.000000        0.00160535
      75         -0.448643        1.000000        0.00323406
      76         -0.446438        1.000000        0.00113605
      77         -0.445837        1.000000        0.00188636
      78         -0.445145        1.000000        0.00052883
      79         -0.441632        1.000000        0.00273868
      80         -0.424572        1.000000        0.41809997
      81         -0.423763        1.000000        0.41801659
      82         -0.422844        1.000000        0.42233746
      83         -0.420650        1.000000        0.41835595
      84         -0.413369        1.000000        0.42079217
      85         -0.412961        1.000000        0.42003555
      86         -0.412014        1.000000        0.42002739
      87         -0.411219        1.000000        0.42237150
      88         -0.410338        1.000000        0.41806388
      89         -0.408400        1.000000        0.42130430
      90         -0.399894        1.000000        0.42535171
      91         -0.398531        1.000000        0.42372842
      92         -0.398207        1.000000        0.42280393
      93         -0.397031        1.000000        0.42243690
      94         -0.308605        1.000000        0.00032063
      95         -0.301498        1.000000        0.00043419
      96         -0.295266        1.000000        0.00039256
      97         -0.273320        1.000000        0.00018162
      98         -0.269490        1.000000        0.00028081
      99         -0.265727        1.000000        0.00035264
     100         -0.264842        1.000000        0.00057990
     101         -0.262363        1.000000        0.00031368
     102         -0.261666        1.000000        0.00046214
     103         -0.260397        1.000000        0.00028188
     104         -0.257729        1.000000        0.00036639
     105         -0.256647        1.000000        0.00021297
     106         -0.254216        1.000000        0.00025839
     107         -0.253504        1.000000        0.00022598
     108         -0.252741        1.000000        0.00056331
     109         -0.249214        1.000000        0.00045211
     110         -0.246962        1.000000        0.00053290
     111         -0.244559        1.000000        0.00092808
     112         -0.242466        1.000000        0.00060535
     113         -0.240538        1.000000        0.00074896
     114         -0.238892        1.000000        0.00010145
     115         -0.238234        1.000000        0.00040220
     116         -0.237998        1.000000        0.00040601
     117         -0.236724        1.000000        0.00055840
     118         -0.235514        1.000000        0.00057186
     119         -0.234447        1.000000        0.00116925
     120         -0.232865        1.000000        0.00102997
     121         -0.231038        1.000000        0.00093596
     122         -0.229501        1.000000        0.00032893
     123         -0.227385        1.000000        0.00151369
     124         -0.227018        1.000000        0.00068646
     125         -0.224321        1.000000        0.00069796
     126         -0.222989        1.000000        0.00171004
     127         -0.221572        1.000000        0.00133171
     128         -0.219807        1.000000        0.00074438
     129         -0.217633        1.000000        0.00171361
     130         -0.216903        1.000000        0.00108093
     131         -0.214686        1.000000        0.00109288
     132         -0.212860        1.000000        0.00069402
     133         -0.212267        1.000000        0.00142274
     134         -0.211805        1.000000        0.00107445
     135         -0.211138        1.000000        0.00099010
     136         -0.209905        1.000000        0.00107162
     137         -0.208792        1.000000        0.00074180
     138         -0.208125        1.000000        0.00039031
     139         -0.207546        1.000000        0.00064111
     140         -0.206009        1.000000        0.00060174
     141         -0.205428        1.000000        0.00037407
     142         -0.204906        1.000000        0.00029799
     143         -0.204015        1.000000        0.00042210
     144         -0.203243        1.000000        0.00050599
     145         -0.201541        1.000000        0.00087074
     146         -0.201127        1.000000        0.00038565
     147         -0.199904        1.000000        0.00094192
     148         -0.198634        1.000000        0.00051006
     149         -0.197504        1.000000        0.00064076
     150         -0.196745        1.000000        0.00037708
     151         -0.195569        1.000000        0.00029518
     152         -0.194905        1.000000        0.00032516
     153         -0.193770        1.000000        0.00070360
     154         -0.193692        1.000000        0.00046100
     155         -0.192867        1.000000        0.00033291
     156         -0.192317        1.000000        0.00028811
     157         -0.191811        1.000000        0.00147277
     158         -0.191278        1.000000        0.00029109
     159         -0.190774        1.000000        0.00055010
     160         -0.190403        1.000000        0.00023759
     161         -0.189857        1.000000        0.00013928
     162         -0.189553        1.000000        0.00022350
     163         -0.188918        1.000000        0.00022601
     164         -0.188476        1.000000        0.00038645
     165         -0.188208        1.000000        0.00020174
     166         -0.187446        1.000000        0.00035983
     167         -0.187213        1.000000        0.00040396
     168         -0.186526        1.000000        0.00023370
     169         -0.186136        1.000000        0.00012505
     170         -0.186018        1.000000        0.00012660
     171         -0.185578        1.000000        0.00009515
     172         -0.184463        1.000000        0.00021371
     173         -0.184317        1.000000        0.00015785
     174         -0.183009        1.000000        0.00024398
     175         -0.182826        1.000000        0.00019159
     176         -0.181992        1.000000        0.00013526
     177         -0.181592        1.000000        0.00016844
     178         -0.181059        1.000000        0.00008867
     179         -0.180585        1.000000        0.00007924
     180         -0.179828        1.000000        0.00009053
     181         -0.179634        1.000000        0.00013216
     182         -0.179385        1.000000        0.00011957
     183         -0.178666        1.000000        0.00009985
     184         -0.178455        1.000000        0.00009440
     185         -0.178113        1.000000        0.00006237
     186         -0.177941        1.000000        0.00014017
     187         -0.177610        1.000000        0.00013802
     188         -0.177424        1.000000        0.00003074
     189         -0.177362        1.000000        0.00008198
     190         -0.177029        1.000000        0.00012870
     191         -0.176941        1.000000        0.00012446
     192         -0.176708        1.000000        0.00014329
     193         -0.176475        1.000000        0.00009653
     194         -0.176292        1.000000        0.00006552
     195         -0.176117        1.000000        0.00008526
     196         -0.175865        0.000000        0.00008562
     197         -0.175660        0.000000        0.00010167
     198         -0.175290        0.000000        0.00009859
     199         -0.174746        0.000000        0.00007573
     200         -0.174221        0.000000        0.00010796
     201         -0.171381        0.000000        0.00003480
     202         -0.066170        0.000000        0.00029951
     203         -0.061522        0.000000        0.00033080
     204         -0.059314        0.000000        0.00030585
     205         -0.057656        0.000000        0.00032913
     206         -0.056322        0.000000        0.00088060
     207         -0.053283        0.000000        0.00034044
     208         -0.047162        0.000000        0.00013950
     209         -0.045481        0.000000        0.00013925
     210         -0.043253        0.000000        0.00025633
     211         -0.041446        0.000000        0.00017914
     212         -0.038887        0.000000        0.00009163
     213         -0.036860        0.000000        0.00008131
     214         -0.035862        0.000000        0.00005632
     215         -0.032162        0.000000        0.00022517
     216         -0.030618        0.000000        0.00012162
     217         -0.028048        0.000000        0.00007670
     218         -0.027159        0.000000        0.00017837
     219         -0.025771        0.000000        0.00018453
     220         -0.022601        0.000000        0.00009751
     221         -0.021900        0.000000        0.00011791
     222         -0.012127        0.000000        0.00011685
     223         -0.011121        0.000000        0.00036991
     224         -0.010631        0.000000        0.00014984
     225         -0.005369        0.000000        0.00012439
     226          0.079420        0.000000        0.01144881
     227          0.083425        0.000000        0.02298188
     228          0.086119        0.000000        0.00421343
     229          0.090192        0.000000        0.01599689
     230          0.092274        0.000000        0.01643141
     231          0.106701        0.000000        0.00340213
     232          0.109227        0.000000        0.00418045
     233          0.131196        0.000000        0.64953370
     234          0.149174        0.000000        0.65333042
     235          0.180471        0.000000        0.66530918
     236          0.202896        0.000000        0.64797236
     237          0.238405        0.000000        0.65045861
     238          0.268952        0.000000        0.66406844
     239          0.273463        0.000000        0.66305309
     240          0.281472        0.000000        0.66277270
     241          0.282142        0.000000        0.66468457
     242          0.284778        0.000000        0.66528662
     243          0.288120        0.000000        0.65189007
     244          0.293598        0.000000        0.64622886
     245          0.300124        0.000000        0.66336816
     246          0.304154        0.000000        0.66260565
     247          0.306222        0.000000        0.66227392
     248          0.308603        0.000000        0.64575386
     249          0.309771        0.000000        0.66379097
     250          0.317663        0.000000        0.63479614
     251          0.323980        0.000000        0.64154954
     252          0.348801        0.000000        0.63085301
     253          0.351648        0.000000        0.62861271
     254          0.440279        0.000000        0.58822773
     255          0.441711        0.000000        0.58776652
     256          0.444892        0.000000        0.59007594
     257          0.446745        0.000000        0.58492274
     258          0.450381        0.000000        0.58602400
     259          0.451260        0.000000        0.58470957
     260          0.455782        0.000000        0.58491451
     261          0.456691        0.000000        0.58504627
     262          0.458169        0.000000        0.58316655
     263          0.459864        0.000000        0.59096192
     264          0.465251        0.000000        0.57889207
     265          0.467555        0.000000        0.58069670
     266          0.469763        0.000000        0.58038749
     267          0.470706        0.000000        0.58259300
     268          0.549977        0.000000        0.55234893
     269          0.553714        0.000000        0.55351449
     270          0.555412        0.000000        0.55196625
     271          0.558557        0.000000        0.55297520
     272          0.562720        0.000000        0.55275436
     273          0.564096        0.000000        0.55268316
     274          0.564795        0.000000        0.55300827
