# Projected DOS for atomic kind N at iteration step i = 0, E(Fermi) =    -0.175275 a.u.
#     MO Eigenvalue [a.u.]      Occupation                 s                py                pz                px
       1         -0.976723        1.000000        0.62349449        0.00000214        0.00018457        0.00006631
       2         -0.973917        1.000000        0.62173029        0.00133499        0.00000193        0.00004585
       3         -0.964965        1.000000        0.62128084        0.00033301        0.00066475        0.00004856
       4         -0.956174        1.000000        0.61618930        0.00006663        0.00002800        0.00023670
       5         -0.954071        1.000000        0.61871628        0.00030920        0.00029861        0.00000522
       6         -0.932478        1.000000        0.61102835        0.00001823        0.00008292        0.00002146
       7         -0.931792        1.000000        0.61181188        0.00000151        0.00000114        0.00002443
       8         -0.714379        1.000000        0.01438442        0.00764563        0.13708970        0.07715761
       9         -0.710053        1.000000        0.01813545        0.01596077        0.02208695        0.17493866
      10         -0.699714        1.000000        0.01595133        0.00070627        0.00175918        0.21395685
      11         -0.696444        1.000000        0.01483513        0.00038567        0.06531944        0.13254528
      12         -0.696316        1.000000        0.01713336        0.00238958        0.00784778        0.19302108
      13         -0.681730        1.000000        0.01727970        0.00712128        0.09910174        0.08424719
      14         -0.680926        1.000000        0.01851259        0.00373675        0.04017101        0.14077251
      15         -0.630871        1.000000        0.00000064        0.00000721        0.00000080        0.00002458
      16         -0.624196        1.000000        0.00068546        0.00379246        0.00038150        0.00016467
      17         -0.615918        1.000000        0.00025608        0.00952071        0.00043010        0.00038977
      18         -0.604701        1.000000        0.00002361        0.38292150        0.12390230        0.09384299
      19         -0.602396        1.000000        0.00002870        0.00557130        0.54277127        0.06199302
      20         -0.595794        1.000000        0.00008414        0.27860481        0.24115554        0.00670040
      21         -0.591490        1.000000        0.00024145        0.03923501        0.07965664        0.03247848
      22         -0.590937        1.000000        0.00019625        0.04921282        0.00439735        0.01006369
      23         -0.589920        1.000000        0.00061671        0.05482867        0.05852587        0.01871169
      24         -0.587365        1.000000        0.00047934        0.03180775        0.03779179        0.00688444
      25         -0.587003        1.000000        0.00037358        0.05280673        0.03660548        0.02174651
      26         -0.586025        1.000000        0.00007655        0.00728219        0.00463232        0.00391473
      27         -0.584695        1.000000        0.00054862        0.10002460        0.06738785        0.04526657
      28         -0.582944        1.000000        0.00060943        0.17670169        0.02623827        0.12027979
      29         -0.582734        1.000000        0.00286334        0.41875008        0.02342085        0.05205625
      30         -0.582343        1.000000        0.00112115        0.27626476        0.03385537        0.14292523
      31         -0.580792        1.000000        0.00046791        0.09747302        0.05210415        0.03426180
      32         -0.580416        1.000000        0.00016561        0.01298186        0.00797704        0.00616763
      33         -0.577871        1.000000        0.00065177        0.04934355        0.04264835        0.01681121
      34         -0.576499        1.000000        0.00048346        0.05908286        0.03273416        0.00642413
      35         -0.575456        1.000000        0.00128244        0.09744545        0.16041435        0.01531563
      36         -0.574757        1.000000        0.00030667        0.04121282        0.11731893        0.04669892
      37         -0.572821        1.000000        0.00126827        0.13692949        0.16887560        0.00485794
      38         -0.570252        1.000000        0.00039532        0.15609449        0.01893977        0.01247106
      39         -0.569690        1.000000        0.00018852        0.22333501        0.03162562        0.01144594
      40         -0.569189        1.000000        0.00006376        0.13153901        0.01985503        0.00446675
      41         -0.568569        1.000000        0.00008189        0.06666049        0.13693645        0.00989722
      42         -0.568076        1.000000        0.00029555        0.08293738        0.23992315        0.01792657
      43         -0.567057        1.000000        0.00018379        0.07019936        0.05975928        0.02977222
      44         -0.566655        1.000000        0.00022008        0.03773902        0.05185216        0.02109705
      45         -0.565156        1.000000        0.00002647        0.00648359        0.00354329        0.00142485
      46         -0.562939        1.000000        0.00006723        0.03609871        0.00501986        0.00121883
      47         -0.562746        1.000000        0.00001199        0.00525977        0.00159018        0.00080480
      48         -0.561958        1.000000        0.00004214        0.03499704        0.00333643        0.00128455
      49         -0.561628        1.000000        0.00009611        0.02176478        0.02483425        0.01553844
      50         -0.561037        1.000000        0.00002454        0.00681163        0.06928967        0.00557282
      51         -0.560595        1.000000        0.00002968        0.00912322        0.01718981        0.00669865
      52         -0.560324        1.000000        0.00001224        0.03780864        0.00395017        0.00300767
      53         -0.559431        1.000000        0.00001378        0.00063748        0.00018221        0.00047891
      54         -0.559074        1.000000        0.00007785        0.01016911        0.00140608        0.00334223
      55         -0.554461        1.000000        0.00000844        0.00367031        0.00008393        0.00008294
      56         -0.553582        1.000000        0.00001336        0.00251668        0.00015566        0.00009172
      57         -0.552977        1.000000        0.00000280        0.00036803        0.00035880        0.00015879
      58         -0.552752        1.000000        0.00000779        0.00073807        0.00011411        0.00004935
      59         -0.550493        1.000000        0.00006398        0.26522902        0.09659823        0.06508547
      60         -0.549824        1.000000        0.00045870        0.31538930        0.01055730        0.01531040
      61         -0.547698        1.000000        0.00010731        0.05316976        0.00337978        0.01609701
      62         -0.547167        1.000000        0.00000034        0.00033004        0.00001100        0.00003442
      63         -0.544026        1.000000        0.00002945        0.16551683        0.25087132        0.03903030
      64         -0.540689        1.000000        0.00007263        0.00525247        0.18017158        0.22166775
      65         -0.501354        1.000000        0.01053062        0.01687253        0.29174627        0.10982741
      66         -0.495472        1.000000        0.00629073        0.00344698        0.04671970        0.38454524
      67         -0.484053        1.000000        0.00774874        0.01451977        0.00041137        0.41476244
      68         -0.480818        1.000000        0.00857375        0.00275995        0.01189283        0.41729719
      69         -0.477696        1.000000        0.00966239        0.00049951        0.15992731        0.27736887
      70         -0.461574        1.000000        0.00902372        0.01807042        0.21863880        0.18999860
      71         -0.460765        1.000000        0.00793141        0.00936320        0.09962624        0.32478040
      72         -0.456785        1.000000        0.00003489        0.00011560        0.00196841        0.00197380
      73         -0.453679        1.000000        0.00003021        0.00158580        0.00219737        0.00201766
      74         -0.450281        1.000000        0.00000799        0.00007979        0.00058250        0.00072406
      75         -0.448434        1.000000        0.00001193        0.00092925        0.00234909        0.00547695
      76         -0.446098        1.000000        0.00000182        0.00010496        0.00012653        0.00021525
      77         -0.445486        1.000000        0.00000234        0.00014528        0.00082959        0.00182030
      78         -0.444751        1.000000        0.00000352        0.00005082        0.00034449        0.00039037
      79         -0.441297        1.000000        0.00001442        0.00021940        0.00030040        0.00063988
      80         -0.424267        1.000000        0.00000773        0.02064967        0.00803289        0.00256163
      81         -0.423487        1.000000        0.00008671        0.02081290        0.01616113        0.00051316
      82         -0.422549        1.000000        0.00000783        0.01233691        0.00681130        0.02174585
      83         -0.420374        1.000000        0.00014377        0.02098914        0.01301089        0.00424214
      84         -0.413117        1.000000        0.00004472        0.03248613        0.00090220        0.00061441
      85         -0.412717        1.000000        0.00000397        0.00192414        0.02220292        0.01120832
      86         -0.411762        1.000000        0.00000102        0.03540224        0.00098091        0.00010543
      87         -0.410941        1.000000        0.00000037        0.01763758        0.02059718        0.00018875
      88         -0.410083        1.000000        0.00010573        0.00167848        0.03516147        0.00004426
      89         -0.408122        1.000000        0.00006242        0.02031096        0.01743994        0.00057066
      90         -0.399624        1.000000        0.00000016        0.03871007        0.00009735        0.00182891
      91         -0.398267        1.000000        0.00001769        0.04061632        0.00000547        0.00016646
      92         -0.397941        1.000000        0.00000033        0.00031877        0.03406533        0.00910728
      93         -0.396755        1.000000        0.00000073        0.00031464        0.02051316        0.02276324
      94         -0.308219        1.000000        0.00000458        0.00000132        0.00002557        0.00005003
      95         -0.301042        1.000000        0.00013766        0.00030513        0.00007784        0.00034462
      96         -0.294249        1.000000        0.00025711        0.00133747        0.00039854        0.00009007
      97         -0.273013        1.000000        0.00006023        0.00031383        0.00027153        0.00011169
      98         -0.269145        1.000000        0.00012024        0.00099538        0.00013488        0.00018740
      99         -0.265109        1.000000        0.00035026        0.00108329        0.00023338        0.00015982
     100         -0.264503        1.000000        0.00066230        0.00072312        0.00022826        0.00042658
     101         -0.261965        1.000000        0.00041818        0.00089012        0.00020370        0.00047495
     102         -0.261261        1.000000        0.00051184        0.00035127        0.00030126        0.00076705
     103         -0.259854        1.000000        0.00013494        0.00097921        0.00005173        0.00013519
     104         -0.257462        1.000000        0.00012343        0.00070926        0.00017588        0.00004899
     105         -0.256432        1.000000        0.00012118        0.00036213        0.00008195        0.00018115
     106         -0.253559        1.000000        0.00017422        0.00066815        0.00001755        0.00011653
     107         -0.253070        1.000000        0.00014071        0.00011497        0.00030485        0.00005164
     108         -0.252222        1.000000        0.00016890        0.00035124        0.00027281        0.00027989
     109         -0.248813        1.000000        0.00056257        0.00049868        0.00037259        0.00049236
     110         -0.246732        1.000000        0.00054481        0.00083771        0.00023443        0.00032496
     111         -0.244183        1.000000        0.00150143        0.00027726        0.00062530        0.00073743
     112         -0.242140        1.000000        0.00082422        0.00086508        0.00114036        0.00022803
     113         -0.240266        1.000000        0.00125861        0.00032366        0.00090389        0.00026638
     114         -0.238573        1.000000        0.00015141        0.00007008        0.00012164        0.00006935
     115         -0.237959        1.000000        0.00031574        0.00062793        0.00051851        0.00043739
     116         -0.237643        1.000000        0.00048919        0.00078634        0.00030556        0.00018029
     117         -0.236438        1.000000        0.00071252        0.00012907        0.00106818        0.00023650
     118         -0.235226        1.000000        0.00049376        0.00168707        0.00003975        0.00024587
     119         -0.234051        1.000000        0.00144079        0.00118076        0.00090021        0.00177189
     120         -0.232379        1.000000        0.00137091        0.00081047        0.00187139        0.00045817
     121         -0.230688        1.000000        0.00086862        0.00203967        0.00080624        0.00065479
     122         -0.228970        1.000000        0.00026799        0.00043289        0.00027839        0.00015876
     123         -0.226988        1.000000        0.00157119        0.00157186        0.00174479        0.00111129
     124         -0.226540        1.000000        0.00031048        0.00152521        0.00046630        0.00023972
     125         -0.223633        1.000000        0.00075473        0.00124869        0.00060870        0.00072966
     126         -0.222442        1.000000        0.00183808        0.00116679        0.00139650        0.00046224
     127         -0.221023        1.000000        0.00121282        0.00066085        0.00253792        0.00057924
     128         -0.219450        1.000000        0.00043060        0.00253026        0.00133950        0.00160778
     129         -0.217347        1.000000        0.00206537        0.00353326        0.00234131        0.00180051
     130         -0.216325        1.000000        0.00071455        0.00254395        0.00093999        0.00059594
     131         -0.214131        1.000000        0.00063582        0.00052285        0.00121766        0.00036757
     132         -0.212478        1.000000        0.00063202        0.00083641        0.00124704        0.00026564
     133         -0.211951        1.000000        0.00069783        0.00519814        0.00103285        0.00028548
     134         -0.211481        1.000000        0.00087629        0.00067298        0.00088324        0.00056214
     135         -0.210775        1.000000        0.00059398        0.00114089        0.00143908        0.00024461
     136         -0.209539        1.000000        0.00050587        0.00410328        0.00037961        0.00042938
     137         -0.208445        1.000000        0.00024320        0.00161662        0.00064831        0.00072463
     138         -0.207835        1.000000        0.00013731        0.00062732        0.00010538        0.00010720
     139         -0.207190        1.000000        0.00027279        0.00142431        0.00080384        0.00009840
     140         -0.205548        1.000000        0.00012823        0.00103683        0.00152865        0.00020717
     141         -0.205121        1.000000        0.00004327        0.00073402        0.00023402        0.00015772
     142         -0.204615        1.000000        0.00012117        0.00076208        0.00013967        0.00004124
     143         -0.203711        1.000000        0.00013775        0.00044639        0.00013809        0.00003753
     144         -0.202834        1.000000        0.00017159        0.00055963        0.00020807        0.00004434
     145         -0.201045        1.000000        0.00036826        0.00152819        0.00026257        0.00025211
     146         -0.200600        1.000000        0.00014759        0.00009844        0.00035886        0.00009420
     147         -0.199635        1.000000        0.00069014        0.00203250        0.00042211        0.00053151
     148         -0.198271        1.000000        0.00040229        0.00024759        0.00161895        0.00022695
     149         -0.197085        1.000000        0.00048184        0.00020904        0.00050617        0.00015727
     150         -0.196401        1.000000        0.00005433        0.00016898        0.00118854        0.00056173
     151         -0.195116        1.000000        0.00013496        0.00080072        0.00017181        0.00027964
     152         -0.194414        1.000000        0.00025584        0.00022150        0.00095164        0.00019338
     153         -0.193292        1.000000        0.00060291        0.00083051        0.00045539        0.00160932
     154         -0.193184        1.000000        0.00012978        0.00016746        0.00020805        0.00016417
     155         -0.192383        1.000000        0.00027414        0.00026125        0.00058618        0.00085893
     156         -0.191778        1.000000        0.00014479        0.00018535        0.00041578        0.00017969
     157         -0.191345        1.000000        0.00069334        0.00096458        0.00125149        0.00323895
     158         -0.190811        1.000000        0.00013350        0.00014781        0.00050506        0.00097332
     159         -0.190305        1.000000        0.00015275        0.00017908        0.00121078        0.00044574
     160         -0.189914        1.000000        0.00012704        0.00002630        0.00021272        0.00005735
     161         -0.189033        1.000000        0.00011517        0.00015409        0.00018743        0.00007083
     162         -0.188683        1.000000        0.00013482        0.00032982        0.00015270        0.00022241
     163         -0.188345        1.000000        0.00006874        0.00006261        0.00025756        0.00005177
     164         -0.187957        1.000000        0.00008713        0.00015632        0.00019085        0.00027707
     165         -0.187523        1.000000        0.00006011        0.00010553        0.00025154        0.00006570
     166         -0.186977        1.000000        0.00010081        0.00014680        0.00040455        0.00048276
     167         -0.186570        1.000000        0.00014031        0.00020863        0.00013241        0.00020498
     168         -0.186287        1.000000        0.00023186        0.00023142        0.00029816        0.00005691
     169         -0.185865        1.000000        0.00009884        0.00009140        0.00022452        0.00014198
     170         -0.185582        1.000000        0.00003951        0.00003704        0.00013787        0.00006576
     171         -0.184603        1.000000        0.00006146        0.00004807        0.00017520        0.00006729
     172         -0.184008        1.000000        0.00005273        0.00020829        0.00021050        0.00025116
     173         -0.183373        1.000000        0.00004514        0.00011982        0.00013772        0.00005459
     174         -0.182468        1.000000        0.00021063        0.00012979        0.00026885        0.00067853
     175         -0.182264        1.000000        0.00003263        0.00001266        0.00009525        0.00001590
     176         -0.181326        1.000000        0.00003482        0.00006253        0.00001900        0.00004961
     177         -0.181144        1.000000        0.00002940        0.00003421        0.00020905        0.00006516
     178         -0.180279        1.000000        0.00004015        0.00004697        0.00002341        0.00002539
     179         -0.179929        1.000000        0.00003416        0.00001769        0.00011308        0.00004333
     180         -0.179411        1.000000        0.00006402        0.00014820        0.00002505        0.00003761
     181         -0.179136        1.000000        0.00002892        0.00012741        0.00009157        0.00008625
     182         -0.179077        1.000000        0.00001157        0.00001596        0.00021935        0.00011387
     183         -0.178203        1.000000        0.00004036        0.00017378        0.00000393        0.00001166
     184         -0.177798        1.000000        0.00001622        0.00002391        0.00004069        0.00001052
     185         -0.177537        1.000000        0.00003450        0.00004483        0.00004232        0.00000961
     186         -0.177241        1.000000        0.00003360        0.00001691        0.00011786        0.00013152
     187         -0.176734        1.000000        0.00011316        0.00005686        0.00030661        0.00001354
     188         -0.176533        1.000000        0.00009339        0.00006553        0.00014317        0.00030958
     189         -0.176102        1.000000        0.00005240        0.00003638        0.00000826        0.00000642
     190         -0.175916        1.000000        0.00001686        0.00002711        0.00004483        0.00001469
     191         -0.175761        1.000000        0.00001880        0.00002388        0.00004802        0.00003707
     192         -0.175516        1.000000        0.00001041        0.00001108        0.00002052        0.00000506
     193         -0.175452        1.000000        0.00001752        0.00004011        0.00002237        0.00003762
     194         -0.175275        1.000000        0.00001312        0.00000878        0.00003014        0.00001233
     195         -0.175113        0.000000        0.00003502        0.00002828        0.00003957        0.00003973
     196         -0.174809        0.000000        0.00001719        0.00007706        0.00005503        0.00001231
     197         -0.174737        0.000000        0.00002179        0.00005729        0.00004567        0.00002401
     198         -0.174541        0.000000        0.00001596        0.00002045        0.00003409        0.00003095
     199         -0.174166        0.000000        0.00001747        0.00003425        0.00002514        0.00004012
     200         -0.173349        0.000000        0.00001348        0.00001908        0.00001646        0.00001433
     201         -0.170847        0.000000        0.00001257        0.00001371        0.00000718        0.00000443
     202         -0.065841        0.000000        0.00016521        0.00025170        0.00002650        0.00003326
     203         -0.061202        0.000000        0.00013869        0.00014298        0.00012576        0.00018358
     204         -0.058948        0.000000        0.00002872        0.00025145        0.00003437        0.00003855
     205         -0.057409        0.000000        0.00006712        0.00019384        0.00004864        0.00002167
     206         -0.056062        0.000000        0.00051784        0.00019115        0.00039819        0.00028925
     207         -0.053007        0.000000        0.00003149        0.00042472        0.00009132        0.00001923
     208         -0.046802        0.000000        0.00006398        0.00007981        0.00004391        0.00002666
     209         -0.045212        0.000000        0.00008443        0.00006492        0.00001292        0.00003328
     210         -0.042964        0.000000        0.00020703        0.00000813        0.00001776        0.00005457
     211         -0.041101        0.000000        0.00005976        0.00005706        0.00001551        0.00003728
     212         -0.038597        0.000000        0.00003400        0.00005191        0.00003728        0.00001669
     213         -0.036575        0.000000        0.00002863        0.00003598        0.00003867        0.00000805
     214         -0.035557        0.000000        0.00001432        0.00005629        0.00000472        0.00002576
     215         -0.031881        0.000000        0.00004680        0.00019597        0.00007969        0.00001187
     216         -0.030381        0.000000        0.00005049        0.00006888        0.00003960        0.00000181
     217         -0.027694        0.000000        0.00002625        0.00001639        0.00001478        0.00000625
     218         -0.026818        0.000000        0.00009305        0.00009432        0.00001481        0.00003953
     219         -0.025434        0.000000        0.00008372        0.00003171        0.00007506        0.00001062
     220         -0.022254        0.000000        0.00003200        0.00001834        0.00003646        0.00001829
     221         -0.021553        0.000000        0.00005827        0.00003435        0.00003645        0.00000382
     222         -0.011896        0.000000        0.00006061        0.00001531        0.00004195        0.00000587
     223         -0.011063        0.000000        0.00005576        0.00035739        0.00009189        0.00004824
     224         -0.010109        0.000000        0.00004841        0.00006848        0.00001445        0.00002153
     225         -0.005117        0.000000        0.00003667        0.00002459        0.00007184        0.00002199
     226          0.079702        0.000000        0.12838932        0.00394096        0.16172911        0.06014203
     227          0.083693        0.000000        0.12546972        0.02233657        0.02670508        0.18017328
     228          0.086370        0.000000        0.10290938        0.00102474        0.09003763        0.16346696
     229          0.090445        0.000000        0.11887684        0.00080439        0.00305458        0.23145745
     230          0.092540        0.000000        0.12004293        0.00572476        0.01804855        0.21486216
     231          0.106965        0.000000        0.10035465        0.00708649        0.05397125        0.20518003
     232          0.109495        0.000000        0.10563468        0.01231825        0.13890965        0.10928896
     233          0.131480        0.000000        0.04294658        0.18173062        0.00749024        0.09747736
     234          0.149446        0.000000        0.04542869        0.13305327        0.12044654        0.03420491
     235          0.180762        0.000000        0.01790951        0.18009199        0.05320451        0.08085487
     236          0.203179        0.000000        0.03840422        0.05855682        0.14103157        0.10002190
     237          0.238701        0.000000        0.06540713        0.07239086        0.00456331        0.19608360
     238          0.269235        0.000000        0.00002918        0.00125817        0.29233422        0.03620516
     239          0.273704        0.000000        0.00053230        0.30772513        0.00658503        0.00923894
     240          0.281740        0.000000        0.00050832        0.17380558        0.14554650        0.00758542
     241          0.282402        0.000000        0.00023406        0.01967779        0.20169619        0.10340578
     242          0.285052        0.000000        0.00175863        0.23466669        0.07623109        0.00511692
     243          0.288384        0.000000        0.13564313        0.07693582        0.12232740        0.00122376
     244          0.293884        0.000000        0.17568096        0.12768308        0.00805241        0.03424411
     245          0.300393        0.000000        0.00431218        0.02411043        0.10455074        0.17733050
     246          0.304418        0.000000        0.00115327        0.06709267        0.21577953        0.02855999
     247          0.306483        0.000000        0.00778196        0.26095639        0.04588330        0.00600453
     248          0.308874        0.000000        0.16698868        0.03942101        0.05739820        0.07885236
     249          0.310022        0.000000        0.00127685        0.23366012        0.03983303        0.04131243
     250          0.317912        0.000000        0.24433274        0.00217030        0.03478567        0.06843042
     251          0.324265        0.000000        0.18648170        0.01635687        0.08840366        0.04586017
     252          0.349058        0.000000        0.24487182        0.00526217        0.01575810        0.07772478
     253          0.351913        0.000000        0.24043297        0.00636435        0.05571613        0.04364594
     254          0.440541        0.000000        0.00015752        0.01874838        0.00205563        0.00000097
     255          0.441966        0.000000        0.00000267        0.00003167        0.00553021        0.01361078
     256          0.445131        0.000000        0.00041591        0.00857523        0.00879809        0.00100589
     257          0.446988        0.000000        0.00023515        0.00731299        0.01077958        0.00146903
     258          0.450618        0.000000        0.00067801        0.00117699        0.02048763        0.00008843
     259          0.451481        0.000000        0.00001208        0.01492158        0.00757803        0.00058926