# Projected DOS for atomic kind N at iteration step i = 0, E(Fermi) =    -0.176117 a.u.
#     MO Eigenvalue [a.u.]      Occupation                 s                py                pz                px
       1         -0.977023        1.000000        0.62340811        0.00000212        0.00018345        0.00006604
       2         -0.974210        1.000000        0.62164354        0.00133445        0.00000193        0.00004638
       3         -0.965247        1.000000        0.62120181        0.00033321        0.00066452        0.00004812
       4         -0.956445        1.000000        0.61611853        0.00006652        0.00002788        0.00023523
       5         -0.954369        1.000000        0.61863053        0.00030894        0.00029865        0.00000507
       6         -0.932770        1.000000        0.61095028        0.00001822        0.00008233        0.00002115
       7         -0.932077        1.000000        0.61173752        0.00000153        0.00000110        0.00002401
       8         -0.714691        1.000000        0.01439512        0.00764834        0.13710325        0.07717030
       9         -0.710344        1.000000        0.01814392        0.01596889        0.02209427        0.17498945
      10         -0.699990        1.000000        0.01595628        0.00070569        0.00176054        0.21403019
      11         -0.696713        1.000000        0.01487968        0.00041777        0.06440384        0.13358355
      12         -0.696608        1.000000        0.01710583        0.00235587        0.00879360        0.19208231
      13         -0.682019        1.000000        0.01728974        0.00712786        0.09912810        0.08426588
      14         -0.681207        1.000000        0.01852353        0.00373914        0.04017961        0.14081428
      15         -0.631159        1.000000        0.00000064        0.00000718        0.00000080        0.00002455
      16         -0.624559        1.000000        0.00068625        0.00377709        0.00038272        0.00016372
      17         -0.616638        1.000000        0.00025675        0.00938375        0.00042100        0.00038535
      18         -0.605035        1.000000        0.00002363        0.38252342        0.12376430        0.09370315
      19         -0.602712        1.000000        0.00002847        0.00556580        0.54264607        0.06198755
      20         -0.596102        1.000000        0.00008431        0.27824226        0.24094672        0.00668991
      21         -0.591868        1.000000        0.00024733        0.03983075        0.07426487        0.03311852
      22         -0.591466        1.000000        0.00019573        0.05006901        0.00570734        0.01143276
      23         -0.590272        1.000000        0.00061527        0.05091922        0.06230790        0.01636484
      24         -0.587587        1.000000        0.00042392        0.03455940        0.04092173        0.00625933
      25         -0.587276        1.000000        0.00042502        0.05559547        0.03672603        0.02369570
      26         -0.586300        1.000000        0.00007917        0.00824232        0.00544015        0.00440471
      27         -0.585144        1.000000        0.00048220        0.08897538        0.06074620        0.04083491
      28         -0.583606        1.000000        0.00071099        0.13176965        0.00983107        0.04086666
      29         -0.583099        1.000000        0.00259642        0.41468589        0.03469416        0.11273161
      30         -0.582732        1.000000        0.00132369        0.31892893        0.03765571        0.16165363
      31         -0.581189        1.000000        0.00033400        0.05848950        0.02747774        0.01732608
      32         -0.581115        1.000000        0.00029277        0.04840279        0.02824127        0.01997852
      33         -0.578180        1.000000        0.00059946        0.05045228        0.04337966        0.01649127
      34         -0.577026        1.000000        0.00043061        0.05778641        0.01833482        0.00823145
      35         -0.575818        1.000000        0.00133571        0.09892028        0.17574030        0.01988546
      36         -0.575378        1.000000        0.00037102        0.04286297        0.12666908        0.04710892
      37         -0.573121        1.000000        0.00124859        0.13942814        0.16812086        0.00462173
      38         -0.570668        1.000000        0.00041951        0.15560330        0.02005644        0.01245584
      39         -0.570151        1.000000        0.00017850        0.22062913        0.02614248        0.00935875
      40         -0.569708        1.000000        0.00009071        0.14665344        0.01420980        0.00408047
      41         -0.568949        1.000000        0.00007827        0.06844449        0.12689083        0.01107827
      42         -0.568510        1.000000        0.00029194        0.07137831        0.24843947        0.01732538
      43         -0.567593        1.000000        0.00015819        0.08083145        0.06454324        0.03432229
      44         -0.566994        1.000000        0.00024737        0.02321516        0.04685030        0.01667068
      45         -0.566096        1.000000        0.00002538        0.00696415        0.00430490        0.00195951
      46         -0.563737        1.000000        0.00006926        0.03989314        0.00546537        0.00156897
      47         -0.562947        1.000000        0.00001969        0.02329585        0.00238269        0.00057400
      48         -0.562802        1.000000        0.00004387        0.02168139        0.00303724        0.00134637
      49         -0.562125        1.000000        0.00009016        0.02304595        0.02481526        0.01519254
      50         -0.561626        1.000000        0.00002578        0.00620245        0.07604677        0.00609922
      51         -0.561155        1.000000        0.00003094        0.02208573        0.00603944        0.00161600
      52         -0.560820        1.000000        0.00002317        0.01493165        0.01412151        0.00661507
      53         -0.559912        1.000000        0.00001357        0.00200334        0.00038422        0.00101925
      54         -0.559196        1.000000        0.00005895        0.01974103        0.00306023        0.00503433
      55         -0.555381        1.000000        0.00000793        0.00247489        0.00010572        0.00005246
      56         -0.554370        1.000000        0.00001025        0.00122383        0.00010614        0.00016831
      57         -0.554327        1.000000        0.00000741        0.00181892        0.00041737        0.00009106
      58         -0.553449        1.000000        0.00000590        0.00070112        0.00011942        0.00003676
      59         -0.550813        1.000000        0.00007665        0.26914021        0.09031962        0.06214724
      60         -0.550472        1.000000        0.00031182        0.23153283        0.01491484        0.01006921
      61         -0.548901        1.000000        0.00025097        0.13648095        0.00234345        0.01945686
      62         -0.548596        1.000000        0.00000209        0.00155373        0.00009789        0.00019741
      63         -0.544352        1.000000        0.00002909        0.16410901        0.25293440        0.04002828
      64         -0.541102        1.000000        0.00006460        0.00606437        0.18177224        0.22534910
      65         -0.501657        1.000000        0.01052683        0.01686418        0.29167019        0.10980122
      66         -0.495756        1.000000        0.00629130        0.00345195        0.04670425        0.38442226
      67         -0.484320        1.000000        0.00774944        0.01451152        0.00041005        0.41462154
      68         -0.481103        1.000000        0.00857326        0.00276020        0.01188312        0.41716311
      69         -0.477959        1.000000        0.00965954        0.00049884        0.15987427        0.27727700
      70         -0.461858        1.000000        0.00902477        0.01812292        0.21905195        0.18976811
      71         -0.461044        1.000000        0.00792734        0.00934287        0.09931272        0.32515233
      72         -0.457015        1.000000        0.00003395        0.00011212        0.00192861        0.00194870
      73         -0.453901        1.000000        0.00002820        0.00152061        0.00205989        0.00182900
      74         -0.450753        1.000000        0.00000742        0.00008083        0.00050289        0.00059281
      75         -0.448643        1.000000        0.00001200        0.00092746        0.00228816        0.00529129
      76         -0.446438        1.000000        0.00000165        0.00009972        0.00013504        0.00022659
      77         -0.445837        1.000000        0.00000223        0.00017329        0.00093412        0.00206485
      78         -0.445145        1.000000        0.00000331        0.00005610        0.00034459        0.00037833
      79         -0.441632        1.000000        0.00001427        0.00021809        0.00031141        0.00061959
      80         -0.424572        1.000000        0.00000767        0.02069895        0.00802146        0.00254929
      81         -0.423763        1.000000        0.00008655        0.02081166        0.01616976        0.00051979
      82         -0.422844        1.000000        0.00000785        0.01230881        0.00683722        0.02176130
      83         -0.420650        1.000000        0.00014370        0.02100057        0.01300734        0.00424613
      84         -0.413369        1.000000        0.00004471        0.03252432        0.00087120        0.00059930
      85         -0.412961        1.000000        0.00000388        0.00190788        0.02221909        0.01122300
      86         -0.412014        1.000000        0.00000101        0.03538427        0.00100802        0.00011164
      87         -0.411219        1.000000        0.00000037        0.01763978        0.02060286        0.00019040
      88         -0.410338        1.000000        0.00010570        0.00168991        0.03516212        0.00004435
      89         -0.408400        1.000000        0.00006241        0.02032581        0.01743758        0.00057012
      90         -0.399894        1.000000        0.00000016        0.03871910        0.00009822        0.00183389
      91         -0.398531        1.000000        0.00001772        0.04061287        0.00000768        0.00017437
      92         -0.398207        1.000000        0.00000033        0.00033965        0.03407557        0.00909889
      93         -0.397031        1.000000        0.00000073        0.00031575        0.02052059        0.02276624
      94         -0.308605        1.000000        0.00000459        0.00000134        0.00002562        0.00004995
      95         -0.301498        1.000000        0.00013687        0.00030594        0.00007803        0.00034361
      96         -0.295266        1.000000        0.00025380        0.00133188        0.00039516        0.00008912
      97         -0.273320        1.000000        0.00005897        0.00032410        0.00027100        0.00011224
      98         -0.269490        1.000000        0.00012774        0.00102306        0.00013398        0.00020209
      99         -0.265727        1.000000        0.00029441        0.00094269        0.00017971        0.00014925
     100         -0.264842        1.000000        0.00070472        0.00082832        0.00025597        0.00044041
     101         -0.262363        1.000000        0.00045392        0.00071323        0.00013139        0.00051692
     102         -0.261666        1.000000        0.00048588        0.00050637        0.00038009        0.00069782
     103         -0.260397        1.000000        0.00012164        0.00100223        0.00005488        0.00013497
     104         -0.257729        1.000000        0.00012097        0.00079880        0.00019701        0.00005472
     105         -0.256647        1.000000        0.00012432        0.00027823        0.00006737        0.00018668
     106         -0.254216        1.000000        0.00021042        0.00067437        0.00005544        0.00010191
     107         -0.253504        1.000000        0.00010748        0.00013824        0.00027261        0.00006811
     108         -0.252741        1.000000        0.00016506        0.00031126        0.00026788        0.00025968
     109         -0.249214        1.000000        0.00055681        0.00046799        0.00034148        0.00051668
     110         -0.246962        1.000000        0.00055051        0.00084879        0.00024256        0.00032147
     111         -0.244559        1.000000        0.00147691        0.00026843        0.00062776        0.00071675
     112         -0.242466        1.000000        0.00082270        0.00088841        0.00113320        0.00022619
     113         -0.240538        1.000000        0.00128154        0.00032501        0.00091239        0.00027634
     114         -0.238892        1.000000        0.00012499        0.00005825        0.00011370        0.00006795
     115         -0.238234        1.000000        0.00036821        0.00065082        0.00041187        0.00045145
     116         -0.237998        1.000000        0.00042034        0.00079693        0.00040951        0.00015433
     117         -0.236724        1.000000        0.00075163        0.00009507        0.00107762        0.00023664
     118         -0.235514        1.000000        0.00039126        0.00158021        0.00008584        0.00025074
     119         -0.234447        1.000000        0.00146378        0.00128169        0.00079599        0.00173324
     120         -0.232865        1.000000        0.00140239        0.00079865        0.00187731        0.00044777
     121         -0.231038        1.000000        0.00087529        0.00204460        0.00083043        0.00068187
     122         -0.229501        1.000000        0.00027399        0.00044540        0.00028145        0.00016512
     123         -0.227385        1.000000        0.00161094        0.00171119        0.00171882        0.00113469
     124         -0.227018        1.000000        0.00028836        0.00141633        0.00049025        0.00027082
     125         -0.224321        1.000000        0.00060652        0.00123769        0.00053704        0.00060087
     126         -0.222989        1.000000        0.00195839        0.00122392        0.00129307        0.00052622
     127         -0.221572        1.000000        0.00116270        0.00060653        0.00251767        0.00053254
     128         -0.219807        1.000000        0.00037397        0.00244998        0.00140311        0.00160142
     129         -0.217633        1.000000        0.00192004        0.00330056        0.00221131        0.00170028
     130         -0.216903        1.000000        0.00090595        0.00255095        0.00106344        0.00074822
     131         -0.214686        1.000000        0.00066791        0.00063133        0.00130871        0.00035667
     132         -0.212860        1.000000        0.00065402        0.00076389        0.00128316        0.00032741
     133         -0.212267        1.000000        0.00077092        0.00498577        0.00095827        0.00025921
     134         -0.211805        1.000000        0.00083630        0.00094425        0.00092759        0.00060167
     135         -0.211138        1.000000        0.00062051        0.00118134        0.00148233        0.00022265
     136         -0.209905        1.000000        0.00049481        0.00383985        0.00039437        0.00038472
     137         -0.208792        1.000000        0.00025194        0.00180841        0.00062922        0.00074670
     138         -0.208125        1.000000        0.00015892        0.00055065        0.00012399        0.00011728
     139         -0.207546        1.000000        0.00024680        0.00154583        0.00077481        0.00007034
     140         -0.206009        1.000000        0.00014049        0.00115474        0.00159950        0.00019456
     141         -0.205428        1.000000        0.00005349        0.00086907        0.00021900        0.00015849
     142         -0.204906        1.000000        0.00010456        0.00054877        0.00010039        0.00003448
     143         -0.204015        1.000000        0.00012969        0.00040850        0.00014057        0.00003468
     144         -0.203243        1.000000        0.00014212        0.00051301        0.00018952        0.00003963
     145         -0.201541        1.000000        0.00033933        0.00157904        0.00031721        0.00022547
     146         -0.201127        1.000000        0.00017153        0.00017735        0.00028516        0.00004167
     147         -0.199904        1.000000        0.00074806        0.00201498        0.00036387        0.00052099
     148         -0.198634        1.000000        0.00032877        0.00026894        0.00167944        0.00027720
     149         -0.197504        1.000000        0.00052668        0.00025838        0.00070112        0.00018884
     150         -0.196745        1.000000        0.00006499        0.00016606        0.00111084        0.00056715
     151         -0.195569        1.000000        0.00013259        0.00076056        0.00015625        0.00024901
     152         -0.194905        1.000000        0.00024591        0.00020444        0.00084640        0.00018467
     153         -0.193770        1.000000        0.00047052        0.00064793        0.00055999        0.00179860
     154         -0.193692        1.000000        0.00035718        0.00063454        0.00031953        0.00033796
     155         -0.192867        1.000000        0.00019233        0.00014294        0.00029243        0.00033697
     156         -0.192317        1.000000        0.00007269        0.00014979        0.00028277        0.00006129
     157         -0.191811        1.000000        0.00074289        0.00098322        0.00132238        0.00350813
     158         -0.191278        1.000000        0.00012628        0.00014671        0.00049971        0.00104217
     159         -0.190774        1.000000        0.00012863        0.00011353        0.00126985        0.00028807
     160         -0.190403        1.000000        0.00014919        0.00003502        0.00031676        0.00010059
     161         -0.189857        1.000000        0.00007882        0.00016548        0.00007081        0.00008874
     162         -0.189553        1.000000        0.00010570        0.00009743        0.00020044        0.00004020
     163         -0.188918        1.000000        0.00006981        0.00020151        0.00021420        0.00012906
     164         -0.188476        1.000000        0.00010014        0.00016925        0.00017668        0.00031150
     165         -0.188208        1.000000        0.00007046        0.00015368        0.00030814        0.00021400
     166         -0.187446        1.000000        0.00012272        0.00015775        0.00041014        0.00048688
     167         -0.187213        1.000000        0.00024364        0.00028361        0.00018989        0.00025905
     168         -0.186526        1.000000        0.00018414        0.00012657        0.00031394        0.00003305
     169         -0.186136        1.000000        0.00008391        0.00004758        0.00028115        0.00011951
     170         -0.186018        1.000000        0.00006622        0.00009970        0.00006815        0.00006862
     171         -0.185578        1.000000        0.00004742        0.00005633        0.00019405        0.00006405
     172         -0.184463        1.000000        0.00004384        0.00015474        0.00014524        0.00019010
     173         -0.184317        1.000000        0.00004833        0.00017151        0.00015061        0.00011527
     174         -0.183009        1.000000        0.00015589        0.00006765        0.00018244        0.00035773
     175         -0.182826        1.000000        0.00009895        0.00010333        0.00021712        0.00030412
     176         -0.181992        1.000000        0.00003272        0.00006458        0.00018922        0.00012667
     177         -0.181592        1.000000        0.00003589        0.00006095        0.00005459        0.00009132
     178         -0.181059        1.000000        0.00003929        0.00005140        0.00003176        0.00001934
     179         -0.180585        1.000000        0.00002421        0.00003432        0.00007621        0.00002073
     180         -0.179828        1.000000        0.00004108        0.00005916        0.00007434        0.00005885
     181         -0.179634        1.000000        0.00005978        0.00018670        0.00007820        0.00005210
     182         -0.179385        1.000000        0.00001603        0.00001356        0.00020386        0.00009394
     183         -0.178666        1.000000        0.00003350        0.00005875        0.00005173        0.00001267
     184         -0.178455        1.000000        0.00004417        0.00015162        0.00002578        0.00002149
     185         -0.178113        1.000000        0.00002137        0.00002415        0.00004035        0.00001826
     186         -0.177941        1.000000        0.00003043        0.00001719        0.00008158        0.00009401
     187         -0.177610        1.000000        0.00007149        0.00004496        0.00017204        0.00001218
     188         -0.177424        1.000000        0.00000632        0.00001373        0.00001403        0.00001294
     189         -0.177362        1.000000        0.00001674        0.00001798        0.00003688        0.00005839
     190         -0.177029        1.000000        0.00007478        0.00005259        0.00010416        0.00004063
     191         -0.176941        1.000000        0.00006461        0.00008020        0.00008038        0.00013068
     192         -0.176708        1.000000        0.00006941        0.00005275        0.00009867        0.00016323
     193         -0.176475        1.000000        0.00003539        0.00002245        0.00005800        0.00007667
     194         -0.176292        1.000000        0.00001019        0.00006339        0.00014658        0.00006826
     195         -0.176117        1.000000        0.00002287        0.00001639        0.00004683        0.00000578
     196         -0.175865        0.000000        0.00003589        0.00006173        0.00005795        0.00003053
     197         -0.175660        0.000000        0.00001603        0.00003527        0.00003209        0.00001382
     198         -0.175290        0.000000        0.00000895        0.00003020        0.00003746        0.00001369
     199         -0.174746        0.000000        0.00001792        0.00000525        0.00003607        0.00002333
     200         -0.174221        0.000000        0.00001878        0.00004052        0.00002188        0.00002222
     201         -0.171381        0.000000        0.00001113        0.00000778        0.00000487        0.00000349
     202         -0.066170        0.000000        0.00016569        0.00025197        0.00002627        0.00003325
     203         -0.061522        0.000000        0.00014043        0.00014463        0.00012746        0.00018478
     204         -0.059314        0.000000        0.00002721        0.00024615        0.00003203        0.00003789
     205         -0.057656        0.000000        0.00006633        0.00019631        0.00004842        0.00002167
     206         -0.056322        0.000000        0.00051457        0.00018254        0.00039296        0.00028753
     207         -0.053283        0.000000        0.00003516        0.00043007        0.00009838        0.00002077
     208         -0.047162        0.000000        0.00006330        0.00007821        0.00004395        0.00002771
     209         -0.045481        0.000000        0.00008503        0.00006634        0.00001240        0.00003229
     210         -0.043253        0.000000        0.00020635        0.00000788        0.00001777        0.00005447
     211         -0.041446        0.000000        0.00006016        0.00005824        0.00001532        0.00003768
     212         -0.038887        0.000000        0.00003380        0.00005003        0.00003738        0.00001675
     213         -0.036860        0.000000        0.00002917        0.00003534        0.00003868        0.00000768
     214         -0.035862        0.000000        0.00001382        0.00005892        0.00000434        0.00002533
     215         -0.032162        0.000000        0.00004886        0.00019820        0.00008039        0.00001195
     216         -0.030618        0.000000        0.00004989        0.00007100        0.00003898        0.00000183
     217         -0.028048        0.000000        0.00002717        0.00001750        0.00001420        0.00000611
     218         -0.027159        0.000000        0.00009315        0.00008974        0.00001623        0.00003990
     219         -0.025771        0.000000        0.00008338        0.00003199        0.00007620        0.00001107
     220         -0.022601        0.000000        0.00002649        0.00001733        0.00003241        0.00001782
     221         -0.021900        0.000000        0.00006420        0.00003585        0.00004107        0.00000418
     222         -0.012127        0.000000        0.00006070        0.00001578        0.00004183        0.00000583
     223         -0.011121        0.000000        0.00005543        0.00035625        0.00009151        0.00004863
     224         -0.010631        0.000000        0.00004848        0.00006903        0.00001394        0.00002167
     225         -0.005369        0.000000        0.00003689        0.00002457        0.00007194        0.00002204
     226          0.079420        0.000000        0.12845625        0.00393728        0.16175994        0.06014453
     227          0.083425        0.000000        0.12555313        0.02237008        0.02667352        0.18017031
     228          0.086119        0.000000        0.10293510        0.00101656        0.09007853        0.16349520
     229          0.090192        0.000000        0.11893178        0.00080231        0.00305971        0.23147674
     230          0.092274        0.000000        0.12009811        0.00572906        0.01806147        0.21487691
     231          0.106701        0.000000        0.10038696        0.00708752        0.05397892        0.20522828
     232          0.109227        0.000000        0.10566919        0.01232063        0.13894012        0.10931704
     233          0.131196        0.000000        0.04293438        0.18174523        0.00749778        0.09755436
     234          0.149174        0.000000        0.04542525        0.13308348        0.12046657        0.03423721
     235          0.180471        0.000000        0.01790118        0.18011499        0.05322956        0.08088712
     236          0.202896        0.000000        0.03840207        0.05856218        0.14104926        0.10007570
     237          0.238405        0.000000        0.06544961        0.07239631        0.00454614        0.19613212
     238          0.268952        0.000000        0.00002750        0.00124611        0.29242971        0.03617890
     239          0.273463        0.000000        0.00053028        0.30777222        0.00658117        0.00922625
     240          0.281472        0.000000        0.00051212        0.17387969        0.14552212        0.00758535
     241          0.282142        0.000000        0.00023886        0.01974900        0.20176437        0.10331179
     242          0.284778        0.000000        0.00174143        0.23453996        0.07637100        0.00516743
     243          0.288120        0.000000        0.13562170        0.07696321        0.12236020        0.00121904
     244          0.293598        0.000000        0.17569876        0.12772782        0.00801723        0.03428407
     245          0.300124        0.000000        0.00431405        0.02415722        0.10456532        0.17730697
     246          0.304154        0.000000        0.00115268        0.06679228        0.21603945        0.02865192
     247          0.306222        0.000000        0.00784648        0.26083283        0.04593202        0.00605446
     248          0.308603        0.000000        0.16696642        0.03950641        0.05741044        0.07882823
     249          0.309771        0.000000        0.00124157        0.23403751        0.03963495        0.04118288
     250          0.317663        0.000000        0.24434316        0.00217875        0.03474328        0.06850941
     251          0.323980        0.000000        0.18653839        0.01640905        0.08833983        0.04588582
     252          0.348801        0.000000        0.24490586        0.00523951        0.01575246        0.07777366
     253          0.351648        0.000000        0.24046672        0.00635022        0.05571816        0.04368243
     254          0.440279        0.000000        0.00015772        0.01876195        0.00205485        0.00000104
     255          0.441711        0.000000        0.00000265        0.00003224        0.00553628        0.01361944
     256          0.444892        0.000000        0.00041512        0.00856833        0.00881601        0.00100813
     257          0.446745        0.000000        0.00023575        0.00732872        0.01077193        0.00146803
     258          0.450381        0.000000        0.00067778        0.00117814        0.02049539        0.00008856
     259          0.451260        0.000000        0.00001203        0.01492081        0.00758946        0.00058861