# Projected DOS for atomic kind H at iteration step i = 0, E(Fermi) =    -0.175275 a.u.
#     MO Eigenvalue [a.u.]      Occupation                 s
       1         -0.976723        1.000000        0.27089023
       2         -0.973917        1.000000        0.26674660
       3         -0.964965        1.000000        0.27081470
       4         -0.956174        1.000000        0.28266563
       5         -0.954071        1.000000        0.27256955
       6         -0.932478        1.000000        0.28069674
       7         -0.931792        1.000000        0.27995025
       8         -0.714379        1.000000        0.33184522
       9         -0.710053        1.000000        0.33706298
      10         -0.699714        1.000000        0.33359563
      11         -0.696444        1.000000        0.34188214
      12         -0.696316        1.000000        0.34098206
      13         -0.681730        1.000000        0.34827467
      14         -0.680926        1.000000        0.35071067
      15         -0.630871        1.000000        0.00002494
      16         -0.624196        1.000000        0.00437001
      17         -0.615918        1.000000        0.00831984
      18         -0.604701        1.000000        0.32394547
      19         -0.602396        1.000000        0.32751647
      20         -0.595794        1.000000        0.28899744
      21         -0.591490        1.000000        0.09085850
      22         -0.590937        1.000000        0.04268678
      23         -0.589920        1.000000        0.08080341
      24         -0.587365        1.000000        0.04875881
      25         -0.587003        1.000000        0.06850846
      26         -0.586025        1.000000        0.00976190
      27         -0.584695        1.000000        0.11757420
      28         -0.582944        1.000000        0.17244115
      29         -0.582734        1.000000        0.26408190
      30         -0.582343        1.000000        0.24051103
      31         -0.580792        1.000000        0.09740991
      32         -0.580416        1.000000        0.01627654
      33         -0.577871        1.000000        0.07104361
      34         -0.576499        1.000000        0.05658402
      35         -0.575456        1.000000        0.14690180
      36         -0.574757        1.000000        0.11096933
      37         -0.572821        1.000000        0.16507178
      38         -0.570252        1.000000        0.09802606
      39         -0.569690        1.000000        0.13848633
      40         -0.569189        1.000000        0.07995966
      41         -0.568569        1.000000        0.10876853
      42         -0.568076        1.000000        0.17887417
      43         -0.567057        1.000000        0.09725623
      44         -0.566655        1.000000        0.06508235
      45         -0.565156        1.000000        0.00561981
      46         -0.562939        1.000000        0.02112387
      47         -0.562746        1.000000        0.00451562
      48         -0.561958        1.000000        0.01891391
      49         -0.561628        1.000000        0.03624841
      50         -0.561037        1.000000        0.04080655
      51         -0.560595        1.000000        0.01886683
      52         -0.560324        1.000000        0.02435002
      53         -0.559431        1.000000        0.00077010
      54         -0.559074        1.000000        0.00923344
      55         -0.554461        1.000000        0.00200222
      56         -0.553582        1.000000        0.00136492
      57         -0.552977        1.000000        0.00048844
      58         -0.552752        1.000000        0.00039936
      59         -0.550493        1.000000        0.22481440
      60         -0.549824        1.000000        0.17954539
      61         -0.547698        1.000000        0.03824940
      62         -0.547167        1.000000        0.00019158
      63         -0.544026        1.000000        0.23467079
      64         -0.540689        1.000000        0.20156593
      65         -0.501354        1.000000        0.19723459
      66         -0.495472        1.000000        0.18978444
      67         -0.484053        1.000000        0.19123078
      68         -0.480818        1.000000        0.18750374
      69         -0.477696        1.000000        0.17861627
      70         -0.461574        1.000000        0.17385673
      71         -0.460765        1.000000        0.17103379
      72         -0.456785        1.000000        0.00175444
      73         -0.453679        1.000000        0.00267306
      74         -0.450281        1.000000        0.00171787
      75         -0.448434        1.000000        0.00331538
      76         -0.446098        1.000000        0.00112185
      77         -0.445486        1.000000        0.00174237
      78         -0.444751        1.000000        0.00058417
      79         -0.441297        1.000000        0.00268805
      80         -0.424267        1.000000        0.41808036
      81         -0.423487        1.000000        0.41802682
      82         -0.422549        1.000000        0.42232986
      83         -0.420374        1.000000        0.41833258
      84         -0.413117        1.000000        0.42080266
      85         -0.412717        1.000000        0.42003522
      86         -0.411762        1.000000        0.42004049
      87         -0.410941        1.000000        0.42237496
      88         -0.410083        1.000000        0.41806615
      89         -0.408122        1.000000        0.42130654
      90         -0.399624        1.000000        0.42536146
      91         -0.398267        1.000000        0.42374077
      92         -0.397941        1.000000        0.42282847
      93         -0.396755        1.000000        0.42243601
      94         -0.308219        1.000000        0.00032016
      95         -0.301042        1.000000        0.00043433
      96         -0.294249        1.000000        0.00039088
      97         -0.273013        1.000000        0.00018170
      98         -0.269145        1.000000        0.00027305
      99         -0.265109        1.000000        0.00037021
     100         -0.264503        1.000000        0.00058338
     101         -0.261965        1.000000        0.00031931
     102         -0.261261        1.000000        0.00045055
     103         -0.259854        1.000000        0.00028235
     104         -0.257462        1.000000        0.00035636
     105         -0.256432        1.000000        0.00023315
     106         -0.253559        1.000000        0.00020131
     107         -0.253070        1.000000        0.00029744
     108         -0.252222        1.000000        0.00054412
     109         -0.248813        1.000000        0.00047315
     110         -0.246732        1.000000        0.00052575
     111         -0.244183        1.000000        0.00093781
     112         -0.242140        1.000000        0.00060095
     113         -0.240266        1.000000        0.00074066
     114         -0.238573        1.000000        0.00011381
     115         -0.237959        1.000000        0.00041897
     116         -0.237643        1.000000        0.00039784
     117         -0.236438        1.000000        0.00055186
     118         -0.235226        1.000000        0.00060858
     119         -0.234051        1.000000        0.00116281
     120         -0.232379        1.000000        0.00101272
     121         -0.230688        1.000000        0.00094033
     122         -0.228970        1.000000        0.00032640
     123         -0.226988        1.000000        0.00148298
     124         -0.226540        1.000000        0.00071779
     125         -0.223633        1.000000        0.00082838
     126         -0.222442        1.000000        0.00156349
     127         -0.221023        1.000000        0.00140209
     128         -0.219450        1.000000        0.00081767
     129         -0.217347        1.000000        0.00183198
     130         -0.216325        1.000000        0.00096152
     131         -0.214131        1.000000        0.00106093
     132         -0.212478        1.000000        0.00072648
     133         -0.211951        1.000000        0.00135787
     134         -0.211481        1.000000        0.00104085
     135         -0.210775        1.000000        0.00097669
     136         -0.209539        1.000000        0.00111232
     137         -0.208445        1.000000        0.00070942
     138         -0.207835        1.000000        0.00038988
     139         -0.207190        1.000000        0.00065661
     140         -0.205548        1.000000        0.00058617
     141         -0.205121        1.000000        0.00031144
     142         -0.204615        1.000000        0.00037094
     143         -0.203711        1.000000        0.00041745
     144         -0.202834        1.000000        0.00055180
     145         -0.201045        1.000000        0.00089713
     146         -0.200600        1.000000        0.00034685
     147         -0.199635        1.000000        0.00091847
     148         -0.198271        1.000000        0.00051680
     149         -0.197085        1.000000        0.00059241
     150         -0.196401        1.000000        0.00036343
     151         -0.195116        1.000000        0.00033310
     152         -0.194414        1.000000        0.00035512
     153         -0.193292        1.000000        0.00076316
     154         -0.193184        1.000000        0.00022422
     155         -0.192383        1.000000        0.00049830
     156         -0.191778        1.000000        0.00044409
     157         -0.191345        1.000000        0.00135621
     158         -0.190811        1.000000        0.00032807
     159         -0.190305        1.000000        0.00053881
     160         -0.189914        1.000000        0.00022492
     161         -0.189033        1.000000        0.00027333
     162         -0.188683        1.000000        0.00024976
     163         -0.188345        1.000000        0.00015671
     164         -0.187957        1.000000        0.00037439
     165         -0.187523        1.000000        0.00009555
     166         -0.186977        1.000000        0.00035443
     167         -0.186570        1.000000        0.00033726
     168         -0.186287        1.000000        0.00027258
     169         -0.185865        1.000000        0.00015436
     170         -0.185582        1.000000        0.00008358
     171         -0.184603        1.000000        0.00012199
     172         -0.184008        1.000000        0.00023916
     173         -0.183373        1.000000        0.00011464
     174         -0.182468        1.000000        0.00035028
     175         -0.182264        1.000000        0.00011348
     176         -0.181326        1.000000        0.00016759
     177         -0.181144        1.000000        0.00010484
     178         -0.180279        1.000000        0.00007788
     179         -0.179929        1.000000        0.00007278
     180         -0.179411        1.000000        0.00013965
     181         -0.179136        1.000000        0.00009377
     182         -0.179077        1.000000        0.00012463
     183         -0.178203        1.000000        0.00007898
     184         -0.177798        1.000000        0.00007597
     185         -0.177537        1.000000        0.00009395
     186         -0.177241        1.000000        0.00013350
     187         -0.176734        1.000000        0.00023524
     188         -0.176533        1.000000        0.00020306
     189         -0.176102        1.000000        0.00009354
     190         -0.175916        1.000000        0.00005533
     191         -0.175761        1.000000        0.00006481
     192         -0.175516        1.000000        0.00002701
     193         -0.175452        1.000000        0.00005747
     194         -0.175275        1.000000        0.00002516
     195         -0.175113        0.000000        0.00008016
     196         -0.174809        0.000000        0.00011123
     197         -0.174737        0.000000        0.00008389
     198         -0.174541        0.000000        0.00009506
     199         -0.174166        0.000000        0.00010713
     200         -0.173349        0.000000        0.00007712
     201         -0.170847        0.000000        0.00003911
     202         -0.065841        0.000000        0.00030023
     203         -0.061202        0.000000        0.00032669
     204         -0.058948        0.000000        0.00031117
     205         -0.057409        0.000000        0.00032777
     206         -0.056062        0.000000        0.00089116
     207         -0.053007        0.000000        0.00033158
     208         -0.046802        0.000000        0.00014163
     209         -0.045212        0.000000        0.00013834
     210         -0.042964        0.000000        0.00025685
     211         -0.041101        0.000000        0.00017711
     212         -0.038597        0.000000        0.00009312
     213         -0.036575        0.000000        0.00008073
     214         -0.035557        0.000000        0.00005637
     215         -0.031881        0.000000        0.00022186
     216         -0.030381        0.000000        0.00012140
     217         -0.027694        0.000000        0.00007398
     218         -0.026818        0.000000        0.00018325
     219         -0.025434        0.000000        0.00018408
     220         -0.022254        0.000000        0.00010389
     221         -0.021553        0.000000        0.00011032
     222         -0.011896        0.000000        0.00011661
     223         -0.011063        0.000000        0.00037009
     224         -0.010109        0.000000        0.00014942
     225         -0.005117        0.000000        0.00012411
     226          0.079702        0.000000        0.01142889
     227          0.083693        0.000000        0.02293055
     228          0.086370        0.000000        0.00421643
     229          0.090445        0.000000        0.01597284
     230          0.092540        0.000000        0.01641172
     231          0.106965        0.000000        0.00339825
     232          0.109495        0.000000        0.00417581
     233          0.131480        0.000000        0.64965879
     234          0.149446        0.000000        0.65343014
     235          0.180762        0.000000        0.66538328
     236          0.203179        0.000000        0.64806194
     237          0.238701        0.000000        0.65054900
     238          0.269235        0.000000        0.66412455
     239          0.273704        0.000000        0.66307817
     240          0.281740        0.000000        0.66282564
     241          0.282402        0.000000        0.66472959
     242          0.285052        0.000000        0.66533672
     243          0.288384        0.000000        0.65192026
     244          0.293884        0.000000        0.64629591
     245          0.300393        0.000000        0.66341510
     246          0.304418        0.000000        0.66265726
     247          0.306483        0.000000        0.66230994
     248          0.308874        0.000000        0.64580606
     249          0.310022        0.000000        0.66380452
     250          0.317912        0.000000        0.63485029
     251          0.324265        0.000000        0.64162227
     252          0.349058        0.000000        0.63090915
     253          0.351913        0.000000        0.62867238
     254          0.440541        0.000000        0.58822466
     255          0.441966        0.000000        0.58776090
     256          0.445131        0.000000        0.59007159
     257          0.446988        0.000000        0.58491304
     258          0.450618        0.000000        0.58601258
     259          0.451481        0.000000        0.58469265
     260          0.456003        0.000000        0.58489274
     261          0.456927        0.000000        0.58502924
     262          0.458379        0.000000        0.58314043
     263          0.460084        0.000000        0.59094419
     264          0.465480        0.000000        0.57887218
     265          0.467793        0.000000        0.58067697
     266          0.469999        0.000000        0.58038317
     267          0.470929        0.000000        0.58256624
     268          0.550235        0.000000        0.55235965
     269          0.553919        0.000000        0.55351569
     270          0.555645        0.000000        0.55197824
     271          0.558784        0.000000        0.55298495
     272          0.562929        0.000000        0.55275987
     273          0.564324        0.000000        0.55269155
     274          0.565009        0.000000        0.55300761
