# Projected DOS for atomic kind I at iteration step i = 0, E(Fermi) =    -0.181129 a.u.
#     MO Eigenvalue [a.u.]      Occupation                 s                py                pz                px
       1         -0.978118        1.000000        0.00000304        0.00001444        0.00003000        0.00000562
       2         -0.957216        1.000000        0.00013783        0.00033467        0.00016050        0.00025737
       3         -0.951699        1.000000        0.00003622        0.00015883        0.00001792        0.00010066
       4         -0.945193        1.000000        0.00024887        0.00060939        0.00026867        0.00020099
       5         -0.944362        1.000000        0.00010344        0.00024685        0.00018568        0.00016559
       6         -0.943081        1.000000        0.00022159        0.00027152        0.00055622        0.00024619
       7         -0.935820        1.000000        0.00017204        0.00037017        0.00023665        0.00022399
       8         -0.710161        1.000000        0.00045166        0.00021257        0.00010136        0.00016539
       9         -0.703785        1.000000        0.00066784        0.00011000        0.00012231        0.00024918
      10         -0.691251        1.000000        0.00075295        0.00029137        0.00014028        0.00021284
      11         -0.690460        1.000000        0.00316131        0.00054778        0.00065847        0.00037386
      12         -0.689302        1.000000        0.00193794        0.00022144        0.00028126        0.00020622
      13         -0.683439        1.000000        0.00046677        0.00008407        0.00018736        0.00030714
      14         -0.681434        1.000000        0.00215022        0.00036398        0.00045057        0.00015294
      15         -0.638275        1.000000        0.94444408        0.00307083        0.00466734        0.01460943
      16         -0.617782        1.000000        0.95836457        0.00077766        0.00842174        0.00755572
      17         -0.609828        1.000000        0.00740383        0.00019160        0.00054562        0.00003844
      18         -0.601176        1.000000        0.79889009        0.00167938        0.00586844        0.01092341
      19         -0.597191        1.000000        0.79386634        0.00251693        0.00235370        0.00251048
      20         -0.594553        1.000000        0.79767506        0.00257441        0.00520654        0.00508609
      21         -0.593161        1.000000        0.70080955        0.00569023        0.00158403        0.00120255
      22         -0.591487        1.000000        0.57701735        0.00545356        0.00170015        0.00090057
      23         -0.588367        1.000000        0.69972368        0.00226048        0.00354582        0.00535461
      24         -0.587300        1.000000        0.79813359        0.00466114        0.00523692        0.00306749
      25         -0.585960        1.000000        0.61242262        0.00140780        0.00131543        0.00430766
      26         -0.585460        1.000000        0.66124302        0.00259872        0.00323738        0.00442931
      27         -0.584215        1.000000        0.21210086        0.00076708        0.00105152        0.00176946
      28         -0.583150        1.000000        0.79756557        0.00212050        0.00255665        0.00429495
      29         -0.582694        1.000000        0.89745777        0.00294844        0.00259885        0.00647695
      30         -0.581282        1.000000        0.20726841        0.00238543        0.00049931        0.00194041
      31         -0.579705        1.000000        0.98143757        0.00048772        0.00642797        0.00292074
      32         -0.577781        1.000000        0.74815233        0.00084407        0.00265116        0.00164845
      33         -0.576881        1.000000        0.74959957        0.00124332        0.00451464        0.00210555
      34         -0.572440        1.000000        0.62136828        0.00383329        0.00255060        0.00160073
      35         -0.572187        1.000000        0.81978528        0.00217269        0.00141026        0.00419862
      36         -0.571917        1.000000        0.90145800        0.00096808        0.00087245        0.00236639
      37         -0.571008        1.000000        0.52259080        0.00190627        0.00263574        0.00191744
      38         -0.569756        1.000000        0.85360999        0.00115865        0.00190468        0.00303647
      39         -0.569282        1.000000        0.57412736        0.00152166        0.00131512        0.00084024
      40         -0.568165        1.000000        0.21984899        0.00284185        0.00117737        0.00151812
      41         -0.566686        1.000000        0.61083697        0.00169200        0.00316206        0.00164247
      42         -0.566398        1.000000        0.55269848        0.00097839        0.00272867        0.00232702
      43         -0.565923        1.000000        0.91174075        0.00082949        0.00320210        0.00057117
      44         -0.564620        1.000000        0.76333838        0.00256834        0.00262591        0.00159746
      45         -0.563757        1.000000        0.46131351        0.00207618        0.00193643        0.00091010
      46         -0.563626        1.000000        0.30132158        0.00207164        0.00157412        0.00102820
      47         -0.562750        1.000000        0.62987591        0.00148960        0.00083939        0.00142427
      48         -0.561864        1.000000        0.71862069        0.00085360        0.00045812        0.00049229
      49         -0.561532        1.000000        0.95313603        0.00056826        0.00037658        0.00150679
      50         -0.560206        1.000000        0.84781103        0.00106454        0.00119720        0.00127493
      51         -0.559538        1.000000        0.42933890        0.00105018        0.00210889        0.00111553
      52         -0.559248        1.000000        0.87375665        0.00037631        0.00152368        0.00054053
      53         -0.559086        1.000000        0.80119820        0.00113447        0.00080179        0.00068092
      54         -0.558253        1.000000        0.85496374        0.00213186        0.00082084        0.00066859
      55         -0.558141        1.000000        0.96326957        0.00080370        0.00010642        0.00030569
      56         -0.557805        1.000000        0.41506500        0.00051483        0.00442966        0.00100188
      57         -0.556491        1.000000        0.96907979        0.00186832        0.00028490        0.00024828
      58         -0.555619        1.000000        0.85672911        0.00090551        0.00061097        0.00068230
      59         -0.554528        1.000000        0.83498135        0.00049801        0.00057747        0.00024501
      60         -0.554277        1.000000        0.80651484        0.00123072        0.00049103        0.00070890
      61         -0.553913        1.000000        0.46073072        0.00160874        0.00094702        0.00119694
      62         -0.552062        1.000000        0.52893177        0.00020080        0.00053230        0.00070133
      63         -0.550316        1.000000        0.81302854        0.00060312        0.00034973        0.00063690
      64         -0.545093        1.000000        0.23417015        0.00219467        0.00105359        0.00153260
      65         -0.498560        1.000000        0.00132312        0.00062734        0.00020325        0.00053241
      66         -0.485657        1.000000        0.00286427        0.00072110        0.00045024        0.00064172
      67         -0.475389        1.000000        0.00225821        0.00096181        0.00066136        0.00078758
      68         -0.471059        1.000000        0.00428125        0.00337575        0.00393946        0.00108842
      69         -0.469249        1.000000        0.00202366        0.00087895        0.00240886        0.00203331
      70         -0.466463        1.000000        0.00247470        0.00091681        0.00125265        0.00134857
      71         -0.461442        1.000000        0.00343543        0.00283867        0.00230792        0.00149189
      72         -0.459582        1.000000        0.10948491        0.04644275        0.04664287        0.04111379
      73         -0.456930        1.000000        0.11275639        0.03980749        0.04319659        0.02858641
      74         -0.455126        1.000000        0.12099238        0.03629749        0.03651738        0.04135416
      75         -0.454235        1.000000        0.13353940        0.03215893        0.03980229        0.04045651
      76         -0.451171        1.000000        0.13485389        0.02722733        0.03769909        0.03433687
      77         -0.449480        1.000000        0.12492871        0.03120978        0.03214632        0.02905104
      78         -0.449136        1.000000        0.12435194        0.02956703        0.04040368        0.02970410
      79         -0.444699        1.000000        0.13312762        0.02204055        0.02793857        0.02888788
      80         -0.421210        1.000000        0.00018855        0.00029135        0.00065438        0.00044842
      81         -0.420000        1.000000        0.00101547        0.00142644        0.00101179        0.00109397
      82         -0.417450        1.000000        0.00130194        0.00085839        0.00064362        0.00129627
      83         -0.416681        1.000000        0.00193919        0.00220713        0.00089352        0.00362449
      84         -0.409569        1.000000        0.00231367        0.00200123        0.00585973        0.00281748
      85         -0.406468        1.000000        0.00193549        0.00332953        0.00355124        0.00302408
      86         -0.405531        1.000000        0.00101791        0.00153347        0.00059205        0.00170049
      87         -0.404894        1.000000        0.00079833        0.00147206        0.00130158        0.00096111
      88         -0.403779        1.000000        0.00111008        0.00255856        0.00173068        0.00188796
      89         -0.402977        1.000000        0.00133869        0.00322946        0.00082162        0.00073507
      90         -0.400026        1.000000        0.00070765        0.00043635        0.00175387        0.00111736
      91         -0.399109        1.000000        0.00096952        0.00184891        0.00262712        0.00078848
      92         -0.395901        1.000000        0.00177137        0.00415656        0.00080288        0.00162200
      93         -0.395709        1.000000        0.00040242        0.00041991        0.00126618        0.00176539
      94         -0.317888        1.000000        0.02595991        0.01018667        0.23410753        0.69076686
      95         -0.292305        1.000000        0.02050428        0.00866759        0.48735518        0.42979434
      96         -0.277186        1.000000        0.01027886        0.02369664        0.59281973        0.21149328
      97         -0.273040        1.000000        0.01097947        0.32422891        0.26209701        0.11153778
      98         -0.270432        1.000000        0.01071336        0.55606736        0.12269200        0.12361478
      99         -0.269931        1.000000        0.01148186        0.26596265        0.26382276        0.19428224
     100         -0.266801        1.000000        0.01048129        0.15525944        0.07626924        0.49229321
     101         -0.264997        1.000000        0.00871362        0.32147781        0.26468394        0.18775433
     102         -0.263561        1.000000        0.01061340        0.51721880        0.07190191        0.18009734
     103         -0.261772        1.000000        0.00930789        0.27881524        0.17655214        0.33074478
     104         -0.261364        1.000000        0.00792799        0.08792336        0.33077628        0.36285576
     105         -0.257984        1.000000        0.01058997        0.17964874        0.41443621        0.13059246
     106         -0.255977        1.000000        0.01070944        0.16001967        0.38850679        0.17697838
     107         -0.253858        1.000000        0.01146780        0.29251528        0.21053110        0.27043079
     108         -0.251452        1.000000        0.01726849        0.16247189        0.24333287        0.35176410
     109         -0.249760        1.000000        0.01253698        0.38117693        0.19738272        0.17533102
     110         -0.244673        1.000000        0.01677389        0.19204985        0.27948190        0.28562536
     111         -0.244293        1.000000        0.01431608        0.17754426        0.30589014        0.28655855
     112         -0.242624        1.000000        0.01570361        0.22411092        0.33298099        0.19957956
     113         -0.242082        1.000000        0.01304158        0.18992266        0.40846328        0.16911444
     114         -0.240278        1.000000        0.01600674        0.23098811        0.21275439        0.31609875
     115         -0.238005        1.000000        0.00548941        0.31543657        0.22769280        0.32943891
     116         -0.237513        1.000000        0.00752158        0.68284108        0.09909558        0.10230170
     117         -0.236272        1.000000        0.01433153        0.37379505        0.20536377        0.19496185
     118         -0.234986        1.000000        0.00936728        0.27400487        0.20787083        0.29769331
     119         -0.232750        1.000000        0.00918354        0.33909501        0.18033695        0.30064100
     120         -0.230430        1.000000        0.00753933        0.50610951        0.24744261        0.11681903
     121         -0.228155        1.000000        0.00523043        0.46360992        0.28800513        0.14578980
     122         -0.227232        1.000000        0.00797636        0.17694031        0.47653238        0.27705084
     123         -0.225667        1.000000        0.00642861        0.27753125        0.28372773        0.30150367
     124         -0.224683        1.000000        0.00734496        0.29758969        0.35518864        0.20605234
     125         -0.222544        1.000000        0.00572684        0.30145873        0.29559569        0.31468847
     126         -0.219976        1.000000        0.00284646        0.27999872        0.33081919        0.31382841
     127         -0.219145        1.000000        0.00281362        0.23000342        0.49742149        0.20312345
     128         -0.217831        1.000000        0.00350449        0.38406670        0.18544331        0.36751064
     129         -0.216668        1.000000        0.00373299        0.26501297        0.27178187        0.39259021
     130         -0.215307        1.000000        0.00214268        0.34720570        0.26404409        0.35116886
     131         -0.213992        1.000000        0.00270941        0.34047565        0.21756240        0.39878076
     132         -0.213334        1.000000        0.00104587        0.58926751        0.14393372        0.24543685
     133         -0.212561        1.000000        0.00188030        0.49237699        0.12730474        0.35713942
     134         -0.210815        1.000000        0.00150564        0.36180358        0.31999546        0.28312055
     135         -0.209847        1.000000        0.00175059        0.30953461        0.32298868        0.33506285
     136         -0.208753        1.000000        0.00126615        0.29231124        0.45622239        0.23771409
     137         -0.208084        1.000000        0.00104546        0.31694421        0.35214266        0.30904114
     138         -0.207703        1.000000        0.00107941        0.22823493        0.29173970        0.46283158
     139         -0.207149        1.000000        0.00112812        0.30179978        0.48334133        0.19507343
     140         -0.206035        1.000000        0.00145795        0.37700891        0.16939640        0.43446966
     141         -0.205625        1.000000        0.00108550        0.17191796        0.40866379        0.40016827
     142         -0.204740        1.000000        0.00099973        0.32489762        0.44084488        0.21442426
     143         -0.202885        1.000000        0.00152024        0.51344593        0.31463801        0.15272380
     144         -0.202410        1.000000        0.00063859        0.34525639        0.31109655        0.33111565
     145         -0.202273        1.000000        0.00095888        0.39665180        0.39998165        0.17940720
     146         -0.201852        1.000000        0.00098425        0.74039567        0.13905200        0.10774432
     147         -0.201004        1.000000        0.00092016        0.29966335        0.35703851        0.32602616
     148         -0.200557        1.000000        0.00070132        0.22645381        0.43572822        0.32155756
     149         -0.199419        1.000000        0.00119272        0.44095490        0.38430774        0.14646755
     150         -0.198582        1.000000        0.00107921        0.29469833        0.40276940        0.28121729
     151         -0.198252        1.000000        0.00170558        0.36887989        0.35755482        0.24393325
     152         -0.196475        1.000000        0.00114328        0.31685550        0.37270561        0.28450222
     153         -0.195929        1.000000        0.00045195        0.27308493        0.46786926        0.24455126
     154         -0.195504        1.000000        0.00102571        0.42314418        0.29925060        0.26179948
     155         -0.195081        1.000000        0.00088701        0.50144682        0.24305734        0.24870740
     156         -0.194179        1.000000        0.00109376        0.35197344        0.31365098        0.31998934
     157         -0.193723        1.000000        0.00093396        0.42463686        0.38604783        0.16942861
     158         -0.192845        1.000000        0.00106386        0.39284150        0.30253002        0.28335688
     159         -0.192498        1.000000        0.00094665        0.33245885        0.29129337        0.36443979
     160         -0.192168        1.000000        0.00103326        0.32457631        0.34008000        0.30831039
     161         -0.191626        1.000000        0.00126805        0.46698679        0.18460607        0.31878940
     162         -0.191174        1.000000        0.00096556        0.43954808        0.31586017        0.21684691
     163         -0.190986        1.000000        0.00060476        0.45039671        0.30395239        0.22363396
     164         -0.190765        1.000000        0.00068684        0.46566780        0.25458157        0.26845899
     165         -0.190573        1.000000        0.00066934        0.38220166        0.25675328        0.34827043
     166         -0.190312        1.000000        0.00110982        0.35095428        0.17653150        0.44739899
     167         -0.190113        1.000000        0.00080418        0.29138239        0.23376856        0.44893761
     168         -0.189557        1.000000        0.00100738        0.36797044        0.13344674        0.48654744
     169         -0.188826        1.000000        0.00131043        0.34780357        0.32898358        0.29609759
     170         -0.188335        1.000000        0.00059507        0.32005930        0.32822084        0.34064487
     171         -0.188247        1.000000        0.00042665        0.28863295        0.33459176        0.36422512
     172         -0.187325        1.000000        0.00075857        0.20674441        0.41414066        0.36031889
     173         -0.187148        1.000000        0.00030395        0.07933798        0.32737563        0.58931411
     174         -0.186609        1.000000        0.00048580        0.30575463        0.31774143        0.36264308
     175         -0.186087        1.000000        0.00059717        0.26150523        0.29610952        0.42908816
     176         -0.185721        1.000000        0.00035186        0.16921421        0.19855131        0.60386477
     177         -0.185421        1.000000        0.00069834        0.20227924        0.25228870        0.52043383
     178         -0.184992        1.000000        0.00069753        0.21539146        0.53170098        0.21921268
     179         -0.184593        1.000000        0.00048815        0.34824871        0.35800309        0.27824755
     180         -0.184407        1.000000        0.00096652        0.34369192        0.26506785        0.37585911
     181         -0.184340        1.000000        0.00044817        0.27903313        0.30179486        0.37825193
     182         -0.184097        1.000000        0.00046769        0.29271139        0.28700309        0.39842970
     183         -0.183910        1.000000        0.00047794        0.26049900        0.27797458        0.45062575
     184         -0.183693        1.000000        0.00052951        0.28740027        0.42951945        0.26917711
     185         -0.183450        1.000000        0.00063505        0.32871710        0.35599472        0.29598253
     186         -0.183287        1.000000        0.00024232        0.36553814        0.43259488        0.18711129
     187         -0.183011        1.000000        0.00047770        0.29165448        0.33841549        0.34071305
     188         -0.182670        1.000000        0.00030686        0.27032347        0.33429988        0.35889998
     189         -0.182290        1.000000        0.00080093        0.24580522        0.39455592        0.31542802
     190         -0.181836        1.000000        0.00032572        0.25080362        0.23472132        0.50168564
     191         -0.181562        1.000000        0.00068760        0.19733624        0.53588183        0.26121592
     192         -0.181432        1.000000        0.00037529        0.43626363        0.21231034        0.34085132
     193         -0.181261        1.000000        0.00030344        0.33198085        0.25087619        0.39774755
     194         -0.181161        1.000000        0.00019449        0.33208496        0.40434102        0.25063976
     195         -0.181129        1.000000        0.00035720        0.42905706        0.28586352        0.26591971
     196         -0.180952        0.000000        0.00035148        0.28093681        0.29746739        0.40970072
     197         -0.180914        0.000000        0.00252594        0.17942427        0.48749836        0.31864343
     198         -0.180418        0.000000        0.00104673        0.25799554        0.40235423        0.30498300
     199         -0.180072        0.000000        0.00187671        0.17637369        0.40633732        0.40038168
     200         -0.179763        0.000000        0.00047871        0.21006161        0.40039191        0.35590095
     201         -0.164403        0.000000        0.00566256        0.01449934        0.22252146        0.75128168
     202         -0.073371        0.000000        0.01906984        0.13821470        0.05914100        0.03694615
     203         -0.069735        0.000000        0.02172068        0.03091108        0.05135521        0.15756719
     204         -0.065354        0.000000        0.03170090        0.12141170        0.03249710        0.06124236
     205         -0.062755        0.000000        0.01889452        0.14591319        0.03764414        0.07383134
     206         -0.058509        0.000000        0.02263823        0.13673909        0.05543717        0.05747973
     207         -0.056254        0.000000        0.02294244        0.05572574        0.15056695        0.05070428
     208         -0.055483        0.000000        0.01988862        0.11001481        0.08458342        0.06797949
     209         -0.053571        0.000000        0.02266902        0.05951038        0.11444504        0.08610006
     210         -0.049083        0.000000        0.02348997        0.06650782        0.04802215        0.14453387
     211         -0.047215        0.000000        0.02308048        0.04512206        0.11170145        0.11643916
     212         -0.045134        0.000000        0.02306185        0.07024179        0.07437480        0.11799589
     213         -0.043896        0.000000        0.02364306        0.03754233        0.11702147        0.11719442
     214         -0.043659        0.000000        0.02035714        0.06448023        0.07166615        0.13375586
     215         -0.041412        0.000000        0.01938658        0.13792218        0.08366660        0.04862157
     216         -0.037571        0.000000        0.01871341        0.03967814        0.03541020        0.20031402
     217         -0.031990        0.000000        0.01501673        0.02748159        0.21077548        0.04305920
     218         -0.029922        0.000000        0.01686790        0.04208094        0.18305780        0.05939737
     219         -0.027291        0.000000        0.01365974        0.15942106        0.10867859        0.02324256
     220         -0.023942        0.000000        0.01227193        0.15292397        0.10978948        0.03300638
     221         -0.021262        0.000000        0.01375044        0.25924188        0.00856484        0.02794221
     222         -0.019884        0.000000        0.01108614        0.02534720        0.04975601        0.22363506
     223         -0.018448        0.000000        0.01306442        0.10131439        0.11194806        0.08252829
     224         -0.011585        0.000000        0.01360502        0.10854304        0.05935439        0.13098647
     225         -0.008013        0.000000        0.01454199        0.02636691        0.26314088        0.01341358
     226          0.084663        0.000000        0.00001594        0.00040603        0.00018564        0.00019714
     227          0.090399        0.000000        0.00004357        0.00059664        0.00067448        0.00063215
     228          0.100035        0.000000        0.00010254        0.00110254        0.00158722        0.00027593
     229          0.102962        0.000000        0.00003805        0.00077419        0.00051097        0.00063401
     230          0.104302        0.000000        0.00008226        0.00063554        0.00094638        0.00118424
     231          0.105277        0.000000        0.00006179        0.00045302        0.00068603        0.00114456
     232          0.107696        0.000000        0.00009078        0.00102105        0.00098144        0.00036151
     233          0.166169        0.000000        0.00000269        0.00004283        0.00010072        0.00004482
     234          0.170891        0.000000        0.00000715        0.00021317        0.00004786        0.00009896
     235          0.203713        0.000000        0.00004478        0.00051836        0.00034391        0.00009002
     236          0.233408        0.000000        0.00000375        0.00008175        0.00014335        0.00009423
     237          0.252341        0.000000        0.00008307        0.00009088        0.00330513        0.00080751
     238          0.282159        0.000000        0.00058246        0.00500289        0.00019381        0.00638915
     239          0.283742        0.000000        0.00005195        0.00063300        0.00201443        0.00086716
     240          0.288483        0.000000        0.00062752        0.00517742        0.00365499        0.00370208
     241          0.291440        0.000000        0.00101719        0.00460738        0.00084620        0.00530535
     242          0.292804        0.000000        0.00025659        0.00476992        0.00033081        0.00270501
     243          0.294466        0.000000        0.00085258        0.01218471        0.00078217        0.00191592
     244          0.295018        0.000000        0.00038959        0.00489378        0.00499265        0.00295685
     245          0.298916        0.000000        0.00033420        0.00161500        0.00337574        0.00124234
     246          0.301337        0.000000        0.00078804        0.00134521        0.00856626        0.00512717
     247          0.306724        0.000000        0.00029050        0.00439937        0.00285929        0.00198371
     248          0.323238        0.000000        0.00067322        0.00612546        0.00051156        0.00713301
     249          0.325508        0.000000        0.00040359        0.00614113        0.00036539        0.00420154
     250          0.327862        0.000000        0.00056860        0.00491590        0.00410140        0.00224263
     251          0.336428        0.000000        0.00101058        0.01058738        0.00311443        0.00439102
     252          0.337530        0.000000        0.00107005        0.00247746        0.00892874        0.00544657
     253          0.344633        0.000000        0.00060585        0.00673802        0.00518419        0.00460328
     254          0.442025        0.000000        0.00003235        0.00014842        0.00012488        0.00033708
     255          0.447559        0.000000        0.00003639        0.00027781        0.00019354        0.00034126
     256          0.450183        0.000000        0.00002540        0.00021025        0.00002698        0.00002059
     257          0.451281        0.000000        0.00003902        0.00047682        0.00033841        0.00052558
     258          0.459337        0.000000        0.00005753        0.00037061        0.00084887        0.00042373
     259          0.460539        0.000000        0.00005560        0.00046912        0.00006021        0.00017207