# Projected DOS for atomic kind N at iteration step i = 0, E(Fermi) =    -0.181075 a.u.
#     MO Eigenvalue [a.u.]      Occupation                 s                py                pz                px
       1         -0.977951        1.000000        0.62539865        0.00003389        0.00000014        0.00015226
       2         -0.957034        1.000000        0.61549408        0.00028338        0.00000039        0.00001825
       3         -0.951529        1.000000        0.62012649        0.00002665        0.00018070        0.00022548
       4         -0.945007        1.000000        0.61228776        0.00007208        0.00000484        0.00018132
       5         -0.944161        1.000000        0.61630451        0.00003954        0.00015040        0.00009884
       6         -0.942879        1.000000        0.61023934        0.00016136        0.00002446        0.00000070
       7         -0.935631        1.000000        0.61285758        0.00007545        0.00004540        0.00007220
       8         -0.709981        1.000000        0.01437199        0.00916098        0.00755836        0.21013974
       9         -0.703603        1.000000        0.02100718        0.00086683        0.08711699        0.10545306
      10         -0.691062        1.000000        0.01892513        0.02184871        0.07845483        0.10644935
      11         -0.690246        1.000000        0.01794209        0.02233760        0.00458962        0.16292118
      12         -0.689106        1.000000        0.01572310        0.00576262        0.02534054        0.16631521
      13         -0.683233        1.000000        0.01717700        0.07727539        0.06944712        0.05395410
      14         -0.681212        1.000000        0.01625070        0.00000264        0.05867908        0.13735448
      15         -0.638286        1.000000        0.00058839        0.00683218        0.00082387        0.00009561
      16         -0.617270        1.000000        0.00001056        0.00088501        0.00030610        0.00002378
      17         -0.609637        1.000000        0.00000402        0.09335387        0.48366296        0.03346437
      18         -0.600739        1.000000        0.00068109        0.04503707        0.03225131        0.00527543
      19         -0.596706        1.000000        0.00076648        0.01616816        0.03973699        0.00514819
      20         -0.593848        1.000000        0.00040128        0.02643689        0.03036635        0.00541246
      21         -0.592710        1.000000        0.00057618        0.09216082        0.03053935        0.00942508
      22         -0.590754        1.000000        0.00098155        0.10515705        0.09665158        0.03994078
      23         -0.587624        1.000000        0.00068261        0.04813898        0.05268139        0.04935907
      24         -0.585992        1.000000        0.00030714        0.02364904        0.03452152        0.00938303
      25         -0.585350        1.000000        0.00096863        0.12255928        0.05437066        0.04941832
      26         -0.584531        1.000000        0.00039128        0.14617268        0.04919409        0.02329891
      27         -0.583802        1.000000        0.00018540        0.30017181        0.06821715        0.00403649
      28         -0.582760        1.000000        0.00021469        0.04927132        0.01946331        0.00230162
      29         -0.581785        1.000000        0.00004577        0.01078608        0.00410215        0.00101543
      30         -0.581113        1.000000        0.00009403        0.41198810        0.03920274        0.01660945
      31         -0.579392        1.000000        0.00000417        0.00091651        0.00043335        0.00050531
      32         -0.577428        1.000000        0.00014451        0.08005367        0.03795259        0.01071669
      33         -0.576090        1.000000        0.00024528        0.02182228        0.05979563        0.00859616
      34         -0.571650        1.000000        0.00036817        0.15061221        0.01284119        0.03260407
      35         -0.571547        1.000000        0.00021671        0.05604799        0.02404026        0.01733554
      36         -0.570937        1.000000        0.00021634        0.05971871        0.05173174        0.02194397
      37         -0.570568        1.000000        0.00052279        0.05743214        0.06654123        0.04694642
      38         -0.569564        1.000000        0.00024746        0.00776534        0.02050481        0.02193601
      39         -0.568573        1.000000        0.00061182        0.02695315        0.11468698        0.08780551
      40         -0.567804        1.000000        0.00035587        0.14571523        0.26464018        0.02989831
      41         -0.566329        1.000000        0.00045309        0.04389665        0.07311709        0.10671207
      42         -0.565800        1.000000        0.00014630        0.09592326        0.08085713        0.01346536
      43         -0.564925        1.000000        0.00005066        0.05094604        0.08241130        0.00998805
      44         -0.563551        1.000000        0.00012541        0.09275889        0.02825059        0.11492666
      45         -0.563320        1.000000        0.00022212        0.10026310        0.04200085        0.13405583
      46         -0.563059        1.000000        0.00018534        0.12792251        0.11946340        0.05345250
      47         -0.561685        1.000000        0.00019263        0.05627307        0.03869502        0.01137564
      48         -0.561518        1.000000        0.00008241        0.04377798        0.03369987        0.02451455
      49         -0.561286        1.000000        0.00008779        0.01232773        0.02371964        0.00364288
      50         -0.560776        1.000000        0.00000460        0.01730178        0.02029579        0.01134793
      51         -0.559543        1.000000        0.00008564        0.10598515        0.03800075        0.03578530
      52         -0.559304        1.000000        0.00003465        0.02250275        0.01398627        0.03407220
      53         -0.559098        1.000000        0.00030874        0.24721722        0.03124054        0.04249847
      54         -0.557759        1.000000        0.00001089        0.00915551        0.00178145        0.00110594
      55         -0.557477        1.000000        0.00016643        0.02262344        0.17392687        0.00903712
      56         -0.557271        1.000000        0.00019498        0.01824821        0.18563225        0.01095011
      57         -0.555623        1.000000        0.00001618        0.00215334        0.00525764        0.00744233
      58         -0.555587        1.000000        0.00010998        0.01735922        0.04594105        0.06392670
      59         -0.554457        1.000000        0.00003494        0.03268532        0.04930097        0.01799034
      60         -0.553599        1.000000        0.00026551        0.14963972        0.14798066        0.02544936
      61         -0.553209        1.000000        0.00004169        0.02691377        0.02970001        0.02232176
      62         -0.551069        1.000000        0.00008159        0.03517671        0.17696641        0.05411282
      63         -0.548570        1.000000        0.00035190        0.03031958        0.00183704        0.04489543
      64         -0.544555        1.000000        0.00027548        0.31798799        0.10013600        0.03261994
      65         -0.498397        1.000000        0.00935399        0.00199750        0.02042536        0.39791646
      66         -0.485477        1.000000        0.00620902        0.01791001        0.18229888        0.24142075
      67         -0.475217        1.000000        0.00645341        0.05511224        0.23753944        0.14469866
      68         -0.470863        1.000000        0.00923140        0.01930051        0.02722213        0.38148634
      69         -0.469050        1.000000        0.00847589        0.03972139        0.01348130        0.38383532
      70         -0.466261        1.000000        0.00789783        0.18433866        0.12220759        0.12903547
      71         -0.461230        1.000000        0.00943194        0.00012001        0.11230371        0.31463886
      72         -0.459075        1.000000        0.00002636        0.00023938        0.00034782        0.00148249
      73         -0.456368        1.000000        0.00001698        0.00094869        0.00031847        0.00191069
      74         -0.454455        1.000000        0.00000303        0.00012194        0.00015673        0.00026538
      75         -0.453299        1.000000        0.00000247        0.00007450        0.00064202        0.00144924
      76         -0.450203        1.000000        0.00001103        0.00109801        0.00080770        0.00241534
      77         -0.448990        1.000000        0.00001099        0.00029974        0.00023261        0.00040184
      78         -0.448832        1.000000        0.00000535        0.00044770        0.00084696        0.00374657
      79         -0.444225        1.000000        0.00001423        0.00021471        0.00029266        0.00296048
      80         -0.421038        1.000000        0.00007042        0.01710746        0.01764849        0.00780678
      81         -0.419829        1.000000        0.00000554        0.00308706        0.02256154        0.00083863
      82         -0.417258        1.000000        0.00002318        0.02747286        0.00827878        0.00909934
      83         -0.416513        1.000000        0.00002186        0.03350072        0.00530296        0.00050134
      84         -0.409354        1.000000        0.00000868        0.00371828        0.03735662        0.00008790
      85         -0.406255        1.000000        0.00001817        0.03382532        0.00434640        0.00444590
      86         -0.405333        1.000000        0.00003246        0.01817233        0.01662370        0.00334150
      87         -0.404703        1.000000        0.00000109        0.00894106        0.02429244        0.00307536
      88         -0.403581        1.000000        0.00010293        0.01274761        0.00676132        0.01941557
      89         -0.402783        1.000000        0.00002703        0.02705243        0.00871324        0.00265217
      90         -0.399828        1.000000        0.00000634        0.00099387        0.01096560        0.02911297
      91         -0.398889        1.000000        0.00000162        0.00291788        0.02454816        0.01174510
      92         -0.395672        1.000000        0.00000462        0.03629811        0.00307194        0.00105172
      93         -0.395501        1.000000        0.00000623        0.01942478        0.01266520        0.00259670
      94         -0.317761        1.000000        0.00021236        0.00080876        0.00004708        0.00013453
      95         -0.291801        1.000000        0.00003069        0.00012076        0.00004086        0.00003731
      96         -0.276861        1.000000        0.00023341        0.00122696        0.00062307        0.00029357
      97         -0.272585        1.000000        0.00009036        0.00032352        0.00046635        0.00005481
      98         -0.269629        1.000000        0.00064262        0.00183258        0.00075697        0.00046472
      99         -0.269005        1.000000        0.00031659        0.00104081        0.00080609        0.00017075
     100         -0.265303        1.000000        0.00058332        0.00070712        0.00054238        0.00014630
     101         -0.264390        1.000000        0.00039020        0.00060566        0.00003436        0.00031692
     102         -0.262693        1.000000        0.00067880        0.00125799        0.00030344        0.00059151
     103         -0.260779        1.000000        0.00071275        0.00062690        0.00027971        0.00067834
     104         -0.260450        1.000000        0.00030735        0.00087634        0.00016000        0.00023483
     105         -0.257278        1.000000        0.00018843        0.00082484        0.00040939        0.00014426
     106         -0.255112        1.000000        0.00026586        0.00145247        0.00013277        0.00026031
     107         -0.252848        1.000000        0.00112703        0.00181887        0.00018697        0.00064336
     108         -0.250313        1.000000        0.00023161        0.00045820        0.00062774        0.00026136
     109         -0.248301        1.000000        0.00098171        0.00031982        0.00034947        0.00056225
     110         -0.243840        1.000000        0.00065124        0.00041612        0.00036900        0.00105687
     111         -0.243259        1.000000        0.00038921        0.00088577        0.00151011        0.00040064
     112         -0.241763        1.000000        0.00078505        0.00224219        0.00056276        0.00099338
     113         -0.240944        1.000000        0.00078257        0.00055819        0.00117577        0.00045547
     114         -0.239527        1.000000        0.00080762        0.00053458        0.00074694        0.00053668
     115         -0.237608        1.000000        0.00393011        0.00105744        0.00119366        0.00243654
     116         -0.236923        1.000000        0.00085254        0.00092999        0.00026392        0.00086828
     117         -0.235368        1.000000        0.00044634        0.00202760        0.00122135        0.00042554
     118         -0.234326        1.000000        0.00049016        0.00144694        0.00212292        0.00087273
     119         -0.232118        1.000000        0.00040398        0.00059148        0.00166472        0.00045696
     120         -0.229766        1.000000        0.00179665        0.00350814        0.00131735        0.00038209
     121         -0.227707        1.000000        0.00138676        0.00350432        0.00210445        0.00108907
     122         -0.226699        1.000000        0.00177002        0.00225946        0.00052085        0.00054141
     123         -0.224682        1.000000        0.00090789        0.00223234        0.00282489        0.00058553
     124         -0.223780        1.000000        0.00113830        0.00038636        0.00195147        0.00076321
     125         -0.221575        1.000000        0.00023338        0.00078356        0.00023904        0.00046027
     126         -0.219499        1.000000        0.00208415        0.00208697        0.00052235        0.00061144
     127         -0.218308        1.000000        0.00063939        0.00014324        0.00400985        0.00037994
     128         -0.216826        1.000000        0.00144690        0.00630150        0.00195796        0.00173190
     129         -0.215461        1.000000        0.00077981        0.00139428        0.00164338        0.00044358
     130         -0.214395        1.000000        0.00160925        0.00147854        0.00169579        0.00439289
     131         -0.213323        1.000000        0.00104332        0.00191265        0.00039278        0.00154676
     132         -0.213111        1.000000        0.00038944        0.00046581        0.00209810        0.00100169
     133         -0.211772        1.000000        0.00033469        0.00010143        0.00282919        0.00047521
     134         -0.210341        1.000000        0.00053941        0.00079392        0.00189285        0.00107765
     135         -0.208967        1.000000        0.00038372        0.00147613        0.00080489        0.00053004
     136         -0.208219        1.000000        0.00079610        0.00086967        0.00147900        0.00081053
     137         -0.207756        1.000000        0.00016966        0.00062843        0.00079020        0.00011968
     138         -0.206748        1.000000        0.00037984        0.00041318        0.00105939        0.00074724
     139         -0.206531        1.000000        0.00021073        0.00083070        0.00129454        0.00044985
     140         -0.205282        1.000000        0.00050063        0.00075605        0.00153423        0.00023323
     141         -0.204990        1.000000        0.00016843        0.00040439        0.00055475        0.00029356
     142         -0.203746        1.000000        0.00027991        0.00124272        0.00005072        0.00037465
     143         -0.202228        1.000000        0.00058479        0.00150683        0.00107060        0.00086823
     144         -0.201767        1.000000        0.00013066        0.00026611        0.00042308        0.00039381
     145         -0.201568        1.000000        0.00092178        0.00493110        0.00063286        0.00212940
     146         -0.201156        1.000000        0.00021831        0.00021370        0.00064985        0.00030518
     147         -0.200150        1.000000        0.00024099        0.00175027        0.00005973        0.00032067
     148         -0.199656        1.000000        0.00011077        0.00035596        0.00056115        0.00021406
     149         -0.198864        1.000000        0.00039034        0.00118239        0.00007508        0.00051606
     150         -0.197961        1.000000        0.00028035        0.00018319        0.00028793        0.00051944
     151         -0.197225        1.000000        0.00052584        0.00092060        0.00053930        0.00057071
     152         -0.196665        1.000000        0.00036797        0.00021321        0.00067129        0.00039973
     153         -0.196484        1.000000        0.00020705        0.00009405        0.00029931        0.00022333
     154         -0.195232        1.000000        0.00012328        0.00025192        0.00032487        0.00048446
     155         -0.195073        1.000000        0.00006415        0.00024588        0.00020449        0.00029342
     156         -0.194494        1.000000        0.00014656        0.00020518        0.00028712        0.00039350
     157         -0.193668        1.000000        0.00020405        0.00264742        0.00041688        0.00031065
     158         -0.193208        1.000000        0.00002503        0.00007562        0.00013175        0.00002572
     159         -0.192823        1.000000        0.00004068        0.00037637        0.00012262        0.00010384
     160         -0.191620        1.000000        0.00057414        0.00043123        0.00027134        0.00082130
     161         -0.191486        1.000000        0.00027323        0.00041929        0.00014895        0.00018710
     162         -0.191196        1.000000        0.00020910        0.00061657        0.00017297        0.00032836
     163         -0.190939        1.000000        0.00046964        0.00066459        0.00018352        0.00054264
     164         -0.190326        1.000000        0.00018757        0.00045977        0.00032377        0.00022033
     165         -0.190078        1.000000        0.00025991        0.00036747        0.00012278        0.00017338
     166         -0.189863        1.000000        0.00036696        0.00117340        0.00015154        0.00042251
     167         -0.189558        1.000000        0.00006563        0.00065322        0.00015804        0.00005336
     168         -0.188974        1.000000        0.00008997        0.00016235        0.00024832        0.00008796
     169         -0.188525        1.000000        0.00027802        0.00041880        0.00014997        0.00008196
     170         -0.188429        1.000000        0.00010941        0.00017487        0.00022396        0.00005710
     171         -0.187709        1.000000        0.00012650        0.00004550        0.00010883        0.00016638
     172         -0.187540        1.000000        0.00003759        0.00003217        0.00008707        0.00015617
     173         -0.187016        1.000000        0.00006576        0.00043707        0.00006674        0.00030846
     174         -0.186621        1.000000        0.00039507        0.00025276        0.00010100        0.00078814
     175         -0.186125        1.000000        0.00035359        0.00040575        0.00017780        0.00049971
     176         -0.185654        1.000000        0.00010351        0.00085926        0.00009080        0.00018764
     177         -0.185370        1.000000        0.00010327        0.00009537        0.00006684        0.00004238
     178         -0.185130        1.000000        0.00017919        0.00033040        0.00013032        0.00016198
     179         -0.184944        1.000000        0.00012229        0.00018919        0.00009607        0.00021715
     180         -0.184781        1.000000        0.00013083        0.00017639        0.00016829        0.00024428
     181         -0.184274        1.000000        0.00014366        0.00072881        0.00007713        0.00024659
     182         -0.184018        1.000000        0.00006799        0.00008374        0.00011088        0.00004964
     183         -0.183822        1.000000        0.00006413        0.00018819        0.00002915        0.00002838
     184         -0.183491        1.000000        0.00011401        0.00068021        0.00009798        0.00019143
     185         -0.183167        1.000000        0.00006268        0.00003912        0.00008783        0.00005509
     186         -0.182722        1.000000        0.00006402        0.00018814        0.00010621        0.00020770
     187         -0.182637        1.000000        0.00016065        0.00030911        0.00010438        0.00012118
     188         -0.182563        1.000000        0.00005692        0.00018559        0.00006799        0.00001653
     189         -0.182208        1.000000        0.00019242        0.00036231        0.00011448        0.00030004
     190         -0.182126        1.000000        0.00000531        0.00006169        0.00006341        0.00003106
     191         -0.181848        1.000000        0.00011320        0.00021936        0.00007559        0.00010137
     192         -0.181560        1.000000        0.00004283        0.00013633        0.00014776        0.00009339
     193         -0.181279        1.000000        0.00001365        0.00014724        0.00002226        0.00003729
     194         -0.181075        1.000000        0.00006155        0.00023427        0.00002445        0.00004627
     195         -0.180938        0.000000        0.00014756        0.00052081        0.00011732        0.00017909
     196         -0.180233        0.000000        0.00001866        0.00013394        0.00000555        0.00007601
     197         -0.179432        0.000000        0.00005288        0.00007963        0.00001751        0.00007787
     198         -0.179029        0.000000        0.00004187        0.00008725        0.00005815        0.00008325
     199         -0.178888        0.000000        0.00005140        0.00009463        0.00003928        0.00015670
     200         -0.178382        0.000000        0.00002545        0.00012438        0.00001380        0.00009233
     201         -0.164267        0.000000        0.00004199        0.00015070        0.00003529        0.00004998
     202         -0.072857        0.000000        0.00005827        0.00003047        0.00001137        0.00002400
     203         -0.069308        0.000000        0.00017645        0.00010440        0.00033282        0.00007364
     204         -0.064976        0.000000        0.00023962        0.00006118        0.00015058        0.00007349
     205         -0.062454        0.000000        0.00002636        0.00004494        0.00003337        0.00002351
     206         -0.058311        0.000000        0.00006583        0.00005408        0.00004643        0.00006058
     207         -0.055859        0.000000        0.00006531        0.00009412        0.00005965        0.00002905
     208         -0.055098        0.000000        0.00003888        0.00006620        0.00003860        0.00005646
     209         -0.053227        0.000000        0.00008172        0.00008250        0.00016240        0.00008586
     210         -0.048764        0.000000        0.00006381        0.00009297        0.00010472        0.00006289
     211         -0.046712        0.000000        0.00011429        0.00014673        0.00007344        0.00010951
     212         -0.044809        0.000000        0.00008620        0.00017541        0.00014423        0.00007048
     213         -0.043474        0.000000        0.00005643        0.00008812        0.00019158        0.00005631
     214         -0.043173        0.000000        0.00012551        0.00017429        0.00003535        0.00005231
     215         -0.040702        0.000000        0.00019065        0.00012438        0.00003966        0.00003590
     216         -0.036711        0.000000        0.00026990        0.00047176        0.00003399        0.00004571
     217         -0.031494        0.000000        0.00003574        0.00004161        0.00002682        0.00001219
     218         -0.029120        0.000000        0.00002847        0.00001767        0.00003214        0.00001284
     219         -0.026889        0.000000        0.00009533        0.00020155        0.00004305        0.00003271
     220         -0.023542        0.000000        0.00004988        0.00003410        0.00008294        0.00002185
     221         -0.020331        0.000000        0.00009999        0.00009250        0.00003979        0.00004565
     222         -0.019118        0.000000        0.00004937        0.00002915        0.00003369        0.00001670
     223         -0.017784        0.000000        0.00005167        0.00004137        0.00007214        0.00001293
     224         -0.010990        0.000000        0.00009679        0.00005567        0.00006922        0.00001565
     225         -0.007667        0.000000        0.00005976        0.00008615        0.00015377        0.00005097
     226          0.084824        0.000000        0.11899070        0.00267063        0.01446405        0.21707867
     227          0.090565        0.000000        0.10777711        0.00306169        0.11309840        0.14154388
     228          0.100203        0.000000        0.10398117        0.00572664        0.02390474        0.22906840
     229          0.103130        0.000000        0.11001789        0.02947621        0.10439769        0.11565572
     230          0.104497        0.000000        0.10094986        0.03216319        0.00501163        0.22669505
     231          0.105451        0.000000        0.10219067        0.11377894        0.07452549        0.06924308
     232          0.107884        0.000000        0.10464647        0.00026292        0.06788864        0.19024698
     233          0.166342        0.000000        0.03439868        0.25445578        0.02285165        0.02259233
     234          0.171063        0.000000        0.06129303        0.01551873        0.19991534        0.06015059
     235          0.203914        0.000000        0.05926294        0.26284724        0.00130585        0.01353331
     236          0.233588        0.000000        0.09264836        0.00737651        0.14002986        0.10173217
     237          0.252630        0.000000        0.03432136        0.00792359        0.02319856        0.26110014
     238          0.282333        0.000000        0.00015568        0.00265506        0.16497311        0.14388191
     239          0.283937        0.000000        0.10104250        0.06989041        0.15192680        0.01100664
     240          0.288628        0.000000        0.00171581        0.00064462        0.27612661        0.03817156
     241          0.291613        0.000000        0.00037437        0.13276104        0.13916173        0.04569141
     242          0.292984        0.000000        0.00153560        0.26776144        0.03517646        0.01500948
     243          0.294691        0.000000        0.00041714        0.31630863        0.00023559        0.00006326
     244          0.295194        0.000000        0.00046610        0.22835879        0.04806122        0.04027960
     245          0.299139        0.000000        0.00205984        0.12245102        0.19049861        0.00435065
     246          0.301527        0.000000        0.00076846        0.06163519        0.24608432        0.00495091
     247          0.306904        0.000000        0.00077168        0.16514227        0.11767572        0.03765493
     248          0.323411        0.000000        0.17663285        0.06123594        0.05570370        0.03992433
     249          0.325697        0.000000        0.17047132        0.01044155        0.00141977        0.15492266
     250          0.328088        0.000000        0.20906435        0.08422440        0.04542237        0.00213487
     251          0.336602        0.000000        0.24020346        0.00005511        0.02163780        0.08331642
     252          0.337721        0.000000        0.24446692        0.01617899        0.00096174        0.08390628
     253          0.344819        0.000000        0.24175648        0.00108821        0.02951492        0.07361187
     254          0.442187        0.000000        0.00074170        0.01390277        0.00268472        0.00840618
     255          0.447703        0.000000        0.00000328        0.00352321        0.01314270        0.00045559
     256          0.450343        0.000000        0.00037020        0.00649985        0.01387070        0.00371070
     257          0.451422        0.000000        0.00017659        0.01055860        0.00926239        0.00032327
     258          0.459513        0.000000        0.00004310        0.01832804        0.00213750        0.00306625
     259          0.460703        0.000000        0.00000880        0.02314705        0.00174075        0.00023247