# Projected DOS for atomic kind Pb at iteration step i = 0, E(Fermi) =    -0.181129 a.u.
#     MO Eigenvalue [a.u.]      Occupation                 s                py                pz                px
       1         -0.978118        1.000000        0.00000003        0.00000031        0.00000033        0.00000031
       2         -0.957216        1.000000        0.00000110        0.00001236        0.00001847        0.00001320
       3         -0.951699        1.000000        0.00000027        0.00000215        0.00000141        0.00000184
       4         -0.945193        1.000000        0.00000031        0.00000251        0.00000589        0.00000062
       5         -0.944362        1.000000        0.00000004        0.00000049        0.00000057        0.00000045
       6         -0.943081        1.000000        0.00000046        0.00000578        0.00000549        0.00000419
       7         -0.935820        1.000000        0.00000040        0.00000584        0.00000588        0.00000297
       8         -0.710161        1.000000        0.00001787        0.00001149        0.00003085        0.00001924
       9         -0.703785        1.000000        0.00002266        0.00003156        0.00004183        0.00002137
      10         -0.691251        1.000000        0.00003900        0.00005893        0.00002312        0.00005791
      11         -0.690460        1.000000        0.00004758        0.00005876        0.00004733        0.00001529
      12         -0.689302        1.000000        0.00001468        0.00001546        0.00001413        0.00000765
      13         -0.683439        1.000000        0.00000157        0.00000304        0.00000271        0.00000173
      14         -0.681434        1.000000        0.00003771        0.00004032        0.00002731        0.00001258
      15         -0.638275        1.000000        0.00592534        0.00004885        0.00858803        0.00029563
      16         -0.617782        1.000000        0.01120478        0.00033638        0.00218983        0.00833700
      17         -0.609828        1.000000        0.00034935        0.00003101        0.00006452        0.00009384
      18         -0.601176        1.000000        0.02586429        0.00173463        0.00595669        0.00324803
      19         -0.597191        1.000000        0.06119400        0.01524848        0.00468545        0.00401446
      20         -0.594553        1.000000        0.05629485        0.00593850        0.00957771        0.00158437
      21         -0.593161        1.000000        0.03106591        0.00356972        0.01300731        0.00160919
      22         -0.591487        1.000000        0.02506323        0.00273080        0.00482794        0.00899961
      23         -0.588367        1.000000        0.05234999        0.00401158        0.00598646        0.00233795
      24         -0.587300        1.000000        0.08436421        0.01080620        0.00097196        0.00260124
      25         -0.585960        1.000000        0.01618121        0.00972525        0.00688040        0.00233567
      26         -0.585460        1.000000        0.03034938        0.00251646        0.01892211        0.00134519
      27         -0.584215        1.000000        0.01375027        0.00175244        0.00149757        0.00103236
      28         -0.583150        1.000000        0.02494142        0.00443995        0.00263133        0.00573535
      29         -0.582694        1.000000        0.05748555        0.00734759        0.00391139        0.00342215
      30         -0.581282        1.000000        0.00623366        0.00063747        0.00430632        0.00041194
      31         -0.579705        1.000000        0.00278495        0.00007122        0.00108141        0.00214345
      32         -0.577781        1.000000        0.02197966        0.00657026        0.00406419        0.01391978
      33         -0.576881        1.000000        0.04920542        0.00359879        0.01242647        0.00596692
      34         -0.572440        1.000000        0.04823385        0.01212503        0.00222987        0.00081579
      35         -0.572187        1.000000        0.02380630        0.00030123        0.00253534        0.01989477
      36         -0.571917        1.000000        0.01223329        0.01252392        0.00084969        0.01795906
      37         -0.571008        1.000000        0.02214967        0.00085275        0.00789194        0.00656786
      38         -0.569756        1.000000        0.02778926        0.00028975        0.01116048        0.01688675
      39         -0.569282        1.000000        0.00893062        0.00356082        0.00546355        0.00730690
      40         -0.568165        1.000000        0.00679458        0.00129459        0.00240861        0.00147059
      41         -0.566686        1.000000        0.02585361        0.00070466        0.01301179        0.00871262
      42         -0.566398        1.000000        0.03387993        0.00082301        0.00716605        0.00680887
      43         -0.565923        1.000000        0.01428750        0.00331579        0.02172179        0.00817551
      44         -0.564620        1.000000        0.03219054        0.00281427        0.00799178        0.00792894
      45         -0.563757        1.000000        0.00091387        0.00174583        0.00279541        0.00409127
      46         -0.563626        1.000000        0.00136831        0.00208238        0.00061834        0.00215494
      47         -0.562750        1.000000        0.00814110        0.00344156        0.00848287        0.00568184
      48         -0.561864        1.000000        0.00366686        0.00726447        0.00686741        0.00593181
      49         -0.561532        1.000000        0.00885625        0.00173067        0.00165476        0.01584923
      50         -0.560206        1.000000        0.01044189        0.01205393        0.00237287        0.00656622
      51         -0.559538        1.000000        0.00271312        0.00531138        0.00207920        0.00216761
      52         -0.559248        1.000000        0.00118387        0.00133233        0.01502001        0.01293994
      53         -0.559086        1.000000        0.00381146        0.00952467        0.00731328        0.00390876
      54         -0.558253        1.000000        0.00733330        0.01995470        0.00173109        0.00059360
      55         -0.558141        1.000000        0.00103963        0.00770159        0.00280413        0.00009928
      56         -0.557805        1.000000        0.00314617        0.00380757        0.00199417        0.00407452
      57         -0.556491        1.000000        0.00567680        0.01860175        0.00037067        0.00131640
      58         -0.555619        1.000000        0.00207034        0.01022664        0.00039824        0.00031333
      59         -0.554528        1.000000        0.00088004        0.00057407        0.00523577        0.00168635
      60         -0.554277        1.000000        0.00185987        0.00394619        0.00197640        0.00022950
      61         -0.553913        1.000000        0.00107143        0.00494341        0.00466462        0.00048025
      62         -0.552062        1.000000        0.00038171        0.00088876        0.00330049        0.00019931
      63         -0.550316        1.000000        0.00044539        0.00179200        0.00024279        0.00010416
      64         -0.545093        1.000000        0.00375692        0.00060310        0.00418776        0.00056078
      65         -0.498560        1.000000        0.00037161        0.00001865        0.00001199        0.00001185
      66         -0.485657        1.000000        0.00044656        0.00000956        0.00001807        0.00003064
      67         -0.475389        1.000000        0.00091420        0.00006968        0.00006650        0.00006711
      68         -0.471059        1.000000        0.01205753        0.00009140        0.00008345        0.00002003
      69         -0.469249        1.000000        0.00443989        0.00006004        0.00001172        0.00002790
      70         -0.466463        1.000000        0.00382907        0.00000671        0.00001916        0.00002111
      71         -0.461442        1.000000        0.01393196        0.00000900        0.00003811        0.00001780
      72         -0.459582        1.000000        0.74511952        0.00110049        0.00227494        0.00169849
      73         -0.456930        1.000000        0.76601803        0.00087337        0.00074870        0.00081861
      74         -0.455126        1.000000        0.75953365        0.00086637        0.00078350        0.00146772
      75         -0.454235        1.000000        0.74658331        0.00020056        0.00131510        0.00085517
      76         -0.451171        1.000000        0.75475066        0.00026842        0.00069340        0.00026101
      77         -0.449480        1.000000        0.77902006        0.00044787        0.00040772        0.00034987
      78         -0.449136        1.000000        0.76160674        0.00034877        0.00092024        0.00064036
      79         -0.444699        1.000000        0.77964955        0.00018909        0.00010844        0.00028198
      80         -0.421210        1.000000        0.00090905        0.00002886        0.00009523        0.00004437
      81         -0.420000        1.000000        0.00047969        0.00001001        0.00005994        0.00003726
      82         -0.417450        1.000000        0.00071632        0.00002464        0.00008193        0.00008873
      83         -0.416681        1.000000        0.00012691        0.00010612        0.00001873        0.00007541
      84         -0.409569        1.000000        0.00043926        0.00012258        0.00012399        0.00006103
      85         -0.406468        1.000000        0.00073854        0.00003799        0.00004858        0.00016015
      86         -0.405531        1.000000        0.00048192        0.00007414        0.00009952        0.00011557
      87         -0.404894        1.000000        0.00025424        0.00005263        0.00002463        0.00002983
      88         -0.403779        1.000000        0.00048915        0.00004585        0.00014275        0.00010447
      89         -0.402977        1.000000        0.00069305        0.00001151        0.00021937        0.00001616
      90         -0.400026        1.000000        0.00001555        0.00002697        0.00000352        0.00000446
      91         -0.399109        1.000000        0.00015050        0.00004118        0.00003247        0.00000325
      92         -0.395901        1.000000        0.00025975        0.00004606        0.00011912        0.00002553
      93         -0.395709        1.000000        0.00005679        0.00000377        0.00001270        0.00003891
      94         -0.317888        1.000000        0.00475541        0.00026042        0.02369690        0.00708183
      95         -0.292305        1.000000        0.00179214        0.00224476        0.02577479        0.02212893
      96         -0.277186        1.000000        0.00355503        0.00225327        0.14960263        0.00309531
      97         -0.273040        1.000000        0.01346451        0.09246896        0.12695705        0.05688784
      98         -0.270432        1.000000        0.00438203        0.08705962        0.05245259        0.03717730
      99         -0.269931        1.000000        0.00753842        0.08478278        0.10092590        0.06791320
     100         -0.266801        1.000000        0.00473757        0.05526937        0.03293110        0.16919094
     101         -0.264997        1.000000        0.00182137        0.08814506        0.03009570        0.09500796
     102         -0.263561        1.000000        0.00212700        0.11150985        0.03720788        0.06584572
     103         -0.261772        1.000000        0.00202393        0.03506116        0.04840940        0.11425366
     104         -0.261364        1.000000        0.00153846        0.05330134        0.05274442        0.10041632
     105         -0.257984        1.000000        0.00605497        0.04240477        0.15843488        0.05497407
     106         -0.255977        1.000000        0.00730172        0.04692032        0.13288410        0.07380654
     107         -0.253858        1.000000        0.00473598        0.10537547        0.04021111        0.05849157
     108         -0.251452        1.000000        0.00329906        0.06993419        0.03605616        0.11314944
     109         -0.249760        1.000000        0.00666556        0.13527532        0.04747493        0.04000978
     110         -0.244673        1.000000        0.00233657        0.07317474        0.09626666        0.05063905
     111         -0.244293        1.000000        0.00543220        0.07341495        0.05060065        0.08048727
     112         -0.242624        1.000000        0.00312303        0.04883359        0.11698387        0.05292542
     113         -0.242082        1.000000        0.00526420        0.06961815        0.08675978        0.05302503
     114         -0.240278        1.000000        0.00171864        0.06675188        0.03857420        0.11165542
     115         -0.238005        1.000000        0.00271452        0.03729926        0.02457396        0.04292681
     116         -0.237513        1.000000        0.00196625        0.06011464        0.00796486        0.03265430
     117         -0.236272        1.000000        0.00091040        0.12351021        0.05036680        0.03150590
     118         -0.234986        1.000000        0.01353535        0.03071150        0.08176803        0.07848205
     119         -0.232750        1.000000        0.00203941        0.06040263        0.03810567        0.06515778
     120         -0.230430        1.000000        0.00166315        0.06118183        0.02296078        0.02677464
     121         -0.228155        1.000000        0.00702776        0.02385825        0.02972349        0.02455317
     122         -0.227232        1.000000        0.00378757        0.02093455        0.01061536        0.01708179
     123         -0.225667        1.000000        0.00523432        0.05685412        0.02685575        0.03224200
     124         -0.224683        1.000000        0.01189032        0.01523654        0.06928216        0.03280922
     125         -0.222544        1.000000        0.00792934        0.01909456        0.02456189        0.02777441
     126         -0.219976        1.000000        0.00629833        0.01985805        0.01724054        0.02065236
     127         -0.219145        1.000000        0.00614735        0.02214303        0.01420651        0.01445723
     128         -0.217831        1.000000        0.00331104        0.01763042        0.01640911        0.00793730
     129         -0.216668        1.000000        0.00817627        0.01424968        0.01983948        0.01623539
     130         -0.215307        1.000000        0.00416844        0.00400326        0.00873469        0.00539135
     131         -0.213992        1.000000        0.00603252        0.00717671        0.00160230        0.01738916
     132         -0.213334        1.000000        0.00198531        0.00410189        0.00168037        0.00520115
     133         -0.212561        1.000000        0.00087616        0.00978523        0.00195184        0.00172107
     134         -0.210815        1.000000        0.00436932        0.01278378        0.00626275        0.00331326
     135         -0.209847        1.000000        0.00469389        0.00539904        0.00637446        0.00952426
     136         -0.208753        1.000000        0.00084576        0.00368500        0.00172763        0.00117629
     137         -0.208084        1.000000        0.00362273        0.00425603        0.00230245        0.00707576
     138         -0.207703        1.000000        0.00242871        0.00516124        0.00285810        0.00139330
     139         -0.207149        1.000000        0.00210539        0.00664510        0.00266067        0.00206866
     140         -0.206035        1.000000        0.00373068        0.00432917        0.00278070        0.00240397
     141         -0.205625        1.000000        0.00630529        0.00426470        0.00196226        0.00309801
     142         -0.204740        1.000000        0.00237728        0.00329146        0.00282183        0.00582882
     143         -0.202885        1.000000        0.00254507        0.00286162        0.00138125        0.00170757
     144         -0.202410        1.000000        0.00201251        0.00247662        0.00170863        0.00177334
     145         -0.202273        1.000000        0.00636426        0.00231563        0.00467907        0.00525227
     146         -0.201852        1.000000        0.00197667        0.00097285        0.00174150        0.00172141
     147         -0.201004        1.000000        0.00306347        0.00269747        0.00475843        0.00186656
     148         -0.200557        1.000000        0.00611632        0.00139583        0.00265308        0.00320063
     149         -0.199419        1.000000        0.00815395        0.00977213        0.00273409        0.00355064
     150         -0.198582        1.000000        0.00629162        0.00559733        0.00328218        0.00229152
     151         -0.198252        1.000000        0.00866252        0.00606344        0.00380038        0.00456729
     152         -0.196475        1.000000        0.00990152        0.00342499        0.00425607        0.00515594
     153         -0.195929        1.000000        0.00642028        0.00045754        0.00344533        0.00272035
     154         -0.195504        1.000000        0.00673071        0.00122021        0.00108415        0.00313432
     155         -0.195081        1.000000        0.00205789        0.00056073        0.00045071        0.00028691
     156         -0.194179        1.000000        0.00526149        0.00193320        0.00097906        0.00197862
     157         -0.193723        1.000000        0.00783804        0.00248437        0.00156131        0.00464715
     158         -0.192845        1.000000        0.00765089        0.00129026        0.00159248        0.00648854
     159         -0.192498        1.000000        0.00470829        0.00088223        0.00118917        0.00158094
     160         -0.192168        1.000000        0.01303421        0.00172224        0.00415010        0.00528070
     161         -0.191626        1.000000        0.01282893        0.00183265        0.00440556        0.00636170
     162         -0.191174        1.000000        0.01519849        0.00161288        0.00322948        0.00554196
     163         -0.190986        1.000000        0.01347048        0.00118537        0.00316822        0.00204077
     164         -0.190765        1.000000        0.00412707        0.00065589        0.00200358        0.00200355
     165         -0.190573        1.000000        0.00636620        0.00065466        0.00157724        0.00160045
     166         -0.190312        1.000000        0.01338708        0.00185402        0.00327832        0.00297675
     167         -0.190113        1.000000        0.01490953        0.00139881        0.00267448        0.00447681
     168         -0.189557        1.000000        0.00373726        0.00081983        0.00075143        0.00147212
     169         -0.188826        1.000000        0.01373228        0.00204580        0.00323641        0.00385493
     170         -0.188335        1.000000        0.00610453        0.00080717        0.00171187        0.00031687
     171         -0.188247        1.000000        0.00710332        0.00086551        0.00221952        0.00070436
     172         -0.187325        1.000000        0.01116880        0.00053448        0.00293848        0.00095664
     173         -0.187148        1.000000        0.00213764        0.00012487        0.00019556        0.00045588
     174         -0.186609        1.000000        0.00868690        0.00055316        0.00123253        0.00094017
     175         -0.186087        1.000000        0.00934834        0.00034589        0.00093205        0.00091008
     176         -0.185721        1.000000        0.02189729        0.00100259        0.00284743        0.00147219
     177         -0.185421        1.000000        0.01677832        0.00148908        0.00240742        0.00226033
     178         -0.184992        1.000000        0.02509649        0.00117381        0.00234524        0.00229827
     179         -0.184593        1.000000        0.01026650        0.00070589        0.00084594        0.00144606
     180         -0.184407        1.000000        0.00936772        0.00076905        0.00107686        0.00185551
     181         -0.184340        1.000000        0.03149235        0.00201288        0.00473921        0.00162829
     182         -0.184097        1.000000        0.01598153        0.00126520        0.00057486        0.00260268
     183         -0.183910        1.000000        0.00731660        0.00014344        0.00091137        0.00111491
     184         -0.183693        1.000000        0.00945716        0.00089591        0.00083210        0.00129609
     185         -0.183450        1.000000        0.01304909        0.00082920        0.00100577        0.00209481
     186         -0.183287        1.000000        0.01093231        0.00030076        0.00127608        0.00153684
     187         -0.183011        1.000000        0.02162531        0.00172955        0.00354102        0.00085765
     188         -0.182670        1.000000        0.03192506        0.00151848        0.00112974        0.00105772
     189         -0.182290        1.000000        0.03531557        0.00036745        0.00386151        0.00313264
     190         -0.181836        1.000000        0.01005936        0.00033610        0.00086995        0.00069718
     191         -0.181562        1.000000        0.00320987        0.00020117        0.00075737        0.00008572
     192         -0.181432        1.000000        0.00811910        0.00014120        0.00040077        0.00072403
     193         -0.181261        1.000000        0.01593773        0.00092722        0.00093877        0.00066754
     194         -0.181161        1.000000        0.01014670        0.00025864        0.00019253        0.00138148
     195         -0.181129        1.000000        0.01495934        0.00045345        0.00113469        0.00143609
     196         -0.180952        0.000000        0.00926806        0.00056213        0.00034057        0.00091000
     197         -0.180914        0.000000        0.01011552        0.00026187        0.00088869        0.00033376
     198         -0.180418        0.000000        0.02895552        0.00042952        0.00207247        0.00155302
     199         -0.180072        0.000000        0.01234362        0.00019326        0.00097765        0.00097943
     200         -0.179763        0.000000        0.02863750        0.00055175        0.00103918        0.00199597
     201         -0.164403        0.000000        0.00225391        0.00015841        0.00050800        0.00263032
     202         -0.073371        0.000000        0.00527416        0.31246373        0.30949686        0.11904934
     203         -0.069735        0.000000        0.00885538        0.15365277        0.07227354        0.50236704
     204         -0.065354        0.000000        0.00529720        0.47715346        0.04659581        0.22307190
     205         -0.062755        0.000000        0.00473503        0.21249089        0.02658948        0.47963860
     206         -0.058509        0.000000        0.00320851        0.29252669        0.13612823        0.29540772
     207         -0.056254        0.000000        0.00570605        0.16467099        0.40942366        0.13977783
     208         -0.055483        0.000000        0.00280537        0.41889289        0.16069067        0.13476320
     209         -0.053571        0.000000        0.00704820        0.16796256        0.35515470        0.18632051
     210         -0.049083        0.000000        0.00367552        0.20914448        0.12432281        0.37953689
     211         -0.047215        0.000000        0.00796107        0.10052257        0.33048808        0.26381116
     212         -0.045134        0.000000        0.00237755        0.31781302        0.17261100        0.22050469
     213         -0.043896        0.000000        0.00382897        0.11823287        0.34865880        0.23329753
     214         -0.043659        0.000000        0.00180205        0.26954763        0.18462745        0.25296289
     215         -0.041412        0.000000        0.00196722        0.39529723        0.22101533        0.09122008
     216         -0.037571        0.000000        0.00469238        0.13999931        0.09417491        0.46549673
     217         -0.031990        0.000000        0.00219164        0.03576297        0.54790196        0.11745553
     218         -0.029922        0.000000        0.00126847        0.12147274        0.44477478        0.13084573
     219         -0.027291        0.000000        0.00124105        0.23693908        0.34727811        0.10879572
     220         -0.023942        0.000000        0.00037119        0.38895285        0.15539662        0.14685653
     221         -0.021262        0.000000        0.00017577        0.53646676        0.00860366        0.14465251
     222         -0.019884        0.000000        0.00023318        0.08094105        0.15441782        0.45426992
     223         -0.018448        0.000000        0.00151664        0.27427687        0.22809868        0.18689865
     224         -0.011585        0.000000        0.00051863        0.20445809        0.10865805        0.37333038
     225         -0.008013        0.000000        0.00187735        0.04143400        0.63390583        0.00462214
     226          0.084663        0.000000        0.00000190        0.00005956        0.00007682        0.00005126
     227          0.090399        0.000000        0.00000035        0.00008948        0.00005300        0.00006420
     228          0.100035        0.000000        0.00000517        0.00013320        0.00013188        0.00000405
     229          0.102962        0.000000        0.00000917        0.00034601        0.00020703        0.00022034
     230          0.104302        0.000000        0.00000167        0.00006207        0.00005374        0.00003685
     231          0.105277        0.000000        0.00000144        0.00005631        0.00000470        0.00005348
     232          0.107696        0.000000        0.00000032        0.00004099        0.00003895        0.00000924
     233          0.166169        0.000000        0.00000026        0.00000137        0.00000196        0.00000939
     234          0.170891        0.000000        0.00000102        0.00000300        0.00001654        0.00000127
     235          0.203713        0.000000        0.00000026        0.00000957        0.00000195        0.00000971
     236          0.233408        0.000000        0.00000104        0.00000105        0.00000391        0.00001225
     237          0.252341        0.000000        0.00000094        0.00001133        0.00000297        0.00000393
     238          0.282159        0.000000        0.00000074        0.00001896        0.00000688        0.00003036
     239          0.283742        0.000000        0.00002027        0.00000194        0.00001792        0.00021627
     240          0.288483        0.000000        0.00000673        0.00013868        0.00006797        0.00002113
     241          0.291440        0.000000        0.00000086        0.00016315        0.00006475        0.00004349
     242          0.292804        0.000000        0.00000565        0.00004113        0.00012347        0.00001756
     243          0.294466        0.000000        0.00000447        0.00009249        0.00008989        0.00002714
     244          0.295018        0.000000        0.00001046        0.00001505        0.00010874        0.00003880
     245          0.298916        0.000000        0.00000818        0.00000882        0.00005190        0.00014449
     246          0.301337        0.000000        0.00001644        0.00018590        0.00009547        0.00003271
     247          0.306724        0.000000        0.00000285        0.00002675        0.00003649        0.00001016
     248          0.323238        0.000000        0.00000273        0.00002209        0.00006024        0.00006014
     249          0.325508        0.000000        0.00000765        0.00000762        0.00011734        0.00000616
     250          0.327862        0.000000        0.00001141        0.00002368        0.00005814        0.00019000
     251          0.336428        0.000000        0.00000760        0.00008685        0.00011496        0.00001981
     252          0.337530        0.000000        0.00001796        0.00019139        0.00006785        0.00009890
     253          0.344633        0.000000        0.00000404        0.00004201        0.00004851        0.00002771
     254          0.442025        0.000000        0.00000074        0.00002534        0.00002684        0.00002881
     255          0.447559        0.000000        0.00000042        0.00001051        0.00001127        0.00000943
     256          0.450183        0.000000        0.00000056        0.00000793        0.00003171        0.00001492
     257          0.451281        0.000000        0.00000077        0.00000277        0.00000887        0.00001688
     258          0.459337        0.000000        0.00000122        0.00001621        0.00000468        0.00002255
     259          0.460539        0.000000        0.00000050        0.00000058        0.00001106        0.00000344