# Projected DOS for atomic kind N at iteration step i = 0, E(Fermi) =    -0.181129 a.u.
#     MO Eigenvalue [a.u.]      Occupation                 s                py                pz                px
       1         -0.978118        1.000000        0.62532859        0.00003397        0.00000014        0.00015165
       2         -0.957216        1.000000        0.61544242        0.00028260        0.00000036        0.00001859
       3         -0.951699        1.000000        0.62007306        0.00002660        0.00018181        0.00022450
       4         -0.945193        1.000000        0.61221792        0.00007240        0.00000464        0.00018051
       5         -0.944362        1.000000        0.61622754        0.00003924        0.00014985        0.00009892
       6         -0.943081        1.000000        0.61016824        0.00016086        0.00002436        0.00000080
       7         -0.935820        1.000000        0.61277092        0.00007547        0.00004533        0.00007160
       8         -0.710161        1.000000        0.01437803        0.00916393        0.00756134        0.21015430
       9         -0.703785        1.000000        0.02101864        0.00086793        0.08712143        0.10545829
      10         -0.691251        1.000000        0.01894330        0.02185285        0.07842831        0.10643982
      11         -0.690460        1.000000        0.01798224        0.02245864        0.00443927        0.16288151
      12         -0.689302        1.000000        0.01571013        0.00563568        0.02547807        0.16637858
      13         -0.683439        1.000000        0.01718225        0.07725779        0.06946325        0.05394929
      14         -0.681434        1.000000        0.01626115        0.00000265        0.05869528        0.13733968
      15         -0.638275        1.000000        0.00058959        0.00690374        0.00082606        0.00009707
      16         -0.617782        1.000000        0.00001084        0.00088597        0.00030362        0.00002383
      17         -0.609828        1.000000        0.00000420        0.09336549        0.48344788        0.03343038
      18         -0.601176        1.000000        0.00070581        0.04338898        0.03168717        0.00503635
      19         -0.597191        1.000000        0.00077356        0.01757773        0.03797231        0.00549730
      20         -0.594553        1.000000        0.00035826        0.02651806        0.03077592        0.00558755
      21         -0.593161        1.000000        0.00059087        0.08725427        0.03569394        0.01079034
      22         -0.591487        1.000000        0.00095309        0.10173396        0.08235473        0.03267859
      23         -0.588367        1.000000        0.00067815        0.04105286        0.04554007        0.04156583
      24         -0.587300        1.000000        0.00033182        0.01582571        0.02995117        0.00447079
      25         -0.585960        1.000000        0.00096770        0.09469820        0.05180388        0.05408851
      26         -0.585460        1.000000        0.00040341        0.07654249        0.04760816        0.03375006
      27         -0.584215        1.000000        0.00021212        0.38966565        0.07910213        0.00125803
      28         -0.583150        1.000000        0.00023188        0.06732630        0.02362586        0.00292962
      29         -0.582694        1.000000        0.00002700        0.00586586        0.00388724        0.00064626
      30         -0.581282        1.000000        0.00008573        0.41217533        0.03969418        0.01692915
      31         -0.579705        1.000000        0.00000289        0.00065875        0.00034760        0.00041656
      32         -0.577781        1.000000        0.00021410        0.06163662        0.04951816        0.00884654
      33         -0.576881        1.000000        0.00018624        0.04999658        0.04156514        0.01097432
      34         -0.572440        1.000000        0.00028109        0.15149979        0.00886021        0.02394436
      35         -0.572187        1.000000        0.00007469        0.05591189        0.01081481        0.00643926
      36         -0.571917        1.000000        0.00001060        0.01455213        0.01202249        0.00292637
      37         -0.571008        1.000000        0.00073189        0.08708641        0.10288228        0.06873730
      38         -0.569756        1.000000        0.00023251        0.00797707        0.02166707        0.02012653
      39         -0.569282        1.000000        0.00080631        0.01479674        0.11881529        0.10427246
      40         -0.568165        1.000000        0.00044405        0.15727727        0.27118978        0.03669527
      41         -0.566686        1.000000        0.00013580        0.08564288        0.08610101        0.03055497
      42         -0.566398        1.000000        0.00039699        0.04609672        0.10551588        0.08631492
      43         -0.565923        1.000000        0.00001066        0.00341863        0.01565809        0.00274354
      44         -0.564620        1.000000        0.00012619        0.08152972        0.01578173        0.01087250
      45         -0.563757        1.000000        0.00024179        0.11921066        0.14391064        0.05103815
      46         -0.563626        1.000000        0.00025168        0.15091096        0.02252732        0.24218812
      47         -0.562750        1.000000        0.00033348        0.08071759        0.11187997        0.01604132
      48         -0.561864        1.000000        0.00000652        0.07720196        0.03427404        0.04763962
      49         -0.561532        1.000000        0.00000366        0.00260511        0.00489247        0.00257956
      50         -0.560206        1.000000        0.00003271        0.02812777        0.03323203        0.01102596
      51         -0.559538        1.000000        0.00026381        0.26291045        0.02476549        0.05279224
      52         -0.559248        1.000000        0.00002690        0.02246638        0.01021040        0.02557286
      53         -0.559086        1.000000        0.00010442        0.06520808        0.01668242        0.02362226
      54         -0.558253        1.000000        0.00001305        0.01478375        0.04725322        0.00581701
      55         -0.558141        1.000000        0.00001538        0.01107449        0.00144372        0.00171236
      56         -0.557805        1.000000        0.00030116        0.00985958        0.32314214        0.01143312
      57         -0.556491        1.000000        0.00000079        0.00113307        0.00013971        0.00034124
      58         -0.555619        1.000000        0.00007528        0.01034780        0.03482210        0.03321510
      59         -0.554528        1.000000        0.00003610        0.03256392        0.04845141        0.01736194
      60         -0.554277        1.000000        0.00007994        0.02924554        0.05354582        0.03093336
      61         -0.553913        1.000000        0.00026415        0.15864638        0.13937238        0.02570389
      62         -0.552062        1.000000        0.00005476        0.04870536        0.18470173        0.05375249
      63         -0.550316        1.000000        0.00038492        0.04024127        0.00532335        0.06742470
      64         -0.545093        1.000000        0.00028195        0.31984569        0.10747921        0.03513827
      65         -0.498560        1.000000        0.00935426        0.00199963        0.02041797        0.39784199
      66         -0.485657        1.000000        0.00620855        0.01790658        0.18224849        0.24141525
      67         -0.475389        1.000000        0.00644603        0.05510716        0.23750037        0.14467037
      68         -0.471059        1.000000        0.00921910        0.01957890        0.02700526        0.38113658
      69         -0.469249        1.000000        0.00848026        0.03942874        0.01368189        0.38371546
      70         -0.466463        1.000000        0.00789513        0.18414143        0.12215415        0.12898823
      71         -0.461442        1.000000        0.00942465        0.00012433        0.11220135        0.31447638
      72         -0.459582        1.000000        0.00003168        0.00024163        0.00040191        0.00176211
      73         -0.456930        1.000000        0.00001935        0.00107299        0.00039463        0.00188314
      74         -0.455126        1.000000        0.00000356        0.00010590        0.00016683        0.00027122
      75         -0.454235        1.000000        0.00000330        0.00007233        0.00069444        0.00137364
      76         -0.451171        1.000000        0.00001249        0.00113548        0.00077923        0.00263811
      77         -0.449480        1.000000        0.00001083        0.00029320        0.00007333        0.00028917
      78         -0.449136        1.000000        0.00000588        0.00044644        0.00101723        0.00385761
      79         -0.444699        1.000000        0.00001410        0.00021197        0.00029925        0.00303938
      80         -0.421210        1.000000        0.00007036        0.01710316        0.01766360        0.00780712
      81         -0.420000        1.000000        0.00000549        0.00307089        0.02258050        0.00084005
      82         -0.417450        1.000000        0.00002311        0.02748310        0.00827772        0.00910412
      83         -0.416681        1.000000        0.00002179        0.03352523        0.00528605        0.00050068
      84         -0.409569        1.000000        0.00000864        0.00371973        0.03738314        0.00008720
      85         -0.406468        1.000000        0.00001812        0.03386948        0.00433209        0.00445312
      86         -0.405531        1.000000        0.00003223        0.01823014        0.01660061        0.00331189
      87         -0.404894        1.000000        0.00000107        0.00890476        0.02434808        0.00307271
      88         -0.403779        1.000000        0.00010318        0.01269416        0.00680853        0.01946270
      89         -0.402977        1.000000        0.00002691        0.02706836        0.00870033        0.00264765
      90         -0.400026        1.000000        0.00000628        0.00101052        0.01090211        0.02914002
      91         -0.399109        1.000000        0.00000163        0.00292340        0.02454848        0.01175956
      92         -0.395901        1.000000        0.00000471        0.03635350        0.00307730        0.00105365
      93         -0.395709        1.000000        0.00000612        0.01944427        0.01269702        0.00255230
      94         -0.317888        1.000000        0.00021398        0.00081448        0.00004724        0.00013572
      95         -0.292305        1.000000        0.00003116        0.00012436        0.00003988        0.00003659
      96         -0.277186        1.000000        0.00021857        0.00117339        0.00061319        0.00028025
      97         -0.273040        1.000000        0.00008611        0.00034019        0.00044558        0.00005433
      98         -0.270432        1.000000        0.00067652        0.00190952        0.00052624        0.00046508
      99         -0.269931        1.000000        0.00017081        0.00074349        0.00106503        0.00007654
     100         -0.266801        1.000000        0.00062252        0.00067902        0.00044848        0.00016855
     101         -0.264997        1.000000        0.00032825        0.00065827        0.00005137        0.00028619
     102         -0.263561        1.000000        0.00052316        0.00119318        0.00022712        0.00043335
     103         -0.261772        1.000000        0.00091067        0.00080533        0.00033567        0.00088229
     104         -0.261364        1.000000        0.00026360        0.00075407        0.00012940        0.00020118
     105         -0.257984        1.000000        0.00015464        0.00084548        0.00040922        0.00011707
     106         -0.255977        1.000000        0.00025778        0.00140120        0.00015350        0.00023445
     107         -0.253858        1.000000        0.00104916        0.00165833        0.00017905        0.00061259
     108         -0.251452        1.000000        0.00016258        0.00041320        0.00052385        0.00021318
     109         -0.249760        1.000000        0.00108471        0.00021981        0.00032372        0.00067110
     110         -0.244673        1.000000        0.00025426        0.00080367        0.00029874        0.00076028
     111         -0.244293        1.000000        0.00068798        0.00083030        0.00143130        0.00061315
     112         -0.242624        1.000000        0.00072353        0.00187566        0.00064745        0.00090144
     113         -0.242082        1.000000        0.00078724        0.00056493        0.00102719        0.00047596
     114         -0.240278        1.000000        0.00083981        0.00058242        0.00065915        0.00063463
     115         -0.238005        1.000000        0.00395465        0.00113248        0.00138737        0.00238445
     116         -0.237513        1.000000        0.00088097        0.00094576        0.00026957        0.00095391
     117         -0.236272        1.000000        0.00044836        0.00211057        0.00107438        0.00047647
     118         -0.234986        1.000000        0.00064082        0.00148352        0.00194842        0.00082932
     119         -0.232750        1.000000        0.00032441        0.00045935        0.00201416        0.00041058
     120         -0.230430        1.000000        0.00191580        0.00270405        0.00116735        0.00051921
     121         -0.228155        1.000000        0.00132716        0.00408147        0.00147102        0.00094746
     122         -0.227232        1.000000        0.00173235        0.00237429        0.00081449        0.00056767
     123         -0.225667        1.000000        0.00100668        0.00199117        0.00394821        0.00043347
     124         -0.224683        1.000000        0.00077657        0.00042486        0.00060557        0.00086791
     125         -0.222544        1.000000        0.00025823        0.00093964        0.00035252        0.00040126
     126         -0.219976        1.000000        0.00208466        0.00199146        0.00074789        0.00058835
     127         -0.219145        1.000000        0.00067314        0.00009981        0.00452732        0.00036157
     128         -0.217831        1.000000        0.00131138        0.00625043        0.00183297        0.00157961
     129         -0.216668        1.000000        0.00114801        0.00214614        0.00159356        0.00084778
     130         -0.215307        1.000000        0.00154321        0.00139839        0.00144443        0.00432997
     131         -0.213992        1.000000        0.00100642        0.00221150        0.00021396        0.00111983
     132         -0.213334        1.000000        0.00053262        0.00010469        0.00238133        0.00081585
     133         -0.212561        1.000000        0.00027551        0.00011915        0.00364499        0.00065342
     134         -0.210815        1.000000        0.00074340        0.00095253        0.00170662        0.00081337
     135         -0.209847        1.000000        0.00025817        0.00101937        0.00105948        0.00042404
     136         -0.208753        1.000000        0.00047476        0.00056058        0.00122486        0.00061690
     137         -0.208084        1.000000        0.00034136        0.00068611        0.00062947        0.00037702
     138         -0.207703        1.000000        0.00033687        0.00058103        0.00070380        0.00048215
     139         -0.207149        1.000000        0.00021339        0.00089308        0.00072782        0.00102264
     140         -0.206035        1.000000        0.00045659        0.00041094        0.00172639        0.00013748
     141         -0.205625        1.000000        0.00013457        0.00056131        0.00073595        0.00020923
     142         -0.204740        1.000000        0.00039326        0.00125832        0.00036812        0.00053272
     143         -0.202885        1.000000        0.00101543        0.00290478        0.00152993        0.00169534
     144         -0.202410        1.000000        0.00010920        0.00042035        0.00068976        0.00034354
     145         -0.202273        1.000000        0.00037244        0.00125751        0.00027925        0.00063817
     146         -0.201852        1.000000        0.00042466        0.00239837        0.00022733        0.00115442
     147         -0.201004        1.000000        0.00043329        0.00127480        0.00058408        0.00047162
     148         -0.200557        1.000000        0.00020032        0.00032556        0.00013322        0.00031110
     149         -0.199419        1.000000        0.00023531        0.00103836        0.00017703        0.00045513
     150         -0.198582        1.000000        0.00017544        0.00126950        0.00014883        0.00033457
     151         -0.198252        1.000000        0.00058668        0.00075161        0.00101036        0.00097885
     152         -0.196475        1.000000        0.00018987        0.00009904        0.00028988        0.00044513
     153         -0.195929        1.000000        0.00006471        0.00009037        0.00019631        0.00005722
     154         -0.195504        1.000000        0.00035042        0.00013142        0.00048280        0.00039566
     155         -0.195081        1.000000        0.00014543        0.00090562        0.00034683        0.00026626
     156         -0.194179        1.000000        0.00010596        0.00135067        0.00035819        0.00032803
     157         -0.193723        1.000000        0.00036463        0.00023192        0.00025419        0.00053875
     158         -0.192845        1.000000        0.00023455        0.00118985        0.00031998        0.00035735
     159         -0.192498        1.000000        0.00019178        0.00068859        0.00031156        0.00044385
     160         -0.192168        1.000000        0.00030561        0.00011523        0.00017485        0.00026501
     161         -0.191626        1.000000        0.00071118        0.00044068        0.00009581        0.00054885
     162         -0.191174        1.000000        0.00009555        0.00032188        0.00013267        0.00008260
     163         -0.190986        1.000000        0.00008244        0.00046553        0.00013098        0.00006027
     164         -0.190765        1.000000        0.00023810        0.00025360        0.00022801        0.00019417
     165         -0.190573        1.000000        0.00010836        0.00065263        0.00032621        0.00005321
     166         -0.190312        1.000000        0.00038557        0.00016912        0.00023497        0.00046532
     167         -0.190113        1.000000        0.00011880        0.00061869        0.00009827        0.00010360
     168         -0.189557        1.000000        0.00020874        0.00233552        0.00018609        0.00036431
     169         -0.188826        1.000000        0.00022541        0.00118631        0.00032878        0.00025821
     170         -0.188335        1.000000        0.00030407        0.00009168        0.00005745        0.00013350
     171         -0.188247        1.000000        0.00003419        0.00008928        0.00011885        0.00022219
     172         -0.187325        1.000000        0.00042453        0.00030101        0.00010317        0.00070860
     173         -0.187148        1.000000        0.00001052        0.00003950        0.00002337        0.00013737
     174         -0.186609        1.000000        0.00016362        0.00048068        0.00011785        0.00056957
     175         -0.186087        1.000000        0.00009594        0.00021190        0.00018094        0.00009609
     176         -0.185721        1.000000        0.00009146        0.00008165        0.00006586        0.00016258
     177         -0.185421        1.000000        0.00031401        0.00019370        0.00002543        0.00033888
     178         -0.184992        1.000000        0.00018579        0.00074678        0.00005496        0.00044816
     179         -0.184593        1.000000        0.00017634        0.00032644        0.00011620        0.00027773
     180         -0.184407        1.000000        0.00011097        0.00042855        0.00009740        0.00003056
     181         -0.184340        1.000000        0.00005451        0.00004601        0.00007137        0.00006395
     182         -0.184097        1.000000        0.00006022        0.00015301        0.00009113        0.00020527
     183         -0.183910        1.000000        0.00006772        0.00020319        0.00006842        0.00016392
     184         -0.183693        1.000000        0.00004318        0.00029184        0.00010680        0.00004232
     185         -0.183450        1.000000        0.00026928        0.00044535        0.00012454        0.00020513
     186         -0.183287        1.000000        0.00004447        0.00004934        0.00003563        0.00001941
     187         -0.183011        1.000000        0.00005240        0.00018971        0.00018518        0.00014182
     188         -0.182670        1.000000        0.00007810        0.00006136        0.00003587        0.00009616
     189         -0.182290        1.000000        0.00004722        0.00021588        0.00008852        0.00010747
     190         -0.181836        1.000000        0.00005259        0.00009827        0.00007183        0.00006456
     191         -0.181562        1.000000        0.00003278        0.00018787        0.00005463        0.00011102
     192         -0.181432        1.000000        0.00002319        0.00010044        0.00004433        0.00002646
     193         -0.181261        1.000000        0.00006813        0.00007253        0.00007182        0.00009447
     194         -0.181161        1.000000        0.00004853        0.00001643        0.00007768        0.00007432
     195         -0.181129        1.000000        0.00012346        0.00014944        0.00006267        0.00007797
     196         -0.180952        0.000000        0.00000980        0.00002392        0.00005062        0.00013324
     197         -0.180914        0.000000        0.00002461        0.00003225        0.00003598        0.00002079
     198         -0.180418        0.000000        0.00007097        0.00017121        0.00003338        0.00008370
     199         -0.180072        0.000000        0.00004420        0.00019413        0.00003602        0.00006253
     200         -0.179763        0.000000        0.00004389        0.00051006        0.00004974        0.00006497
     201         -0.164403        0.000000        0.00004180        0.00014847        0.00003481        0.00004797
     202         -0.073371        0.000000        0.00005884        0.00002998        0.00001159        0.00002349
     203         -0.069735        0.000000        0.00017459        0.00010183        0.00033490        0.00007308
     204         -0.065354        0.000000        0.00023884        0.00006109        0.00015425        0.00007611
     205         -0.062755        0.000000        0.00002555        0.00004314        0.00003040        0.00002232
     206         -0.058509        0.000000        0.00006516        0.00005185        0.00004587        0.00005819
     207         -0.056254        0.000000        0.00006741        0.00009041        0.00006017        0.00002944
     208         -0.055483        0.000000        0.00004148        0.00006623        0.00003758        0.00005981
     209         -0.053571        0.000000        0.00008101        0.00008666        0.00016308        0.00008631
     210         -0.049083        0.000000        0.00006356        0.00009450        0.00010724        0.00006377
     211         -0.047215        0.000000        0.00011413        0.00015309        0.00007183        0.00010600
     212         -0.045134        0.000000        0.00009440        0.00019483        0.00015065        0.00007947
     213         -0.043896        0.000000        0.00007039        0.00004929        0.00013921        0.00002218
     214         -0.043659        0.000000        0.00007889        0.00017073        0.00007614        0.00007661
     215         -0.041412        0.000000        0.00021291        0.00014350        0.00004445        0.00004050
     216         -0.037571        0.000000        0.00027226        0.00047246        0.00003443        0.00004515
     217         -0.031990        0.000000        0.00003587        0.00004167        0.00002882        0.00001257
     218         -0.029922        0.000000        0.00002906        0.00001689        0.00003008        0.00001236
     219         -0.027291        0.000000        0.00009590        0.00020323        0.00004363        0.00003422
     220         -0.023942        0.000000        0.00005112        0.00003462        0.00008302        0.00002387
     221         -0.021262        0.000000        0.00010170        0.00009102        0.00004078        0.00004708
     222         -0.019884        0.000000        0.00005247        0.00003164        0.00004189        0.00001418
     223         -0.018448        0.000000        0.00005195        0.00003965        0.00006887        0.00001437
     224         -0.011585        0.000000        0.00009745        0.00005696        0.00007022        0.00001631
     225         -0.008013        0.000000        0.00005899        0.00008479        0.00015359        0.00005215
     226          0.084663        0.000000        0.11903239        0.00267064        0.01446845        0.21710139
     227          0.090399        0.000000        0.10782038        0.00305770        0.11311072        0.14155451
     228          0.100035        0.000000        0.10400263        0.00579434        0.02385987        0.22909825
     229          0.102962        0.000000        0.11005409        0.02949368        0.10436716        0.11572420
     230          0.104302        0.000000        0.10099422        0.03208650        0.00510609        0.22672276
     231          0.105277        0.000000        0.10222472        0.11380415        0.07454503        0.06923899
     232          0.107696        0.000000        0.10468417        0.00026238        0.06790340        0.19029314
     233          0.166169        0.000000        0.03440424        0.25449281        0.02286540        0.02259709
     234          0.170891        0.000000        0.06129275        0.01552325        0.19996974        0.06014590
     235          0.203713        0.000000        0.05926778        0.26289586        0.00131058        0.01354349
     236          0.233408        0.000000        0.09267281        0.00737962        0.14002443        0.10177675
     237          0.252341        0.000000        0.03434098        0.00791220        0.02319521        0.26115397
     238          0.282159        0.000000        0.00015693        0.00264699        0.16501980        0.14386277
     239          0.283742        0.000000        0.10103049        0.06991366        0.15198019        0.01100701
     240          0.288483        0.000000        0.00176503        0.00065648        0.27595322        0.03832025
     241          0.291440        0.000000        0.00038027        0.13262590        0.13930834        0.04574960
     242          0.292804        0.000000        0.00153386        0.26778295        0.03518233        0.01500454
     243          0.294466        0.000000        0.00041835        0.31638750        0.00021674        0.00005826
     244          0.295018        0.000000        0.00045952        0.22762482        0.04876728        0.04034646
     245          0.298916        0.000000        0.00210276        0.12254165        0.19038587        0.00442179
     246          0.301337        0.000000        0.00076628        0.06114562        0.24659709        0.00492219
     247          0.306724        0.000000        0.00076785        0.16632245        0.11678133        0.03745485
     248          0.323238        0.000000        0.17663970        0.06125048        0.05567662        0.03996013
     249          0.325508        0.000000        0.17048874        0.01043278        0.00141912        0.15493725
     250          0.327862        0.000000        0.20903186        0.08443532        0.04528082        0.00214261
     251          0.336428        0.000000        0.24018324        0.00005576        0.02180301        0.08321969
     252          0.337530        0.000000        0.24449335        0.01618287        0.00095542        0.08393234
     253          0.344633        0.000000        0.24179783        0.00107860        0.02947445        0.07368245
     254          0.442025        0.000000        0.00074197        0.01390305        0.00268756        0.00841153
     255          0.447559        0.000000        0.00000324        0.00351404        0.01316484        0.00045661
     256          0.450183        0.000000        0.00037042        0.00650673        0.01387207        0.00370933
     257          0.451281        0.000000        0.00017619        0.01057096        0.00924616        0.00032274
     258          0.459337        0.000000        0.00004308        0.01833737        0.00213527        0.00306759
     259          0.460539        0.000000        0.00000881        0.02314371        0.00174857        0.00023501