# Projected DOS for atomic kind Pb at iteration step i = 0, E(Fermi) =    -0.181075 a.u.
#     MO Eigenvalue [a.u.]      Occupation                 s                py                pz                px
       1         -0.977951        1.000000        0.00000003        0.00000031        0.00000033        0.00000031
       2         -0.957034        1.000000        0.00000111        0.00001237        0.00001847        0.00001321
       3         -0.951529        1.000000        0.00000027        0.00000215        0.00000141        0.00000184
       4         -0.945007        1.000000        0.00000031        0.00000251        0.00000588        0.00000062
       5         -0.944161        1.000000        0.00000004        0.00000049        0.00000056        0.00000045
       6         -0.942879        1.000000        0.00000046        0.00000577        0.00000548        0.00000419
       7         -0.935631        1.000000        0.00000040        0.00000583        0.00000588        0.00000297
       8         -0.709981        1.000000        0.00001773        0.00001149        0.00003064        0.00001924
       9         -0.703603        1.000000        0.00002253        0.00003150        0.00004175        0.00002138
      10         -0.691062        1.000000        0.00003868        0.00005880        0.00002314        0.00005784
      11         -0.690246        1.000000        0.00004701        0.00005821        0.00004719        0.00001510
      12         -0.689106        1.000000        0.00001438        0.00001524        0.00001399        0.00000763
      13         -0.683233        1.000000        0.00000154        0.00000302        0.00000268        0.00000171
      14         -0.681212        1.000000        0.00003718        0.00003998        0.00002699        0.00001248
      15         -0.638286        1.000000        0.00579293        0.00004773        0.00856855        0.00029330
      16         -0.617270        1.000000        0.01118723        0.00033579        0.00219007        0.00831303
      17         -0.609637        1.000000        0.00033564        0.00003066        0.00005816        0.00009358
      18         -0.600739        1.000000        0.02398759        0.00177651        0.00535634        0.00334190
      19         -0.596706        1.000000        0.06008635        0.01625220        0.00406346        0.00364800
      20         -0.593848        1.000000        0.05959147        0.00601365        0.00996246        0.00134771
      21         -0.592710        1.000000        0.03032799        0.00289600        0.01424873        0.00104539
      22         -0.590754        1.000000        0.02475788        0.00262327        0.00353455        0.00934033
      23         -0.587624        1.000000        0.04937619        0.00342359        0.00580288        0.00236690
      24         -0.585992        1.000000        0.07273056        0.00947498        0.00086043        0.00208875
      25         -0.585350        1.000000        0.01928604        0.00869754        0.00711419        0.00252489
      26         -0.584531        1.000000        0.03095833        0.00151555        0.01621129        0.00133241
      27         -0.583802        1.000000        0.01866724        0.00297716        0.00439149        0.00174685
      28         -0.582760        1.000000        0.01242832        0.00302327        0.00190850        0.00538439
      29         -0.581785        1.000000        0.08357949        0.00883257        0.00486661        0.00504517
      30         -0.581113        1.000000        0.00664219        0.00059923        0.00457116        0.00019544
      31         -0.579392        1.000000        0.00401549        0.00009306        0.00117637        0.00230857
      32         -0.577428        1.000000        0.05940364        0.00154698        0.01535351        0.00280423
      33         -0.576090        1.000000        0.01104369        0.00863343        0.00246093        0.01646507
      34         -0.571650        1.000000        0.04165524        0.00852175        0.00246092        0.00439676
      35         -0.571547        1.000000        0.02818682        0.00187098        0.00350609        0.01543051
      36         -0.570937        1.000000        0.01699356        0.00737341        0.00314719        0.01353786
      37         -0.570568        1.000000        0.01738792        0.00625794        0.00478131        0.01063960
      38         -0.569564        1.000000        0.02494712        0.00071245        0.01035974        0.01758472
      39         -0.568573        1.000000        0.01123769        0.00405459        0.00425555        0.00832645
      40         -0.567804        1.000000        0.00555627        0.00199104        0.00175214        0.00263924
      41         -0.566329        1.000000        0.04072899        0.00069853        0.00531428        0.01018274
      42         -0.565800        1.000000        0.01765264        0.00238526        0.01196627        0.00609128
      43         -0.564925        1.000000        0.01169330        0.00398362        0.01811982        0.00630046
      44         -0.563551        1.000000        0.02375054        0.00137438        0.00600764        0.00466516
      45         -0.563320        1.000000        0.01089887        0.00204115        0.00330380        0.00609134
      46         -0.563059        1.000000        0.00685530        0.00314962        0.00495833        0.00292558
      47         -0.561685        1.000000        0.00976198        0.00615402        0.00879567        0.00679160
      48         -0.561518        1.000000        0.00667362        0.01384056        0.00522670        0.00393670
      49         -0.561286        1.000000        0.00900681        0.00245134        0.00413769        0.01306595
      50         -0.560776        1.000000        0.00571050        0.01306430        0.00196078        0.00840898
      51         -0.559543        1.000000        0.00240596        0.00317390        0.01071405        0.00248353
      52         -0.559304        1.000000        0.00034997        0.00028539        0.01429839        0.01419259
      53         -0.559098        1.000000        0.00068483        0.00353305        0.00315792        0.00438063
      54         -0.557759        1.000000        0.00106260        0.00715042        0.00296722        0.00011712
      55         -0.557477        1.000000        0.00509850        0.01189593        0.00201678        0.00253070
      56         -0.557271        1.000000        0.00484181        0.01121067        0.00184199        0.00237293
      57         -0.555623        1.000000        0.00615887        0.01797435        0.00034102        0.00098208
      58         -0.555587        1.000000        0.00235484        0.01159436        0.00020468        0.00039983
      59         -0.554457        1.000000        0.00077436        0.00078890        0.00495203        0.00140426
      60         -0.553599        1.000000        0.00157829        0.00279953        0.00575475        0.00056612
      61         -0.553209        1.000000        0.00063709        0.00528130        0.00114418        0.00010384
      62         -0.551069        1.000000        0.00024319        0.00094236        0.00383038        0.00018927
      63         -0.548570        1.000000        0.00048298        0.00185807        0.00026217        0.00008654
      64         -0.544555        1.000000        0.00439686        0.00053792        0.00457057        0.00062360
      65         -0.498397        1.000000        0.00037849        0.00001890        0.00001268        0.00001185
      66         -0.485477        1.000000        0.00045632        0.00000927        0.00001815        0.00003060
      67         -0.475217        1.000000        0.00087317        0.00006863        0.00006620        0.00006689
      68         -0.470863        1.000000        0.01157794        0.00009478        0.00008323        0.00001917
      69         -0.469050        1.000000        0.00427262        0.00006085        0.00001091        0.00002743
      70         -0.466261        1.000000        0.00341393        0.00000674        0.00001729        0.00002010
      71         -0.461230        1.000000        0.01363095        0.00000817        0.00003832        0.00001772
      72         -0.459075        1.000000        0.74557522        0.00109172        0.00225436        0.00167392
      73         -0.456368        1.000000        0.76888132        0.00084739        0.00071143        0.00077271
      74         -0.454455        1.000000        0.76023794        0.00086987        0.00065558        0.00146307
      75         -0.453299        1.000000        0.74590076        0.00021915        0.00126304        0.00090027
      76         -0.450203        1.000000        0.75297452        0.00026965        0.00065461        0.00022917
      77         -0.448990        1.000000        0.77377805        0.00058878        0.00045189        0.00031341
      78         -0.448832        1.000000        0.76513765        0.00018683        0.00080207        0.00064063
      79         -0.444225        1.000000        0.78042424        0.00019394        0.00011214        0.00026174
      80         -0.421038        1.000000        0.00093045        0.00002875        0.00009550        0.00004397
      81         -0.419829        1.000000        0.00048964        0.00001006        0.00006093        0.00003744
      82         -0.417258        1.000000        0.00072313        0.00002457        0.00008255        0.00008955
      83         -0.416513        1.000000        0.00013673        0.00010664        0.00001886        0.00007507
      84         -0.409354        1.000000        0.00044261        0.00012290        0.00012414        0.00006168
      85         -0.406255        1.000000        0.00075851        0.00003756        0.00004874        0.00016208
      86         -0.405333        1.000000        0.00049762        0.00007320        0.00009755        0.00011449
      87         -0.404703        1.000000        0.00026866        0.00005322        0.00002441        0.00002936
      88         -0.403581        1.000000        0.00049311        0.00004613        0.00014187        0.00010380
      89         -0.402783        1.000000        0.00070080        0.00001187        0.00021928        0.00001603
      90         -0.399828        1.000000        0.00001487        0.00002628        0.00000343        0.00000446
      91         -0.398889        1.000000        0.00015504        0.00004109        0.00003267        0.00000326
      92         -0.395672        1.000000        0.00026507        0.00004606        0.00012107        0.00002552
      93         -0.395501        1.000000        0.00005628        0.00000367        0.00001280        0.00003925
      94         -0.317761        1.000000        0.00482760        0.00026213        0.02378701        0.00701615
      95         -0.291801        1.000000        0.00170033        0.00220721        0.02536434        0.02145000
      96         -0.276861        1.000000        0.00350418        0.00219201        0.14689049        0.00274101
      97         -0.272585        1.000000        0.01362988        0.09495625        0.13319908        0.04935595
      98         -0.269629        1.000000        0.00498206        0.07250142        0.07017488        0.03812215
      99         -0.269005        1.000000        0.00635589        0.10222412        0.07791749        0.06044165
     100         -0.265303        1.000000        0.00471176        0.05459111        0.04420566        0.16181673
     101         -0.264390        1.000000        0.00211522        0.07994783        0.02580889        0.10723517
     102         -0.262693        1.000000        0.00199249        0.10587738        0.03715733        0.05334772
     103         -0.260779        1.000000        0.00195285        0.03521579        0.05688836        0.13023179
     104         -0.260450        1.000000        0.00224585        0.05501658        0.06100329        0.10473041
     105         -0.257278        1.000000        0.00569618        0.04451708        0.15043335        0.06202292
     106         -0.255112        1.000000        0.00773954        0.03858915        0.13212977        0.08458288
     107         -0.252848        1.000000        0.00443422        0.11334210        0.03275577        0.05433597
     108         -0.250313        1.000000        0.00369961        0.07388139        0.02280766        0.12331012
     109         -0.248301        1.000000        0.00749338        0.14788414        0.06047770        0.02755614
     110         -0.243840        1.000000        0.00326342        0.10613754        0.03716245        0.07852996
     111         -0.243259        1.000000        0.00367245        0.04274524        0.09561086        0.06638319
     112         -0.241763        1.000000        0.00329221        0.05021362        0.12343514        0.04637927
     113         -0.240944        1.000000        0.00527001        0.06706076        0.09348733        0.05008564
     114         -0.239527        1.000000        0.00184806        0.06962719        0.03734970        0.11135323
     115         -0.237608        1.000000        0.00254707        0.03461306        0.02612130        0.05129547
     116         -0.236923        1.000000        0.00187874        0.05840465        0.00865881        0.03194158
     117         -0.235368        1.000000        0.00112422        0.12594422        0.05174937        0.02913593
     118         -0.234326        1.000000        0.01504010        0.02630839        0.07974069        0.08643409
     119         -0.232118        1.000000        0.00188383        0.06324592        0.04692629        0.05789176
     120         -0.229766        1.000000        0.00133008        0.05916141        0.01679372        0.02527510
     121         -0.227707        1.000000        0.00626345        0.02321383        0.03147691        0.02425254
     122         -0.226699        1.000000        0.00429303        0.02020799        0.01194785        0.02048334
     123         -0.224682        1.000000        0.00633527        0.06406224        0.02731229        0.03797832
     124         -0.223780        1.000000        0.01006323        0.01510812        0.06278605        0.02277051
     125         -0.221575        1.000000        0.00893471        0.01933909        0.02674753        0.03070099
     126         -0.219499        1.000000        0.00857902        0.02294884        0.02246856        0.02592428
     127         -0.218308        1.000000        0.00499369        0.02190233        0.01467974        0.01350019
     128         -0.216826        1.000000        0.00309207        0.02071841        0.01687407        0.00673235
     129         -0.215461        1.000000        0.00954043        0.01502102        0.02410856        0.01616361
     130         -0.214395        1.000000        0.00376549        0.00521290        0.00691842        0.00423276
     131         -0.213323        1.000000        0.00548067        0.01025554        0.00179157        0.01686894
     132         -0.213111        1.000000        0.00151946        0.00352200        0.00243633        0.00432466
     133         -0.211772        1.000000        0.00114819        0.01114556        0.00231338        0.00147275
     134         -0.210341        1.000000        0.00307356        0.00948541        0.00447980        0.00140236
     135         -0.208967        1.000000        0.00457842        0.00710781        0.00715695        0.00977591
     136         -0.208219        1.000000        0.00117477        0.00483249        0.00275838        0.00144553
     137         -0.207756        1.000000        0.00331623        0.00353720        0.00144935        0.00496990
     138         -0.206748        1.000000        0.00297272        0.00658593        0.00427461        0.00245937
     139         -0.206531        1.000000        0.00160526        0.00555921        0.00092898        0.00216552
     140         -0.205282        1.000000        0.00651805        0.00565355        0.00525205        0.00437342
     141         -0.204990        1.000000        0.00626258        0.00333458        0.00258825        0.00449428
     142         -0.203746        1.000000        0.00212956        0.00182844        0.00307484        0.00611163
     143         -0.202228        1.000000        0.00145137        0.00256825        0.00161502        0.00293958
     144         -0.201767        1.000000        0.00777466        0.00229862        0.00480331        0.00545532
     145         -0.201568        1.000000        0.00215237        0.00272944        0.00240348        0.00349061
     146         -0.201156        1.000000        0.00260969        0.00175900        0.00223715        0.00261345
     147         -0.200150        1.000000        0.00339489        0.00247665        0.00344344        0.00280184
     148         -0.199656        1.000000        0.00437438        0.00525045        0.00608136        0.00460600
     149         -0.198864        1.000000        0.00472165        0.00098049        0.00300260        0.00340488
     150         -0.197961        1.000000        0.00638350        0.01054696        0.00203118        0.00258114
     151         -0.197225        1.000000        0.00632970        0.00125543        0.00115481        0.00091312
     152         -0.196665        1.000000        0.00707636        0.00483920        0.00488348        0.00394440
     153         -0.196484        1.000000        0.00297040        0.00365879        0.00268162        0.00271558
     154         -0.195232        1.000000        0.00864887        0.00435313        0.00347886        0.00427218
     155         -0.195073        1.000000        0.00641127        0.00163371        0.00202013        0.00301024
     156         -0.194494        1.000000        0.00242014        0.00268999        0.00122967        0.00151362
     157         -0.193668        1.000000        0.00321027        0.00071260        0.00094278        0.00071465
     158         -0.193208        1.000000        0.00312626        0.00144286        0.00127460        0.00586823
     159         -0.192823        1.000000        0.00758337        0.00068096        0.00197065        0.00445092
     160         -0.191620        1.000000        0.00917308        0.00322326        0.00222357        0.00234468
     161         -0.191486        1.000000        0.00349045        0.00268423        0.00083046        0.00239049
     162         -0.191196        1.000000        0.00563159        0.00221768        0.00223095        0.00359608
     163         -0.190939        1.000000        0.01307264        0.00174525        0.00217499        0.00547935
     164         -0.190326        1.000000        0.00924049        0.00161724        0.00149306        0.00243087
     165         -0.190078        1.000000        0.00957967        0.00122596        0.00406386        0.00527231
     166         -0.189863        1.000000        0.00406446        0.00132441        0.00288297        0.00053759
     167         -0.189558        1.000000        0.00952406        0.00068402        0.00198938        0.00379242
     168         -0.188974        1.000000        0.00895294        0.00077169        0.00232022        0.00322557
     169         -0.188525        1.000000        0.00451570        0.00049811        0.00045532        0.00055414
     170         -0.188429        1.000000        0.00171824        0.00017477        0.00041968        0.00160301
     171         -0.187709        1.000000        0.00877508        0.00110724        0.00131630        0.00142790
     172         -0.187540        1.000000        0.00302775        0.00019370        0.00047947        0.00143388
     173         -0.187016        1.000000        0.00678891        0.00077928        0.00186715        0.00151665
     174         -0.186621        1.000000        0.01213016        0.00148889        0.00196962        0.00246227
     175         -0.186125        1.000000        0.01301035        0.00082716        0.00210998        0.00201324
     176         -0.185654        1.000000        0.00470776        0.00043488        0.00077812        0.00051691
     177         -0.185370        1.000000        0.00420504        0.00042099        0.00151230        0.00031147
     178         -0.185130        1.000000        0.00736829        0.00032286        0.00113771        0.00176315
     179         -0.184944        1.000000        0.00434461        0.00035861        0.00093874        0.00052045
     180         -0.184781        1.000000        0.01245605        0.00085096        0.00336182        0.00078463
     181         -0.184274        1.000000        0.00321940        0.00041932        0.00148730        0.00026643
     182         -0.184018        1.000000        0.00766932        0.00108506        0.00092356        0.00130113
     183         -0.183822        1.000000        0.00797923        0.00067432        0.00132177        0.00077827
     184         -0.183491        1.000000        0.00495110        0.00035660        0.00131784        0.00093562
     185         -0.183167        1.000000        0.00310221        0.00093941        0.00093103        0.00118747
     186         -0.182722        1.000000        0.01555676        0.00021081        0.00147407        0.00187595
     187         -0.182637        1.000000        0.01194523        0.00081660        0.00195475        0.00151802
     188         -0.182563        1.000000        0.01566907        0.00076076        0.00090706        0.00126677
     189         -0.182208        1.000000        0.00753021        0.00035205        0.00072659        0.00094277
     190         -0.182126        1.000000        0.01672375        0.00060302        0.00131670        0.00136057
     191         -0.181848        1.000000        0.01293943        0.00063578        0.00017915        0.00203999
     192         -0.181560        1.000000        0.00727662        0.00035235        0.00142734        0.00116730
     193         -0.181279        1.000000        0.00520329        0.00024634        0.00068092        0.00033243
     194         -0.181075        1.000000        0.00312104        0.00040758        0.00065782        0.00031350
     195         -0.180938        0.000000        0.01277976        0.00070181        0.00029275        0.00074783
     196         -0.180233        0.000000        0.01115309        0.00063123        0.00099755        0.00074321
     197         -0.179432        0.000000        0.08800124        0.00464047        0.00469492        0.00327159
     198         -0.179029        0.000000        0.06076377        0.00184077        0.00605592        0.00317689
     199         -0.178888        0.000000        0.05227219        0.00125015        0.00400344        0.00391229
     200         -0.178382        0.000000        0.07392426        0.00035376        0.00641200        0.00554617
     201         -0.164267        0.000000        0.00239188        0.00013728        0.00040375        0.00266207
     202         -0.072857        0.000000        0.00535223        0.30245615        0.31245996        0.12157157
     203         -0.069308        0.000000        0.00873448        0.15595896        0.07058349        0.49987169
     204         -0.064976        0.000000        0.00524112        0.46909805        0.04667847        0.22841296
     205         -0.062454        0.000000        0.00486321        0.21801672        0.02669607        0.47093637
     206         -0.058311        0.000000        0.00339900        0.29749491        0.12389073        0.30063836
     207         -0.055859        0.000000        0.00560689        0.15244029        0.41811887        0.14018516
     208         -0.055098        0.000000        0.00258932        0.42709555        0.15457162        0.12945350
     209         -0.053227        0.000000        0.00685041        0.16298981        0.35321027        0.18998203
     210         -0.048764        0.000000        0.00351400        0.21252223        0.12204000        0.37551077
     211         -0.046712        0.000000        0.00781057        0.10717300        0.32074604        0.26419900
     212         -0.044809        0.000000        0.00245931        0.31587885        0.16360712        0.22846648
     213         -0.043474        0.000000        0.00352961        0.20991281        0.19705251        0.29226673
     214         -0.043173        0.000000        0.00223228        0.17369165        0.33293590        0.19476200
     215         -0.040702        0.000000        0.00194339        0.38318584        0.24323947        0.07385012
     216         -0.036711        0.000000        0.00443608        0.14106924        0.09106422        0.46338552
     217         -0.031494        0.000000        0.00219700        0.02932159        0.55842712        0.11192586
     218         -0.029120        0.000000        0.00116523        0.13012825        0.42661805        0.13590461
     219         -0.026889        0.000000        0.00117880        0.23471973        0.34636889        0.11009753
     220         -0.023542        0.000000        0.00037958        0.38211627        0.16669593        0.14077084
     221         -0.020331        0.000000        0.00019473        0.52948039        0.00859493        0.14501187
     222         -0.019118        0.000000        0.00028834        0.08992496        0.15788225        0.43569387
     223         -0.017784        0.000000        0.00145916        0.27747187        0.21358186        0.19499780
     224         -0.010990        0.000000        0.00046880        0.19201633        0.11391485        0.37699615
     225         -0.007667        0.000000        0.00188793        0.04307659        0.62988229        0.00459113
     226          0.084824        0.000000        0.00000188        0.00005958        0.00007451        0.00005080
     227          0.090565        0.000000        0.00000036        0.00008904        0.00005271        0.00006441
     228          0.100203        0.000000        0.00000505        0.00013231        0.00013204        0.00000415
     229          0.103130        0.000000        0.00000887        0.00034488        0.00020910        0.00022116
     230          0.104497        0.000000        0.00000167        0.00006199        0.00005309        0.00003771
     231          0.105451        0.000000        0.00000143        0.00005502        0.00000485        0.00005328
     232          0.107884        0.000000        0.00000033        0.00004071        0.00003889        0.00000922
     233          0.166342        0.000000        0.00000025        0.00000135        0.00000196        0.00000929
     234          0.171063        0.000000        0.00000102        0.00000299        0.00001664        0.00000126
     235          0.203914        0.000000        0.00000026        0.00000961        0.00000196        0.00000967
     236          0.233588        0.000000        0.00000103        0.00000106        0.00000390        0.00001217
     237          0.252630        0.000000        0.00000091        0.00001056        0.00000297        0.00000394
     238          0.282333        0.000000        0.00000073        0.00001901        0.00000694        0.00003010
     239          0.283937        0.000000        0.00002022        0.00000198        0.00001790        0.00021521
     240          0.288628        0.000000        0.00000666        0.00013825        0.00006810        0.00002127
     241          0.291613        0.000000        0.00000088        0.00016318        0.00006539        0.00004383
     242          0.292984        0.000000        0.00000568        0.00004113        0.00012380        0.00001751
     243          0.294691        0.000000        0.00000446        0.00009195        0.00008972        0.00002707
     244          0.295194        0.000000        0.00001056        0.00001496        0.00010891        0.00003946
     245          0.299139        0.000000        0.00000834        0.00000889        0.00005239        0.00014495
     246          0.301527        0.000000        0.00001640        0.00018553        0.00009511        0.00003324
     247          0.306904        0.000000        0.00000285        0.00002681        0.00003692        0.00001014
     248          0.323411        0.000000        0.00000279        0.00002194        0.00005989        0.00005984
     249          0.325697        0.000000        0.00000768        0.00000764        0.00011757        0.00000605
     250          0.328088        0.000000        0.00001167        0.00002345        0.00005881        0.00019066
     251          0.336602        0.000000        0.00000754        0.00008643        0.00011505        0.00001988
     252          0.337721        0.000000        0.00001807        0.00019122        0.00006843        0.00009957
     253          0.344819        0.000000        0.00000406        0.00004202        0.00004849        0.00002790
     254          0.442187        0.000000        0.00000075        0.00002533        0.00002688        0.00002887
     255          0.447703        0.000000        0.00000042        0.00001050        0.00001122        0.00000937
     256          0.450343        0.000000        0.00000056        0.00000792        0.00003173        0.00001485
     257          0.451422        0.000000        0.00000078        0.00000276        0.00000876        0.00001685
     258          0.459513        0.000000        0.00000124        0.00001615        0.00000471        0.00002265
     259          0.460703        0.000000        0.00000050        0.00000058        0.00001107        0.00000347