# Projected DOS for atomic kind I at iteration step i = 0, E(Fermi) =    -0.181075 a.u.
#     MO Eigenvalue [a.u.]      Occupation                 s                py                pz                px
       1         -0.977951        1.000000        0.00000304        0.00001443        0.00002996        0.00000562
       2         -0.957034        1.000000        0.00013746        0.00033476        0.00016052        0.00025725
       3         -0.951529        1.000000        0.00003604        0.00015851        0.00001791        0.00010059
       4         -0.945007        1.000000        0.00024832        0.00060852        0.00026888        0.00020086
       5         -0.944161        1.000000        0.00010334        0.00024669        0.00018552        0.00016567
       6         -0.942879        1.000000        0.00022110        0.00027121        0.00055580        0.00024592
       7         -0.935631        1.000000        0.00017167        0.00037068        0.00023638        0.00022410
       8         -0.709981        1.000000        0.00044589        0.00021239        0.00010088        0.00016577
       9         -0.703603        1.000000        0.00066062        0.00010992        0.00012196        0.00024845
      10         -0.691062        1.000000        0.00074702        0.00029042        0.00014038        0.00021287
      11         -0.690246        1.000000        0.00314765        0.00054917        0.00065859        0.00037142
      12         -0.689106        1.000000        0.00191309        0.00021944        0.00028028        0.00020815
      13         -0.683233        1.000000        0.00046193        0.00008391        0.00018767        0.00030815
      14         -0.681212        1.000000        0.00211415        0.00036426        0.00044988        0.00015277
      15         -0.638286        1.000000        0.94477206        0.00304868        0.00465742        0.01460911
      16         -0.617270        1.000000        0.95837048        0.00077738        0.00844472        0.00756648
      17         -0.609637        1.000000        0.00719257        0.00019058        0.00054365        0.00003858
      18         -0.600739        1.000000        0.79683857        0.00159793        0.00586286        0.01111625
      19         -0.596706        1.000000        0.79457965        0.00253758        0.00236712        0.00266434
      20         -0.593848        1.000000        0.79532143        0.00268512        0.00520570        0.00487570
      21         -0.592710        1.000000        0.70373341        0.00584475        0.00150257        0.00122178
      22         -0.590754        1.000000        0.53760299        0.00528189        0.00175823        0.00080010
      23         -0.587624        1.000000        0.66704290        0.00211166        0.00319498        0.00554758
      24         -0.585992        1.000000        0.78204405        0.00428559        0.00529330        0.00355576
      25         -0.585350        1.000000        0.56917570        0.00152554        0.00141134        0.00384192
      26         -0.584531        1.000000        0.56863894        0.00246478        0.00322633        0.00394856
      27         -0.583802        1.000000        0.35910939        0.00108537        0.00140383        0.00240498
      28         -0.582760        1.000000        0.84992701        0.00196829        0.00179746        0.00501604
      29         -0.581785        1.000000        0.85743867        0.00332165        0.00364482        0.00593133
      30         -0.581113        1.000000        0.20852433        0.00237278        0.00052551        0.00199301
      31         -0.579392        1.000000        0.97913867        0.00053998        0.00638539        0.00290330
      32         -0.577428        1.000000        0.69952372        0.00136633        0.00505482        0.00253301
      33         -0.576090        1.000000        0.80345650        0.00072482        0.00228224        0.00111202
      34         -0.571650        1.000000        0.60772575        0.00340940        0.00198961        0.00201879
      35         -0.571547        1.000000        0.77625128        0.00246334        0.00194434        0.00374697
      36         -0.570937        1.000000        0.72865643        0.00187441        0.00150998        0.00225070
      37         -0.570568        1.000000        0.66961139        0.00128323        0.00192485        0.00187045
      38         -0.569564        1.000000        0.85570315        0.00105450        0.00177760        0.00296789
      39         -0.568573        1.000000        0.58675709        0.00179863        0.00124645        0.00104804
      40         -0.567804        1.000000        0.26289161        0.00258938        0.00099187        0.00137347
      41         -0.566329        1.000000        0.56557539        0.00084550        0.00276225        0.00298562
      42         -0.565800        1.000000        0.64271768        0.00207906        0.00258029        0.00093869
      43         -0.564925        1.000000        0.72054896        0.00102998        0.00284751        0.00057784
      44         -0.563551        1.000000        0.56646884        0.00243449        0.00272704        0.00151722
      45         -0.563320        1.000000        0.51438713        0.00217920        0.00182246        0.00123190
      46         -0.563059        1.000000        0.47623200        0.00214973        0.00242484        0.00078028
      47         -0.561685        1.000000        0.79192364        0.00120883        0.00106286        0.00118000
      48         -0.561518        1.000000        0.80265519        0.00147170        0.00078279        0.00052449
      49         -0.561286        1.000000        0.90363155        0.00073260        0.00060364        0.00149817
      50         -0.560776        1.000000        0.88784895        0.00118996        0.00104008        0.00096747
      51         -0.559543        1.000000        0.68992904        0.00049358        0.00083713        0.00087320
      52         -0.559304        1.000000        0.85481341        0.00017991        0.00137562        0.00067469
      53         -0.559098        1.000000        0.46229142        0.00076406        0.00169047        0.00104853
      54         -0.557759        1.000000        0.96725489        0.00079167        0.00009344        0.00029798
      55         -0.557477        1.000000        0.63494874        0.00139368        0.00246768        0.00093727
      56         -0.557271        1.000000        0.62292061        0.00121422        0.00268213        0.00080461
      57         -0.555623        1.000000        0.94794057        0.00184185        0.00032495        0.00029511
      58         -0.555587        1.000000        0.77636245        0.00094095        0.00062653        0.00062687
      59         -0.554457        1.000000        0.83286410        0.00049682        0.00057505        0.00023942
      60         -0.553599        1.000000        0.46172028        0.00216491        0.00092302        0.00130603
      61         -0.553209        1.000000        0.86476802        0.00063189        0.00035576        0.00060734
      62         -0.551069        1.000000        0.56297277        0.00026636        0.00057415        0.00064706
      63         -0.548570        1.000000        0.87065363        0.00054774        0.00037743        0.00074001
      64         -0.544555        1.000000        0.25298116        0.00214865        0.00110941        0.00146464
      65         -0.498397        1.000000        0.00134327        0.00062755        0.00020142        0.00053496
      66         -0.485477        1.000000        0.00290737        0.00072007        0.00044465        0.00063964
      67         -0.475217        1.000000        0.00226492        0.00095372        0.00065568        0.00078381
      68         -0.470863        1.000000        0.00434034        0.00335587        0.00389361        0.00105385
      69         -0.469050        1.000000        0.00202923        0.00086546        0.00240892        0.00201827
      70         -0.466261        1.000000        0.00250413        0.00088861        0.00121924        0.00133229
      71         -0.461230        1.000000        0.00340181        0.00282621        0.00227880        0.00147143
      72         -0.459075        1.000000        0.10966748        0.04660798        0.04724294        0.04050641
      73         -0.456368        1.000000        0.11179979        0.03806412        0.04370707        0.02838060
      74         -0.454455        1.000000        0.12092390        0.03720249        0.03557225        0.04085996
      75         -0.453299        1.000000        0.13423785        0.03142907        0.03953784        0.04135496
      76         -0.450203        1.000000        0.13606279        0.02751888        0.03821205        0.03465412
      77         -0.448990        1.000000        0.12777917        0.03406395        0.03279613        0.02738887
      78         -0.448832        1.000000        0.12386904        0.02676681        0.03945592        0.03108275
      79         -0.444225        1.000000        0.13310870        0.02209813        0.02795703        0.02823171
      80         -0.421038        1.000000        0.00019079        0.00029268        0.00065100        0.00044131
      81         -0.419829        1.000000        0.00102866        0.00144062        0.00099104        0.00110008
      82         -0.417258        1.000000        0.00131392        0.00085819        0.00064248        0.00129262
      83         -0.416513        1.000000        0.00196541        0.00219511        0.00087950        0.00363318
      84         -0.409354        1.000000        0.00234785        0.00200613        0.00585048        0.00281068
      85         -0.406255        1.000000        0.00196683        0.00333844        0.00353763        0.00301221
      86         -0.405333        1.000000        0.00101643        0.00151010        0.00059457        0.00170278
      87         -0.404703        1.000000        0.00081729        0.00147361        0.00130214        0.00095916
      88         -0.403581        1.000000        0.00111413        0.00255303        0.00172834        0.00188355
      89         -0.402783        1.000000        0.00134494        0.00322665        0.00082302        0.00073513
      90         -0.399828        1.000000        0.00071807        0.00041487        0.00176543        0.00112344
      91         -0.398889        1.000000        0.00098463        0.00184470        0.00261613        0.00078890
      92         -0.395672        1.000000        0.00180273        0.00416501        0.00080869        0.00161578
      93         -0.395501        1.000000        0.00040462        0.00041705        0.00127089        0.00178122
      94         -0.317761        1.000000        0.02598299        0.01014215        0.23545271        0.68935517
      95         -0.291801        1.000000        0.02045185        0.00859825        0.49425216        0.42422276
      96         -0.276861        1.000000        0.00997002        0.02271790        0.59510205        0.21357548
      97         -0.272585        1.000000        0.01113635        0.32768102        0.27347059        0.09517298
      98         -0.269629        1.000000        0.01140412        0.49025599        0.15523083        0.15149218
      99         -0.269005        1.000000        0.01049077        0.37273449        0.22375252        0.14223483
     100         -0.265303        1.000000        0.01018012        0.14019282        0.09668231        0.48392752
     101         -0.264390        1.000000        0.00874011        0.29084384        0.26791100        0.21512648
     102         -0.262693        1.000000        0.00980738        0.55895948        0.09074241        0.13800346
     103         -0.260779        1.000000        0.01005863        0.21059234        0.19617441        0.35488014
     104         -0.260450        1.000000        0.00842686        0.09032617        0.31016845        0.36531925
     105         -0.257278        1.000000        0.01062613        0.18630446        0.38525031        0.15221882
     106         -0.255112        1.000000        0.01081996        0.13832253        0.39405168        0.19086913
     107         -0.252848        1.000000        0.01121748        0.31996290        0.19010205        0.26708293
     108         -0.250313        1.000000        0.01697847        0.13820948        0.22002966        0.39784099
     109         -0.248301        1.000000        0.01287264        0.38553566        0.22248070        0.13202496
     110         -0.243840        1.000000        0.01652316        0.20334073        0.14968678        0.40134989
     111         -0.243259        1.000000        0.01482662        0.17001939        0.41298135        0.18818803
     112         -0.241763        1.000000        0.01559575        0.21393565        0.35225472        0.18872524
     113         -0.240944        1.000000        0.01340344        0.17931218        0.41662550        0.16978455
     114         -0.239527        1.000000        0.01594375        0.24074762        0.20116537        0.31648439
     115         -0.237608        1.000000        0.00594944        0.28387078        0.24097302        0.34053793
     116         -0.236923        1.000000        0.00734778        0.69630710        0.09743989        0.09253450
     117         -0.235368        1.000000        0.01431750        0.39180602        0.19306963        0.18754932
     118         -0.234326        1.000000        0.00910568        0.27104186        0.19744421        0.30844155
     119         -0.232118        1.000000        0.00965570        0.33938235        0.19442456        0.28159445
     120         -0.229766        1.000000        0.00663096        0.56339760        0.21515111        0.10178065
     121         -0.227707        1.000000        0.00578376        0.40073198        0.34916475        0.14670136
     122         -0.226699        1.000000        0.00826036        0.17492149        0.45970092        0.29148984
     123         -0.224682        1.000000        0.00707074        0.29523433        0.24046808        0.31281224
     124         -0.223780        1.000000        0.00650241        0.27200351        0.39268413        0.21165142
     125         -0.221575        1.000000        0.00565869        0.27379977        0.30102374        0.33066962
     126         -0.219499        1.000000        0.00352250        0.27260932        0.31167745        0.32404918
     127         -0.218308        1.000000        0.00281127        0.23953661        0.47892473        0.21445767
     128         -0.216826        1.000000        0.00374575        0.38601261        0.16155303        0.38643465
     129         -0.215461        1.000000        0.00364172        0.26186681        0.27393576        0.38916550
     130         -0.214395        1.000000        0.00220435        0.35906096        0.25891251        0.34584827
     131         -0.213323        1.000000        0.00295760        0.40521937        0.21538401        0.33447640
     132         -0.213111        1.000000        0.00101987        0.49976711        0.17253074        0.30682438
     133         -0.211772        1.000000        0.00196070        0.51693404        0.11715445        0.34193298
     134         -0.210341        1.000000        0.00107359        0.36713420        0.33250617        0.27349549
     135         -0.208967        1.000000        0.00194786        0.31319202        0.30097835        0.35031968
     136         -0.208219        1.000000        0.00169488        0.30311361        0.41231258        0.26655090
     137         -0.207756        1.000000        0.00081423        0.31325647        0.35826206        0.31148546
     138         -0.206748        1.000000        0.00110669        0.18702482        0.39766669        0.39352260
     139         -0.206531        1.000000        0.00180583        0.35200170        0.38705636        0.24339918
     140         -0.205282        1.000000        0.00145020        0.32596326        0.25202242        0.39402478
     141         -0.204990        1.000000        0.00111467        0.19397279        0.41319564        0.37252525
     142         -0.203746        1.000000        0.00075832        0.34902763        0.38990341        0.24293878
     143         -0.202228        1.000000        0.00111159        0.57605702        0.25392179        0.15485245
     144         -0.201767        1.000000        0.00072661        0.53861205        0.24332929        0.19491741
     145         -0.201568        1.000000        0.00191462        0.57578899        0.29002866        0.11022042
     146         -0.201156        1.000000        0.00074673        0.31587433        0.27189836        0.39878489
     147         -0.200150        1.000000        0.00101663        0.35124365        0.40379172        0.22847378
     148         -0.199656        1.000000        0.00120607        0.26972937        0.36297532        0.34396660
     149         -0.198864        1.000000        0.00085363        0.38235132        0.37296625        0.22856723
     150         -0.197961        1.000000        0.00131267        0.21840099        0.48201117        0.27466262
     151         -0.197225        1.000000        0.00109977        0.22912450        0.36190381        0.39407631
     152         -0.196665        1.000000        0.00134904        0.32329125        0.36240423        0.28941849
     153         -0.196484        1.000000        0.00085438        0.32541413        0.32072798        0.33918379
     154         -0.195232        1.000000        0.00092976        0.25411295        0.40787001        0.31414481
     155         -0.195073        1.000000        0.00067457        0.29042549        0.33996662        0.35423561
     156         -0.194494        1.000000        0.00079359        0.44228024        0.32043935        0.22686581
     157         -0.193668        1.000000        0.00162860        0.38937380        0.29460131        0.30409483
     158         -0.193208        1.000000        0.00071139        0.37008878        0.24053730        0.37595595
     159         -0.192823        1.000000        0.00050153        0.39406745        0.25441285        0.33508534
     160         -0.191620        1.000000        0.00107969        0.40326902        0.21509953        0.36044493
     161         -0.191486        1.000000        0.00060319        0.47514808        0.39659381        0.11622659
     162         -0.191196        1.000000        0.00099341        0.44471219        0.27463435        0.26396928
     163         -0.190939        1.000000        0.00109300        0.43719963        0.31232938        0.22380575
     164         -0.190326        1.000000        0.00114968        0.37153168        0.21182450        0.39880006
     165         -0.190078        1.000000        0.00080723        0.32867081        0.31338310        0.33529893
     166         -0.189863        1.000000        0.00084508        0.35477056        0.25338734        0.37917807
     167         -0.189558        1.000000        0.00099342        0.30682815        0.22656864        0.44792912
     168         -0.188974        1.000000        0.00051513        0.41134780        0.26028230        0.31118955
     169         -0.188525        1.000000        0.00055386        0.15477760        0.28203714        0.55456613
     170         -0.188429        1.000000        0.00061738        0.34947554        0.10579525        0.53877005
     171         -0.187709        1.000000        0.00081001        0.21218752        0.11495988        0.65819323
     172         -0.187540        1.000000        0.00043935        0.08517417        0.40273399        0.50517100
     173         -0.187016        1.000000        0.00063279        0.20959836        0.20613550        0.57080175
     174         -0.186621        1.000000        0.00100528        0.19428667        0.48306279        0.30105177
     175         -0.186125        1.000000        0.00097558        0.22505775        0.26477397        0.48908719
     176         -0.185654        1.000000        0.00058513        0.14194226        0.33533147        0.51382117
     177         -0.185370        1.000000        0.00037435        0.33423300        0.30839940        0.34972198
     178         -0.185130        1.000000        0.00049762        0.35264528        0.24909651        0.38596589
     179         -0.184944        1.000000        0.00065957        0.21944803        0.31212970        0.46022190
     180         -0.184781        1.000000        0.00062605        0.26032261        0.23317009        0.48716559
     181         -0.184274        1.000000        0.00061888        0.23544301        0.59883662        0.15794137
     182         -0.184018        1.000000        0.00041182        0.32871038        0.37088853        0.28833582
     183         -0.183822        1.000000        0.00031871        0.30533819        0.24384584        0.43911519
     184         -0.183491        1.000000        0.00057506        0.23395504        0.55307770        0.20324686
     185         -0.183167        1.000000        0.00043960        0.61707406        0.18402696        0.19165076
     186         -0.182722        1.000000        0.00056290        0.46977330        0.34820028        0.16137392
     187         -0.182637        1.000000        0.00061014        0.37962630        0.36716708        0.23518907
     188         -0.182563        1.000000        0.00041712        0.38040571        0.29624149        0.30376956
     189         -0.182208        1.000000        0.00049355        0.41255197        0.22811443        0.34784985
     190         -0.182126        1.000000        0.00034299        0.26839563        0.51621818        0.19470148
     191         -0.181848        1.000000        0.00088604        0.26788147        0.38468654        0.32986353
     192         -0.181560        1.000000        0.00035912        0.17596246        0.66914543        0.14354357
     193         -0.181279        1.000000        0.00033799        0.20577431        0.53697392        0.25004963
     194         -0.181075        1.000000        0.00044349        0.27738417        0.35401727        0.36300480
     195         -0.180938        0.000000        0.00192289        0.19499505        0.45674735        0.33039267
     196         -0.180233        0.000000        0.00380691        0.12708242        0.42275117        0.43238900
     197         -0.179432        0.000000        0.00034056        0.29685686        0.31051601        0.29110963
     198         -0.179029        0.000000        0.00040405        0.44243516        0.27395841        0.21072824
     199         -0.178888        0.000000        0.00038838        0.46625233        0.30394219        0.16724254
     200         -0.178382        0.000000        0.00092649        0.38839786        0.24080363        0.28307697
     201         -0.164267        0.000000        0.00561451        0.01476142        0.22381175        0.74972944
     202         -0.072857        0.000000        0.01903533        0.14010811        0.06049625        0.03817680
     203         -0.069308        0.000000        0.02182286        0.03226292        0.05034376        0.15911918
     204         -0.064976        0.000000        0.03156470        0.12189841        0.03257196        0.06351008
     205         -0.062454        0.000000        0.01905007        0.15054037        0.03648464        0.07313960
     206         -0.058311        0.000000        0.02252975        0.14047747        0.05242082        0.05870478
     207         -0.055859        0.000000        0.02291481        0.05448651        0.15454425        0.05122101
     208         -0.055098        0.000000        0.01957991        0.11372544        0.08330418        0.06930847
     209         -0.053227        0.000000        0.02261169        0.05793005        0.11826698        0.08737512
     210         -0.048764        0.000000        0.02331024        0.06897037        0.04821163        0.14516278
     211         -0.046712        0.000000        0.02270436        0.04812510        0.10841275        0.11995783
     212         -0.044809        0.000000        0.02276167        0.06932927        0.07183124        0.12471866
     213         -0.043474        0.000000        0.02220986        0.06024829        0.07588619        0.13810882
     214         -0.043173        0.000000        0.02166994        0.04244848        0.11964543        0.11184343
     215         -0.040702        0.000000        0.01894425        0.14371962        0.09166608        0.04264159
     216         -0.036711        0.000000        0.01852268        0.04187529        0.03513286        0.20299734
     217         -0.031494        0.000000        0.01474920        0.02686437        0.21522743        0.04093116
     218         -0.029120        0.000000        0.01671211        0.04747757        0.17911288        0.06264859
     219         -0.026889        0.000000        0.01361744        0.15949009        0.10996957        0.02382187
     220         -0.023542        0.000000        0.01216778        0.15045340        0.11658081        0.03041047
     221         -0.020331        0.000000        0.01357822        0.26395524        0.00927008        0.02931674
     222         -0.019118        0.000000        0.01111361        0.02872880        0.05319451        0.22287813
     223         -0.017784        0.000000        0.01274980        0.10587160        0.10603985        0.08746793
     224         -0.010990        0.000000        0.01372950        0.10349515        0.06203038        0.13680827
     225         -0.007667        0.000000        0.01444898        0.02729242        0.26432143        0.01380309
     226          0.084824        0.000000        0.00001610        0.00041064        0.00018584        0.00019503
     227          0.090565        0.000000        0.00004375        0.00059800        0.00068550        0.00063184
     228          0.100203        0.000000        0.00010313        0.00109973        0.00158958        0.00027611
     229          0.103130        0.000000        0.00003807        0.00078210        0.00051484        0.00063477
     230          0.104497        0.000000        0.00008271        0.00064224        0.00094628        0.00118867
     231          0.105451        0.000000        0.00006250        0.00045259        0.00068721        0.00112205
     232          0.107884        0.000000        0.00009133        0.00101833        0.00098191        0.00036117
     233          0.166342        0.000000        0.00000271        0.00004332        0.00010039        0.00004434
     234          0.171063        0.000000        0.00000711        0.00021395        0.00004811        0.00009870
     235          0.203914        0.000000        0.00004512        0.00051931        0.00034478        0.00009003
     236          0.233588        0.000000        0.00000376        0.00008143        0.00014447        0.00009353
     237          0.252630        0.000000        0.00008372        0.00008938        0.00328153        0.00080978
     238          0.282333        0.000000        0.00058463        0.00501033        0.00019620        0.00640030
     239          0.283937        0.000000        0.00005211        0.00063594        0.00201202        0.00086114
     240          0.288628        0.000000        0.00063063        0.00516869        0.00367226        0.00371288
     241          0.291613        0.000000        0.00102290        0.00463688        0.00083751        0.00534618
     242          0.292984        0.000000        0.00025525        0.00480460        0.00033232        0.00268903
     243          0.294691        0.000000        0.00085229        0.01216983        0.00077896        0.00191451
     244          0.295194        0.000000        0.00039324        0.00489260        0.00501940        0.00296908
     245          0.299139        0.000000        0.00033538        0.00162444        0.00337494        0.00124403
     246          0.301527        0.000000        0.00078870        0.00133597        0.00852970        0.00513058
     247          0.306904        0.000000        0.00029156        0.00435102        0.00289388        0.00198365
     248          0.323411        0.000000        0.00067550        0.00613434        0.00051295        0.00713740
     249          0.325697        0.000000        0.00040188        0.00620549        0.00036707        0.00416333
     250          0.328088        0.000000        0.00056832        0.00490878        0.00409429        0.00224208
     251          0.336602        0.000000        0.00101343        0.01059701        0.00311537        0.00439506
     252          0.337721        0.000000        0.00107194        0.00247409        0.00892777        0.00545622
     253          0.344819        0.000000        0.00060977        0.00670659        0.00519863        0.00462248
     254          0.442187        0.000000        0.00003243        0.00014860        0.00012512        0.00033759
     255          0.447703        0.000000        0.00003653        0.00027807        0.00019506        0.00034197
     256          0.450343        0.000000        0.00002553        0.00021086        0.00002718        0.00002062
     257          0.451422        0.000000        0.00003914        0.00047605        0.00034203        0.00052462
     258          0.459513        0.000000        0.00005778        0.00037027        0.00085050        0.00042554
     259          0.460703        0.000000        0.00005562        0.00046931        0.00006015        0.00017216