# Projected DOS for atomic kind C at iteration step i = 0, E(Fermi) =    -0.181129 a.u.
#     MO Eigenvalue [a.u.]      Occupation                 s                py                pz                px
       1         -0.978118        1.000000        0.05884528        0.00084670        0.00164575        0.04356176
       2         -0.957216        1.000000        0.06653531        0.00094714        0.01998066        0.02582415
       3         -0.951699        1.000000        0.06378805        0.00544346        0.02218396        0.01931634
       4         -0.945193        1.000000        0.05992425        0.00017302        0.00561917        0.03798775
       5         -0.944362        1.000000        0.06063362        0.01765364        0.01379257        0.01352302
       6         -0.943081        1.000000        0.06343659        0.00603879        0.00013881        0.03861892
       7         -0.935820        1.000000        0.06095633        0.00000420        0.01223901        0.03175963
       8         -0.710161        1.000000        0.42859518        0.00014491        0.00001237        0.00019362
       9         -0.703785        1.000000        0.43408307        0.00000273        0.00110118        0.00106507
      10         -0.691251        1.000000        0.43093980        0.00014237        0.00022668        0.00096415
      11         -0.690460        1.000000        0.43675324        0.00018261        0.00001714        0.00181802
      12         -0.689302        1.000000        0.43938771        0.00011652        0.00014642        0.00091737
      13         -0.683439        1.000000        0.43798223        0.00052147        0.00051905        0.00015059
      14         -0.681434        1.000000        0.43890095        0.00000076        0.00049848        0.00066351
      15         -0.638275        1.000000        0.00089647        0.00064478        0.00010279        0.00018169
      16         -0.617782        1.000000        0.00012244        0.00036018        0.00006918        0.00007431
      17         -0.609828        1.000000        0.00004750        0.00782710        0.03799434        0.00328434
      18         -0.601176        1.000000        0.00006146        0.00454561        0.00398239        0.00103595
      19         -0.597191        1.000000        0.00051458        0.00310798        0.00373871        0.00109793
      20         -0.594553        1.000000        0.00060665        0.00342960        0.00265440        0.00114657
      21         -0.593161        1.000000        0.00032122        0.00965040        0.00321945        0.00161647
      22         -0.591487        1.000000        0.00045476        0.01268410        0.00633405        0.00609346
      23         -0.588367        1.000000        0.00052546        0.00455447        0.00625216        0.00342198
      24         -0.587300        1.000000        0.00056286        0.00160472        0.00208494        0.00138723
      25         -0.585960        1.000000        0.00057347        0.01122689        0.00773599        0.00356895
      26         -0.585460        1.000000        0.00026620        0.00760077        0.00626175        0.00238159
      27         -0.584215        1.000000        0.00127463        0.03795283        0.00949001        0.00158552
      28         -0.583150        1.000000        0.00044008        0.00600005        0.00251569        0.00029683
      29         -0.582694        1.000000        0.00013031        0.00083186        0.00028789        0.00009520
      30         -0.581282        1.000000        0.00006865        0.04094902        0.00361614        0.00186001
      31         -0.579705        1.000000        0.00000138        0.00010603        0.00011033        0.00000845
      32         -0.577781        1.000000        0.00037376        0.00509767        0.00413710        0.00194081
      33         -0.576881        1.000000        0.00029589        0.00576515        0.00300009        0.00224745
      34         -0.572440        1.000000        0.00033556        0.01867657        0.00147860        0.00159821
      35         -0.572187        1.000000        0.00007990        0.00526919        0.00133408        0.00057437
      36         -0.571917        1.000000        0.00010477        0.00160214        0.00186047        0.00065966
      37         -0.571008        1.000000        0.00072251        0.01096369        0.01387246        0.00526851
      38         -0.569756        1.000000        0.00017455        0.00103770        0.00305708        0.00139102
      39         -0.569282        1.000000        0.00124519        0.00162700        0.01641626        0.00961827
      40         -0.568165        1.000000        0.00038649        0.01700726        0.02465889        0.00427514
      41         -0.566686        1.000000        0.00018528        0.00894538        0.01039133        0.00295258
      42         -0.566398        1.000000        0.00042405        0.00572983        0.01283170        0.00708343
      43         -0.565923        1.000000        0.00001568        0.00051443        0.00110454        0.00042409
      44         -0.564620        1.000000        0.00011190        0.00815953        0.00213280        0.00122427
      45         -0.563757        1.000000        0.00002993        0.01188047        0.01564299        0.00440015
      46         -0.563626        1.000000        0.00002085        0.01641520        0.00313562        0.02693610
      47         -0.562750        1.000000        0.00012978        0.00842360        0.01209466        0.00130520
      48         -0.561864        1.000000        0.00001772        0.01084303        0.00492459        0.00578643
      49         -0.561532        1.000000        0.00000393        0.00032526        0.00056805        0.00028592
      50         -0.560206        1.000000        0.00002333        0.00335540        0.00339760        0.00150914
      51         -0.559538        1.000000        0.00005350        0.02933731        0.00169051        0.00560893
      52         -0.559248        1.000000        0.00007439        0.00259221        0.00150101        0.00224465
      53         -0.559086        1.000000        0.00002830        0.00791808        0.00205406        0.00310119
      54         -0.558253        1.000000        0.00008607        0.00165540        0.00556300        0.00122132
      55         -0.558141        1.000000        0.00006810        0.00116780        0.00043147        0.00056836
      56         -0.557805        1.000000        0.00028641        0.00102601        0.03802138        0.00268569
      57         -0.556491        1.000000        0.00000115        0.00009864        0.00001046        0.00000904
      58         -0.555619        1.000000        0.00005249        0.00112808        0.00383305        0.00379624
      59         -0.554528        1.000000        0.00000291        0.00419562        0.00598008        0.00262213
      60         -0.554277        1.000000        0.00014410        0.00329020        0.00474844        0.00319124
      61         -0.553913        1.000000        0.00063000        0.01764538        0.01294759        0.00746805
      62         -0.552062        1.000000        0.00008504        0.00524787        0.02030574        0.00750484
      63         -0.550316        1.000000        0.00018735        0.00346521        0.00030505        0.00919113
      64         -0.545093        1.000000        0.00018945        0.03890116        0.01119963        0.00655871
      65         -0.498560        1.000000        0.03471251        0.01215049        0.00915579        0.31391697
      66         -0.485657        1.000000        0.02255946        0.00389933        0.14569044        0.19340381
      67         -0.475389        1.000000        0.02655504        0.03893148        0.14316223        0.15553251
      68         -0.471059        1.000000        0.02343130        0.01425074        0.03247328        0.29223765
      69         -0.469249        1.000000        0.02285759        0.02741012        0.02018754        0.29576512
      70         -0.466463        1.000000        0.02599004        0.13319928        0.11219167        0.09374347
      71         -0.461442        1.000000        0.02466693        0.00016263        0.10355946        0.23427825
      72         -0.459582        1.000000        0.00013192        0.00038734        0.00068146        0.00124565
      73         -0.456930        1.000000        0.00012040        0.00063140        0.00095823        0.00086727
      74         -0.455126        1.000000        0.00001900        0.00036065        0.00030047        0.00030283
      75         -0.454235        1.000000        0.00007076        0.00020644        0.00027326        0.00139645
      76         -0.451171        1.000000        0.00026629        0.00055075        0.00088383        0.00197330
      77         -0.449480        1.000000        0.00002124        0.00066661        0.00023980        0.00010565
      78         -0.449136        1.000000        0.00018568        0.00056970        0.00196917        0.00210515
      79         -0.444699        1.000000        0.00016254        0.00050462        0.00055666        0.00175010
      80         -0.421210        1.000000        0.00000231        0.20313569        0.21968094        0.10686644
      81         -0.420000        1.000000        0.00000019        0.06289905        0.46028897        0.02803456
      82         -0.417450        1.000000        0.00000031        0.31479763        0.08654089        0.12676014
      83         -0.416681        1.000000        0.00000018        0.45745018        0.07128061        0.00445606
      84         -0.409569        1.000000        0.00000334        0.04594156        0.47348348        0.00150425
      85         -0.406468        1.000000        0.00001783        0.41022515        0.05075257        0.06275118
      86         -0.405531        1.000000        0.00000413        0.28538192        0.21150657        0.03753845
      87         -0.404894        1.000000        0.00002243        0.14068399        0.34949368        0.04595145
      88         -0.403779        1.000000        0.00000633        0.19451336        0.07405909        0.26374229
      89         -0.402977        1.000000        0.00000188        0.39189172        0.10616805        0.03490838
      90         -0.400026        1.000000        0.00007411        0.02194589        0.16180196        0.34822804
      91         -0.399109        1.000000        0.00001004        0.04817900        0.33791821        0.14413733
      92         -0.395901        1.000000        0.00000213        0.48293003        0.03505854        0.01166840
      93         -0.395709        1.000000        0.00000894        0.30650639        0.20838077        0.02804312
      94         -0.317888        1.000000        0.00006936        0.00058791        0.00020742        0.00015706
      95         -0.292305        1.000000        0.00008468        0.00064438        0.00018441        0.00013936
      96         -0.277186        1.000000        0.00008440        0.00008764        0.00025013        0.00006673
      97         -0.273040        1.000000        0.00001152        0.00001581        0.00011450        0.00005210
      98         -0.270432        1.000000        0.00005473        0.00037282        0.00015056        0.00084543
      99         -0.269931        1.000000        0.00006067        0.00026407        0.00030870        0.00010420
     100         -0.266801        1.000000        0.00015181        0.00037354        0.00027054        0.00023210
     101         -0.264997        1.000000        0.00006723        0.00021162        0.00006653        0.00030245
     102         -0.263561        1.000000        0.00015970        0.00012816        0.00006354        0.00033686
     103         -0.261772        1.000000        0.00009230        0.00023131        0.00013824        0.00067476
     104         -0.261364        1.000000        0.00005042        0.00053906        0.00007072        0.00015842
     105         -0.257984        1.000000        0.00002089        0.00072338        0.00005095        0.00009779
     106         -0.255977        1.000000        0.00003828        0.00025579        0.00011141        0.00005088
     107         -0.253858        1.000000        0.00021936        0.00100404        0.00006295        0.00046576
     108         -0.251452        1.000000        0.00025259        0.00059441        0.00005419        0.00018473
     109         -0.249760        1.000000        0.00016475        0.00030204        0.00017731        0.00049100
     110         -0.244673        1.000000        0.00022773        0.00023827        0.00019611        0.00029018
     111         -0.244293        1.000000        0.00039909        0.00035850        0.00030432        0.00051389
     112         -0.242624        1.000000        0.00017286        0.00024305        0.00018190        0.00039557
     113         -0.242082        1.000000        0.00021785        0.00035443        0.00036662        0.00022038
     114         -0.240278        1.000000        0.00025568        0.00058224        0.00034321        0.00049511
     115         -0.238005        1.000000        0.00044378        0.00037748        0.00052650        0.00157078
     116         -0.237513        1.000000        0.00022272        0.00033853        0.00014380        0.00116847
     117         -0.236272        1.000000        0.00007865        0.00020719        0.00015252        0.00016008
     118         -0.234986        1.000000        0.00017874        0.00025318        0.00026841        0.00017037
     119         -0.232750        1.000000        0.00015965        0.00077750        0.00019069        0.00013974
     120         -0.230430        1.000000        0.00017533        0.00014966        0.00060855        0.00107784
     121         -0.228155        1.000000        0.00056471        0.00033105        0.00182860        0.00017066
     122         -0.227232        1.000000        0.00042268        0.00110443        0.00009740        0.00061257
     123         -0.225667        1.000000        0.00006001        0.00040213        0.00019848        0.00057405
     124         -0.224683        1.000000        0.00036846        0.00037679        0.00039290        0.00010137
     125         -0.222544        1.000000        0.00023845        0.00036161        0.00011562        0.00010410
     126         -0.219976        1.000000        0.00013028        0.00035924        0.00050952        0.00028194
     127         -0.219145        1.000000        0.00031451        0.00056130        0.00113500        0.00060102
     128         -0.217831        1.000000        0.00023806        0.00065732        0.00014611        0.00042750
     129         -0.216668        1.000000        0.00034015        0.00048285        0.00025375        0.00031804
     130         -0.215307        1.000000        0.00006858        0.00094244        0.00052281        0.00078747
     131         -0.213992        1.000000        0.00102221        0.00077425        0.00011870        0.00046273
     132         -0.213334        1.000000        0.00024225        0.00090418        0.00036628        0.00064937
     133         -0.212561        1.000000        0.00021337        0.00051429        0.00026894        0.00037402
     134         -0.210815        1.000000        0.00019927        0.00095500        0.00037351        0.00016014
     135         -0.209847        1.000000        0.00018172        0.00072408        0.00020397        0.00007459
     136         -0.208753        1.000000        0.00026766        0.00058040        0.00018437        0.00030444
     137         -0.208084        1.000000        0.00015351        0.00038175        0.00013726        0.00010707
     138         -0.207703        1.000000        0.00027405        0.00068587        0.00017067        0.00020209
     139         -0.207149        1.000000        0.00020411        0.00049774        0.00054381        0.00029946
     140         -0.206035        1.000000        0.00004405        0.00016245        0.00061985        0.00007701
     141         -0.205625        1.000000        0.00016191        0.00006329        0.00011358        0.00008366
     142         -0.204740        1.000000        0.00012915        0.00047055        0.00050611        0.00006117
     143         -0.202885        1.000000        0.00004620        0.00015178        0.00007573        0.00025880
     144         -0.202410        1.000000        0.00011250        0.00030883        0.00117495        0.00018477
     145         -0.202273        1.000000        0.00022320        0.00028104        0.00004842        0.00025469
     146         -0.201852        1.000000        0.00006826        0.00003453        0.00005895        0.00015627
     147         -0.201004        1.000000        0.00011594        0.00024655        0.00006381        0.00015375
     148         -0.200557        1.000000        0.00007813        0.00031776        0.00021884        0.00015061
     149         -0.199419        1.000000        0.00009768        0.00015516        0.00011966        0.00010427
     150         -0.198582        1.000000        0.00006066        0.00006992        0.00013678        0.00009339
     151         -0.198252        1.000000        0.00009145        0.00019322        0.00007635        0.00027930
     152         -0.196475        1.000000        0.00008460        0.00014224        0.00007589        0.00038734
     153         -0.195929        1.000000        0.00007898        0.00013845        0.00009938        0.00004333
     154         -0.195504        1.000000        0.00002425        0.00037234        0.00023018        0.00008055
     155         -0.195081        1.000000        0.00011801        0.00009763        0.00022942        0.00004899
     156         -0.194179        1.000000        0.00006982        0.00020880        0.00010042        0.00008712
     157         -0.193723        1.000000        0.00004529        0.00024299        0.00012029        0.00009027
     158         -0.192845        1.000000        0.00005263        0.00019312        0.00016116        0.00012313
     159         -0.192498        1.000000        0.00002110        0.00015263        0.00005377        0.00014870
     160         -0.192168        1.000000        0.00004015        0.00013512        0.00013038        0.00013885
     161         -0.191626        1.000000        0.00007089        0.00003476        0.00012561        0.00014598
     162         -0.191174        1.000000        0.00001565        0.00006411        0.00020305        0.00006426
     163         -0.190986        1.000000        0.00003673        0.00030638        0.00009516        0.00008755
     164         -0.190765        1.000000        0.00014789        0.00015820        0.00011325        0.00012377
     165         -0.190573        1.000000        0.00008562        0.00011024        0.00021129        0.00009025
     166         -0.190312        1.000000        0.00005309        0.00014673        0.00012094        0.00041241
     167         -0.190113        1.000000        0.00006590        0.00019616        0.00010198        0.00009330
     168         -0.189557        1.000000        0.00002815        0.00024460        0.00014842        0.00011750
     169         -0.188826        1.000000        0.00009481        0.00009941        0.00012218        0.00008783
     170         -0.188335        1.000000        0.00011258        0.00025160        0.00018363        0.00016304
     171         -0.188247        1.000000        0.00015383        0.00008469        0.00020188        0.00012218
     172         -0.187325        1.000000        0.00011271        0.00006133        0.00012245        0.00013851
     173         -0.187148        1.000000        0.00007615        0.00015784        0.00006023        0.00009958
     174         -0.186609        1.000000        0.00001466        0.00018360        0.00004709        0.00007880
     175         -0.186087        1.000000        0.00002921        0.00002280        0.00013813        0.00004575
     176         -0.185721        1.000000        0.00009585        0.00002022        0.00009818        0.00004800
     177         -0.185421        1.000000        0.00001290        0.00007287        0.00008205        0.00006033
     178         -0.184992        1.000000        0.00005663        0.00010056        0.00014668        0.00007071
     179         -0.184593        1.000000        0.00003889        0.00008312        0.00008222        0.00028740
     180         -0.184407        1.000000        0.00022963        0.00009932        0.00016282        0.00004577
     181         -0.184340        1.000000        0.00010590        0.00004876        0.00003462        0.00002523
     182         -0.184097        1.000000        0.00001767        0.00014878        0.00007934        0.00001692
     183         -0.183910        1.000000        0.00005480        0.00010633        0.00005415        0.00001717
     184         -0.183693        1.000000        0.00004719        0.00011155        0.00001204        0.00010392
     185         -0.183450        1.000000        0.00001377        0.00010130        0.00005476        0.00006037
     186         -0.183287        1.000000        0.00002730        0.00010295        0.00003612        0.00007638
     187         -0.183011        1.000000        0.00005083        0.00008550        0.00005209        0.00002670
     188         -0.182670        1.000000        0.00003186        0.00003495        0.00002030        0.00003430
     189         -0.182290        1.000000        0.00001823        0.00001814        0.00004584        0.00003518
     190         -0.181836        1.000000        0.00000523        0.00003347        0.00001754        0.00003371
     191         -0.181562        1.000000        0.00001777        0.00003194        0.00003440        0.00001830
     192         -0.181432        1.000000        0.00015144        0.00003607        0.00004366        0.00025485
     193         -0.181261        1.000000        0.00001910        0.00002895        0.00004954        0.00006416
     194         -0.181161        1.000000        0.00000553        0.00004888        0.00015471        0.00015803
     195         -0.181129        1.000000        0.00001407        0.00004125        0.00002569        0.00020815
     196         -0.180952        0.000000        0.00002511        0.00006851        0.00002003        0.00001748
     197         -0.180914        0.000000        0.00003385        0.00004252        0.00002164        0.00001634
     198         -0.180418        0.000000        0.00002008        0.00002038        0.00001050        0.00006133
     199         -0.180072        0.000000        0.00000963        0.00006521        0.00001133        0.00000933
     200         -0.179763        0.000000        0.00001185        0.00006568        0.00002278        0.00001260
     201         -0.164403        0.000000        0.00001515        0.00004992        0.00000733        0.00000828
     202         -0.073371        0.000000        0.00001199        0.00002932        0.00002650        0.00008836
     203         -0.069735        0.000000        0.00005206        0.00003009        0.00011866        0.00003171
     204         -0.065354        0.000000        0.00002367        0.00002861        0.00000767        0.00007530
     205         -0.062755        0.000000        0.00001755        0.00002284        0.00000702        0.00001897
     206         -0.058509        0.000000        0.00000731        0.00001181        0.00001242        0.00001504
     207         -0.056254        0.000000        0.00001697        0.00000322        0.00002617        0.00001488
     208         -0.055483        0.000000        0.00001082        0.00001119        0.00000843        0.00001219
     209         -0.053571        0.000000        0.00001854        0.00000917        0.00001434        0.00005576
     210         -0.049083        0.000000        0.00005191        0.00008201        0.00000762        0.00001449
     211         -0.047215        0.000000        0.00003122        0.00003381        0.00004213        0.00001928
     212         -0.045134        0.000000        0.00005675        0.00002319        0.00001456        0.00002525
     213         -0.043896        0.000000        0.00002462        0.00000870        0.00004363        0.00002521
     214         -0.043659        0.000000        0.00001070        0.00001858        0.00001844        0.00001375
     215         -0.041412        0.000000        0.00003200        0.00000878        0.00006107        0.00008119
     216         -0.037571        0.000000        0.00002066        0.00003070        0.00000515        0.00002147
     217         -0.031990        0.000000        0.00002376        0.00003952        0.00001632        0.00006366
     218         -0.029922        0.000000        0.00000677        0.00003316        0.00000572        0.00002112
     219         -0.027291        0.000000        0.00001456        0.00002143        0.00002262        0.00005028
     220         -0.023942        0.000000        0.00002446        0.00000646        0.00001631        0.00004688
     221         -0.021262        0.000000        0.00003279        0.00006301        0.00003086        0.00001966
     222         -0.019884        0.000000        0.00001896        0.00001708        0.00000350        0.00002292
     223         -0.018448        0.000000        0.00001226        0.00000280        0.00001273        0.00002664
     224         -0.011585        0.000000        0.00001293        0.00000878        0.00001442        0.00004948
     225         -0.008013        0.000000        0.00001217        0.00000759        0.00001938        0.00002575
     226          0.084663        0.000000        0.08635919        0.01343142        0.02122082        0.51782156
     227          0.090399        0.000000        0.08444768        0.00936377        0.24112984        0.29248504
     228          0.100035        0.000000        0.08154494        0.01427129        0.07082727        0.46260986
     229          0.102962        0.000000        0.08350393        0.06401703        0.24149433        0.24288185
     230          0.104302        0.000000        0.07889347        0.06148799        0.01611643        0.47110913
     231          0.105277        0.000000        0.08350656        0.20639294        0.17134550        0.17263850
     232          0.107696        0.000000        0.07886547        0.00050444        0.15608637        0.39457515
     233          0.166169        0.000000        0.00045138        0.00033057        0.00005688        0.00001228
     234          0.170891        0.000000        0.00194411        0.00022689        0.00142583        0.00023313
     235          0.203713        0.000000        0.00155600        0.00142160        0.00011336        0.00057829
     236          0.233408        0.000000        0.00299811        0.00012011        0.00134776        0.00302524
     237          0.252341        0.000000        0.00096660        0.00066554        0.00000556        0.00374524
     238          0.282159        0.000000        0.00004749        0.00054485        0.00372903        0.00402880
     239          0.283742        0.000000        0.00183551        0.00157422        0.00320460        0.00002247
     240          0.288483        0.000000        0.00000707        0.00020538        0.00711078        0.00024216
     241          0.291440        0.000000        0.00001432        0.00234171        0.00307056        0.00064097
     242          0.292804        0.000000        0.00003020        0.00574103        0.00062057        0.00035775
     243          0.294466        0.000000        0.00011467        0.00751210        0.00005776        0.00011341
     244          0.295018        0.000000        0.00001661        0.00415591        0.00116478        0.00107721
     245          0.298916        0.000000        0.00025039        0.00263460        0.00691668        0.00007384
     246          0.301337        0.000000        0.00004478        0.00117145        0.00686987        0.00051699
     247          0.306724        0.000000        0.00001965        0.00392917        0.00301401        0.00068627
     248          0.323238        0.000000        0.00378266        0.00531696        0.00035859        0.00000444
     249          0.325508        0.000000        0.00345049        0.00000865        0.00180986        0.00234683
     250          0.327862        0.000000        0.00380449        0.00120529        0.00003678        0.00163824
     251          0.336428        0.000000        0.00542642        0.00001769        0.00027702        0.00004466
     252          0.337530        0.000000        0.00505922        0.00005221        0.00004613        0.00010567
     253          0.344633        0.000000        0.00561910        0.00000473        0.00009108        0.00004245
     254          0.442025        0.000000        0.00001267        0.26607401        0.04467605        0.07824701
     255          0.447559        0.000000        0.00050977        0.12479591        0.26468113        0.00287311
     256          0.450183        0.000000        0.00028741        0.11859454        0.17549328        0.09919077
     257          0.451281        0.000000        0.00107644        0.25724141        0.11149643        0.01908346
     258          0.459337        0.000000        0.00117478        0.29746920        0.03627814        0.05669873
     259          0.460539        0.000000        0.00001567        0.36735951        0.01235315        0.01227685