# Projected DOS for atomic kind H at iteration step i = 0, E(Fermi) =    -0.181075 a.u.
#     MO Eigenvalue [a.u.]      Occupation                 s
       1         -0.977951        1.000000        0.26949260
       2         -0.957034        1.000000        0.27001584
       3         -0.951529        1.000000        0.26843032
       4         -0.945007        1.000000        0.28244952
       5         -0.944161        1.000000        0.27712986
       6         -0.942879        1.000000        0.28008136
       7         -0.935631        1.000000        0.28101806
       8         -0.709981        1.000000        0.32879801
       9         -0.703603        1.000000        0.34801000
      10         -0.691062        1.000000        0.34045209
      11         -0.690246        1.000000        0.34850982
      12         -0.689106        1.000000        0.34356657
      13         -0.683233        1.000000        0.34189577
      14         -0.681212        1.000000        0.34438776
      15         -0.638286        1.000000        0.00805149
      16         -0.617270        1.000000        0.00096165
      17         -0.609637        1.000000        0.33189955
      18         -0.600739        1.000000        0.05702798
      19         -0.596706        1.000000        0.04377118
      20         -0.593848        1.000000        0.04450704
      21         -0.592710        1.000000        0.09228697
      22         -0.590754        1.000000        0.14262971
      23         -0.587624        1.000000        0.09287125
      24         -0.585992        1.000000        0.04441424
      25         -0.585350        1.000000        0.13285578
      26         -0.584531        1.000000        0.12942312
      27         -0.583802        1.000000        0.19690391
      28         -0.582760        1.000000        0.03993862
      29         -0.581785        1.000000        0.00966904
      30         -0.581113        1.000000        0.26039014
      31         -0.579392        1.000000        0.00130679
      32         -0.577428        1.000000        0.07048588
      33         -0.576090        1.000000        0.05405974
      34         -0.571650        1.000000        0.10816946
      35         -0.571547        1.000000        0.05884490
      36         -0.570937        1.000000        0.07428972
      37         -0.570568        1.000000        0.09474598
      38         -0.569564        1.000000        0.02863756
      39         -0.568573        1.000000        0.12329271
      40         -0.567804        1.000000        0.23621226
      41         -0.566329        1.000000        0.12100708
      42         -0.565800        1.000000        0.10213269
      43         -0.564925        1.000000        0.07723102
      44         -0.563551        1.000000        0.12912744
      45         -0.563320        1.000000        0.15106123
      46         -0.563059        1.000000        0.16868195
      47         -0.561685        1.000000        0.05462829
      48         -0.561518        1.000000        0.05038386
      49         -0.561286        1.000000        0.02063865
      50         -0.560776        1.000000        0.02467831
      51         -0.559543        1.000000        0.08720078
      52         -0.559304        1.000000        0.03547962
      53         -0.559098        1.000000        0.16625305
      54         -0.557759        1.000000        0.00626091
      55         -0.557477        1.000000        0.10699509
      56         -0.557271        1.000000        0.11121357
      57         -0.555623        1.000000        0.00771970
      58         -0.555587        1.000000        0.06606686
      59         -0.554457        1.000000        0.04489855
      60         -0.553599        1.000000        0.16085302
      61         -0.553209        1.000000        0.03999677
      62         -0.551069        1.000000        0.13311711
      63         -0.548570        1.000000        0.03816426
      64         -0.544555        1.000000        0.22564237
      65         -0.498397        1.000000        0.19732042
      66         -0.485477        1.000000        0.18144559
      67         -0.475217        1.000000        0.18631592
      68         -0.470863        1.000000        0.17581159
      69         -0.469050        1.000000        0.17657238
      70         -0.466261        1.000000        0.18189109
      71         -0.461230        1.000000        0.17708615
      72         -0.459075        1.000000        0.00111184
      73         -0.456368        1.000000        0.00118708
      74         -0.454455        1.000000        0.00067023
      75         -0.453299        1.000000        0.00101255
      76         -0.450203        1.000000        0.00159856
      77         -0.448990        1.000000        0.00073504
      78         -0.448832        1.000000        0.00230307
      79         -0.444225        1.000000        0.00122125
      80         -0.421038        1.000000        0.42500523
      81         -0.419829        1.000000        0.41714222
      82         -0.417258        1.000000        0.42198430
      83         -0.416513        1.000000        0.41851565
      84         -0.409354        1.000000        0.42412172
      85         -0.406255        1.000000        0.42075107
      86         -0.405333        1.000000        0.42177306
      87         -0.404703        1.000000        0.42259433
      88         -0.403581        1.000000        0.42050971
      89         -0.402783        1.000000        0.42150236
      90         -0.399828        1.000000        0.42281211
      91         -0.398889        1.000000        0.42403618
      92         -0.395672        1.000000        0.42098713
      93         -0.395501        1.000000        0.41836282
      94         -0.317761        1.000000        0.00094998
      95         -0.291801        1.000000        0.00045589
      96         -0.276861        1.000000        0.00043892
      97         -0.272585        1.000000        0.00026629
      98         -0.269629        1.000000        0.00079230
      99         -0.269005        1.000000        0.00061399
     100         -0.265303        1.000000        0.00063447
     101         -0.264390        1.000000        0.00032387
     102         -0.262693        1.000000        0.00050528
     103         -0.260779        1.000000        0.00065589
     104         -0.260450        1.000000        0.00036472
     105         -0.257278        1.000000        0.00045920
     106         -0.255112        1.000000        0.00036642
     107         -0.252848        1.000000        0.00106222
     108         -0.250313        1.000000        0.00039861
     109         -0.248301        1.000000        0.00063815
     110         -0.243840        1.000000        0.00064647
     111         -0.243259        1.000000        0.00059968
     112         -0.241763        1.000000        0.00066342
     113         -0.240944        1.000000        0.00079496
     114         -0.239527        1.000000        0.00108742
     115         -0.237608        1.000000        0.00264138
     116         -0.236923        1.000000        0.00061267
     117         -0.235368        1.000000        0.00054231
     118         -0.234326        1.000000        0.00070498
     119         -0.232118        1.000000        0.00060244
     120         -0.229766        1.000000        0.00127046
     121         -0.227707        1.000000        0.00147399
     122         -0.226699        1.000000        0.00134519
     123         -0.224682        1.000000        0.00100830
     124         -0.223780        1.000000        0.00086005
     125         -0.221575        1.000000        0.00041921
     126         -0.219499        1.000000        0.00177001
     127         -0.218308        1.000000        0.00131399
     128         -0.216826        1.000000        0.00187627
     129         -0.215461        1.000000        0.00092206
     130         -0.214395        1.000000        0.00218636
     131         -0.213323        1.000000        0.00119358
     132         -0.213111        1.000000        0.00147801
     133         -0.211772        1.000000        0.00084156
     134         -0.210341        1.000000        0.00094767
     135         -0.208967        1.000000        0.00074583
     136         -0.208219        1.000000        0.00109410
     137         -0.207756        1.000000        0.00058013
     138         -0.206748        1.000000        0.00087373
     139         -0.206531        1.000000        0.00077314
     140         -0.205282        1.000000        0.00090108
     141         -0.204990        1.000000        0.00056873
     142         -0.203746        1.000000        0.00082061
     143         -0.202228        1.000000        0.00092063
     144         -0.201767        1.000000        0.00042051
     145         -0.201568        1.000000        0.00183923
     146         -0.201156        1.000000        0.00053150
     147         -0.200150        1.000000        0.00056921
     148         -0.199656        1.000000        0.00029234
     149         -0.198864        1.000000        0.00063020
     150         -0.197961        1.000000        0.00045091
     151         -0.197225        1.000000        0.00074040
     152         -0.196665        1.000000        0.00047583
     153         -0.196484        1.000000        0.00034326
     154         -0.195232        1.000000        0.00037090
     155         -0.195073        1.000000        0.00029683
     156         -0.194494        1.000000        0.00032493
     157         -0.193668        1.000000        0.00082903
     158         -0.193208        1.000000        0.00022737
     159         -0.192823        1.000000        0.00026126
     160         -0.191620        1.000000        0.00069264
     161         -0.191486        1.000000        0.00041035
     162         -0.191196        1.000000        0.00039728
     163         -0.190939        1.000000        0.00069012
     164         -0.190326        1.000000        0.00030606
     165         -0.190078        1.000000        0.00033316
     166         -0.189863        1.000000        0.00059681
     167         -0.189558        1.000000        0.00025849
     168         -0.188974        1.000000        0.00026507
     169         -0.188525        1.000000        0.00037008
     170         -0.188429        1.000000        0.00022601
     171         -0.187709        1.000000        0.00020343
     172         -0.187540        1.000000        0.00021779
     173         -0.187016        1.000000        0.00031652
     174         -0.186621        1.000000        0.00040998
     175         -0.186125        1.000000        0.00026474
     176         -0.185654        1.000000        0.00034903
     177         -0.185370        1.000000        0.00023431
     178         -0.185130        1.000000        0.00026720
     179         -0.184944        1.000000        0.00037732
     180         -0.184781        1.000000        0.00022339
     181         -0.184274        1.000000        0.00036311
     182         -0.184018        1.000000        0.00013631
     183         -0.183822        1.000000        0.00012849
     184         -0.183491        1.000000        0.00026193
     185         -0.183167        1.000000        0.00006747
     186         -0.182722        1.000000        0.00016162
     187         -0.182637        1.000000        0.00026771
     188         -0.182563        1.000000        0.00008995
     189         -0.182208        1.000000        0.00031690
     190         -0.182126        1.000000        0.00006237
     191         -0.181848        1.000000        0.00018533
     192         -0.181560        1.000000        0.00015961
     193         -0.181279        1.000000        0.00008156
     194         -0.181075        1.000000        0.00017215
     195         -0.180938        0.000000        0.00029992
     196         -0.180233        0.000000        0.00007430
     197         -0.179432        0.000000        0.00013931
     198         -0.179029        0.000000        0.00009611
     199         -0.178888        0.000000        0.00011040
     200         -0.178382        0.000000        0.00015473
     201         -0.164267        0.000000        0.00013135
     202         -0.072857        0.000000        0.00006438
     203         -0.069308        0.000000        0.00038565
     204         -0.064976        0.000000        0.00036164
     205         -0.062454        0.000000        0.00007939
     206         -0.058311        0.000000        0.00017170
     207         -0.055859        0.000000        0.00017135
     208         -0.055098        0.000000        0.00012972
     209         -0.053227        0.000000        0.00027371
     210         -0.048764        0.000000        0.00027803
     211         -0.046712        0.000000        0.00030267
     212         -0.044809        0.000000        0.00035479
     213         -0.043474        0.000000        0.00029306
     214         -0.043173        0.000000        0.00029535
     215         -0.040702        0.000000        0.00025205
     216         -0.036711        0.000000        0.00061663
     217         -0.031494        0.000000        0.00009239
     218         -0.029120        0.000000        0.00007968
     219         -0.026889        0.000000        0.00025483
     220         -0.023542        0.000000        0.00014212
     221         -0.020331        0.000000        0.00017684
     222         -0.019118        0.000000        0.00010216
     223         -0.017784        0.000000        0.00012699
     224         -0.010990        0.000000        0.00021514
     225         -0.007667        0.000000        0.00028427
     226          0.084824        0.000000        0.00689232
     227          0.090565        0.000000        0.00486566
     228          0.100203        0.000000        0.00464562
     229          0.103130        0.000000        0.00571320
     230          0.104497        0.000000        0.00447397
     231          0.105451        0.000000        0.00383358
     232          0.107884        0.000000        0.00427601
     233          0.166342        0.000000        0.66464671
     234          0.171063        0.000000        0.65890828
     235          0.203914        0.000000        0.65836604
     236          0.233588        0.000000        0.65038514
     237          0.252630        0.000000        0.66378528
     238          0.282333        0.000000        0.66773547
     239          0.283937        0.000000        0.65567755
     240          0.288628        0.000000        0.66235987
     241          0.291613        0.000000        0.66383444
     242          0.292984        0.000000        0.66549852
     243          0.294691        0.000000        0.65924714
     244          0.295194        0.000000        0.66297896
     245          0.299139        0.000000        0.66397315
     246          0.301527        0.000000        0.66183999
     247          0.306904        0.000000        0.66151402
     248          0.323411        0.000000        0.64243948
     249          0.325697        0.000000        0.64385467
     250          0.328088        0.000000        0.64037248
     251          0.336602        0.000000        0.62967779
     252          0.337721        0.000000        0.63091761
     253          0.344819        0.000000        0.63101554
     254          0.442187        0.000000        0.58452232
     255          0.447703        0.000000        0.58909812
     256          0.450343        0.000000        0.58162648
     257          0.451422        0.000000        0.58933309
     258          0.459513        0.000000        0.58302108
     259          0.460703        0.000000        0.58208761
     260          0.461158        0.000000        0.58301437
     261          0.461636        0.000000        0.58817147
     262          0.463678        0.000000        0.58377194
     263          0.465671        0.000000        0.58242401
     264          0.467218        0.000000        0.57756916
     265          0.469559        0.000000        0.58316906
     266          0.472204        0.000000        0.58036652
     267          0.480042        0.000000        0.58440180
     268          0.550472        0.000000        0.55157597
     269          0.560039        0.000000        0.55316451
     270          0.560528        0.000000        0.55191795
     271          0.563261        0.000000        0.55240389
     272          0.565344        0.000000        0.55328744
     273          0.570522        0.000000        0.55186624
     274          0.572692        0.000000        0.55279612
