# Projected DOS for atomic kind H at iteration step i = 0, E(Fermi) =    -0.181129 a.u.
#     MO Eigenvalue [a.u.]      Occupation                 s
       1         -0.978118        1.000000        0.26953209
       2         -0.957216        1.000000        0.27003327
       3         -0.951699        1.000000        0.26844292
       4         -0.945193        1.000000        0.28248311
       5         -0.944362        1.000000        0.27717849
       6         -0.943081        1.000000        0.28010119
       7         -0.935820        1.000000        0.28105954
       8         -0.710161        1.000000        0.32878590
       9         -0.703785        1.000000        0.34801492
      10         -0.691251        1.000000        0.34048632
      11         -0.690460        1.000000        0.34855697
      12         -0.689302        1.000000        0.34353075
      13         -0.683439        1.000000        0.34191972
      14         -0.681434        1.000000        0.34440192
      15         -0.638275        1.000000        0.00810829
      16         -0.617782        1.000000        0.00096194
      17         -0.609828        1.000000        0.33188056
      18         -0.601176        1.000000        0.05539133
      19         -0.597191        1.000000        0.04333008
      20         -0.594553        1.000000        0.04498545
      21         -0.593161        1.000000        0.09232455
      22         -0.591487        1.000000        0.13002008
      23         -0.588367        1.000000        0.08083846
      24         -0.587300        1.000000        0.03393801
      25         -0.585960        1.000000        0.12076038
      26         -0.585460        1.000000        0.10054403
      27         -0.584215        1.000000        0.24573752
      28         -0.583150        1.000000        0.05234798
      29         -0.582694        1.000000        0.00657968
      30         -0.581282        1.000000        0.26093884
      31         -0.579705        1.000000        0.00099295
      32         -0.577781        1.000000        0.06840535
      33         -0.576881        1.000000        0.05730847
      34         -0.572440        1.000000        0.10056817
      35         -0.572187        1.000000        0.04539732
      36         -0.571917        1.000000        0.01703050
      37         -0.571008        1.000000        0.14322247
      38         -0.569756        1.000000        0.02850044
      39         -0.569282        1.000000        0.12933622
      40         -0.568165        1.000000        0.25071117
      41         -0.566686        1.000000        0.10947459
      42         -0.566398        1.000000        0.12819604
      43         -0.565923        1.000000        0.01226623
      44         -0.564620        1.000000        0.05900574
      45         -0.563757        1.000000        0.17786261
      46         -0.563626        1.000000        0.22539464
      47         -0.562750        1.000000        0.10969786
      48         -0.561864        1.000000        0.07515083
      49         -0.561532        1.000000        0.00505748
      50         -0.560206        1.000000        0.03651346
      51         -0.559538        1.000000        0.17669295
      52         -0.559248        1.000000        0.02863788
      53         -0.559086        1.000000        0.05290763
      54         -0.558253        1.000000        0.03540946
      55         -0.558141        1.000000        0.00738830
      56         -0.557805        1.000000        0.17921069
      57         -0.556491        1.000000        0.00081898
      58         -0.555619        1.000000        0.04079341
      59         -0.554528        1.000000        0.04410781
      60         -0.554277        1.000000        0.05786392
      61         -0.553913        1.000000        0.16167905
      62         -0.552062        1.000000        0.14450570
      63         -0.550316        1.000000        0.05627439
      64         -0.545093        1.000000        0.23234636
      65         -0.498560        1.000000        0.19735018
      66         -0.485657        1.000000        0.18148591
      67         -0.475389        1.000000        0.18630835
      68         -0.471059        1.000000        0.17572990
      69         -0.469249        1.000000        0.17658894
      70         -0.466463        1.000000        0.18182783
      71         -0.461442        1.000000        0.17703523
      72         -0.459582        1.000000        0.00123855
      73         -0.456930        1.000000        0.00124698
      74         -0.455126        1.000000        0.00065687
      75         -0.454235        1.000000        0.00099809
      76         -0.451171        1.000000        0.00166985
      77         -0.449480        1.000000        0.00073879
      78         -0.449136        1.000000        0.00230027
      79         -0.444699        1.000000        0.00123770
      80         -0.421210        1.000000        0.42501016
      81         -0.420000        1.000000        0.41714573
      82         -0.417450        1.000000        0.42200113
      83         -0.416681        1.000000        0.41848773
      84         -0.409569        1.000000        0.42412971
      85         -0.406468        1.000000        0.42075486
      86         -0.405531        1.000000        0.42177896
      87         -0.404894        1.000000        0.42262742
      88         -0.403779        1.000000        0.42054083
      89         -0.402977        1.000000        0.42152179
      90         -0.400026        1.000000        0.42282534
      91         -0.399109        1.000000        0.42406092
      92         -0.395901        1.000000        0.42104847
      93         -0.395709        1.000000        0.41839501
      94         -0.317888        1.000000        0.00095129
      95         -0.292305        1.000000        0.00045318
      96         -0.277186        1.000000        0.00043095
      97         -0.273040        1.000000        0.00025834
      98         -0.270432        1.000000        0.00084006
      99         -0.269931        1.000000        0.00049668
     100         -0.266801        1.000000        0.00062129
     101         -0.264997        1.000000        0.00032830
     102         -0.263561        1.000000        0.00041303
     103         -0.261772        1.000000        0.00076120
     104         -0.261364        1.000000        0.00034920
     105         -0.257984        1.000000        0.00044454
     106         -0.255977        1.000000        0.00036976
     107         -0.253858        1.000000        0.00098966
     108         -0.251452        1.000000        0.00032508
     109         -0.249760        1.000000        0.00071232
     110         -0.244673        1.000000        0.00058274
     111         -0.244293        1.000000        0.00061737
     112         -0.242624        1.000000        0.00061756
     113         -0.242082        1.000000        0.00077627
     114         -0.240278        1.000000        0.00105962
     115         -0.238005        1.000000        0.00265025
     116         -0.237513        1.000000        0.00061628
     117         -0.236272        1.000000        0.00054627
     118         -0.234986        1.000000        0.00079401
     119         -0.232750        1.000000        0.00056194
     120         -0.230430        1.000000        0.00119132
     121         -0.228155        1.000000        0.00147993
     122         -0.227232        1.000000        0.00135497
     123         -0.225667        1.000000        0.00100836
     124         -0.224683        1.000000        0.00069173
     125         -0.222544        1.000000        0.00039865
     126         -0.219976        1.000000        0.00176460
     127         -0.219145        1.000000        0.00141023
     128         -0.217831        1.000000        0.00174360
     129         -0.216668        1.000000        0.00125086
     130         -0.215307        1.000000        0.00210364
     131         -0.213992        1.000000        0.00134149
     132         -0.213334        1.000000        0.00135074
     133         -0.212561        1.000000        0.00090056
     134         -0.210815        1.000000        0.00094182
     135         -0.209847        1.000000        0.00072619
     136         -0.208753        1.000000        0.00083748
     137         -0.208084        1.000000        0.00075602
     138         -0.207703        1.000000        0.00083649
     139         -0.207149        1.000000        0.00077547
     140         -0.206035        1.000000        0.00078781
     141         -0.205625        1.000000        0.00047074
     142         -0.204740        1.000000        0.00079471
     143         -0.202885        1.000000        0.00149851
     144         -0.202410        1.000000        0.00057784
     145         -0.202273        1.000000        0.00103451
     146         -0.201852        1.000000        0.00088856
     147         -0.201004        1.000000        0.00062206
     148         -0.200557        1.000000        0.00045770
     149         -0.199419        1.000000        0.00048370
     150         -0.198582        1.000000        0.00048403
     151         -0.198252        1.000000        0.00086501
     152         -0.196475        1.000000        0.00034089
     153         -0.195929        1.000000        0.00023035
     154         -0.195504        1.000000        0.00054302
     155         -0.195081        1.000000        0.00038699
     156         -0.194179        1.000000        0.00053109
     157         -0.193723        1.000000        0.00053353
     158         -0.192845        1.000000        0.00055380
     159         -0.192498        1.000000        0.00048872
     160         -0.192168        1.000000        0.00050756
     161         -0.191626        1.000000        0.00074708
     162         -0.191174        1.000000        0.00021668
     163         -0.190986        1.000000        0.00028228
     164         -0.190765        1.000000        0.00035771
     165         -0.190573        1.000000        0.00026890
     166         -0.190312        1.000000        0.00052110
     167         -0.190113        1.000000        0.00025094
     168         -0.189557        1.000000        0.00061402
     169         -0.188826        1.000000        0.00053246
     170         -0.188335        1.000000        0.00024192
     171         -0.188247        1.000000        0.00020372
     172         -0.187325        1.000000        0.00046677
     173         -0.187148        1.000000        0.00014980
     174         -0.186609        1.000000        0.00030644
     175         -0.186087        1.000000        0.00034281
     176         -0.185721        1.000000        0.00013457
     177         -0.185421        1.000000        0.00026456
     178         -0.184992        1.000000        0.00027327
     179         -0.184593        1.000000        0.00035977
     180         -0.184407        1.000000        0.00014041
     181         -0.184340        1.000000        0.00014881
     182         -0.184097        1.000000        0.00019152
     183         -0.183910        1.000000        0.00020070
     184         -0.183693        1.000000        0.00013359
     185         -0.183450        1.000000        0.00041721
     186         -0.183287        1.000000        0.00007580
     187         -0.183011        1.000000        0.00020153
     188         -0.182670        1.000000        0.00014590
     189         -0.182290        1.000000        0.00015628
     190         -0.181836        1.000000        0.00012390
     191         -0.181562        1.000000        0.00013556
     192         -0.181432        1.000000        0.00013387
     193         -0.181261        1.000000        0.00015198
     194         -0.181161        1.000000        0.00017631
     195         -0.181129        1.000000        0.00011626
     196         -0.180952        0.000000        0.00011413
     197         -0.180914        0.000000        0.00008018
     198         -0.180418        0.000000        0.00013841
     199         -0.180072        0.000000        0.00010426
     200         -0.179763        0.000000        0.00016084
     201         -0.164403        0.000000        0.00013061
     202         -0.073371        0.000000        0.00006417
     203         -0.069735        0.000000        0.00038018
     204         -0.065354        0.000000        0.00036404
     205         -0.062755        0.000000        0.00007501
     206         -0.058509        0.000000        0.00016700
     207         -0.056254        0.000000        0.00017337
     208         -0.055483        0.000000        0.00013381
     209         -0.053571        0.000000        0.00027464
     210         -0.049083        0.000000        0.00028138
     211         -0.047215        0.000000        0.00030248
     212         -0.045134        0.000000        0.00038032
     213         -0.043896        0.000000        0.00019731
     214         -0.043659        0.000000        0.00033678
     215         -0.041412        0.000000        0.00027881
     216         -0.037571        0.000000        0.00061862
     217         -0.031990        0.000000        0.00009271
     218         -0.029922        0.000000        0.00007910
     219         -0.027291        0.000000        0.00025822
     220         -0.023942        0.000000        0.00014431
     221         -0.021262        0.000000        0.00017503
     222         -0.019884        0.000000        0.00011097
     223         -0.018448        0.000000        0.00012472
     224         -0.011585        0.000000        0.00021938
     225         -0.008013        0.000000        0.00028291
     226          0.084663        0.000000        0.00689985
     227          0.090399        0.000000        0.00487647
     228          0.100035        0.000000        0.00464903
     229          0.102962        0.000000        0.00572395
     230          0.104302        0.000000        0.00448067
     231          0.105277        0.000000        0.00384229
     232          0.107696        0.000000        0.00428121
     233          0.166169        0.000000        0.66458530
     234          0.170891        0.000000        0.65884945
     235          0.203713        0.000000        0.65829450
     236          0.233408        0.000000        0.65031381
     237          0.252341        0.000000        0.66370895
     238          0.282159        0.000000        0.66773808
     239          0.283742        0.000000        0.65560890
     240          0.288483        0.000000        0.66234310
     241          0.291440        0.000000        0.66381996
     242          0.292804        0.000000        0.66549663
     243          0.294466        0.000000        0.65917183
     244          0.295018        0.000000        0.66298150
     245          0.298916        0.000000        0.66389175
     246          0.301337        0.000000        0.66180852
     247          0.306724        0.000000        0.66141530
     248          0.323238        0.000000        0.64242196
     249          0.325508        0.000000        0.64385586
     250          0.327862        0.000000        0.64031283
     251          0.336428        0.000000        0.62963987
     252          0.337530        0.000000        0.63087387
     253          0.344633        0.000000        0.63095570
     254          0.442025        0.000000        0.58452167
     255          0.447559        0.000000        0.58912072
     256          0.450183        0.000000        0.58163711
     257          0.451281        0.000000        0.58937710
     258          0.459337        0.000000        0.58305044
     259          0.460539        0.000000        0.58208613
     260          0.460977        0.000000        0.58300216
     261          0.461455        0.000000        0.58815773
     262          0.463511        0.000000        0.58376542
     263          0.465501        0.000000        0.58240664
     264          0.467040        0.000000        0.57758718
     265          0.469359        0.000000        0.58313734
     266          0.472015        0.000000        0.58035391
     267          0.479875        0.000000        0.58439740
     268          0.550319        0.000000        0.55156475
     269          0.559872        0.000000        0.55314568
     270          0.560360        0.000000        0.55192039
     271          0.563138        0.000000        0.55241903
     272          0.565141        0.000000        0.55326034
     273          0.570346        0.000000        0.55184440
     274          0.572517        0.000000        0.55277785
