# Projected DOS for atomic kind C at iteration step i = 0, E(Fermi) =    -0.181075 a.u.
#     MO Eigenvalue [a.u.]      Occupation                 s                py                pz                px
       1         -0.977951        1.000000        0.05882517        0.00084618        0.00164545        0.04355162
       2         -0.957034        1.000000        0.06651388        0.00094657        0.01997425        0.02581822
       3         -0.951529        1.000000        0.06376041        0.00544224        0.02217739        0.01931159
       4         -0.945007        1.000000        0.05990187        0.00017286        0.00561851        0.03797536
       5         -0.944161        1.000000        0.06061625        0.01764826        0.01378965        0.01351995
       6         -0.942879        1.000000        0.06340262        0.00603560        0.00013879        0.03860584
       7         -0.935631        1.000000        0.06092489        0.00000422        0.01223543        0.03174882
       8         -0.709981        1.000000        0.42861453        0.00014520        0.00001236        0.00019481
       9         -0.703603        1.000000        0.43411681        0.00000272        0.00110297        0.00106534
      10         -0.691062        1.000000        0.43096903        0.00014207        0.00022663        0.00096302
      11         -0.690246        1.000000        0.43679174        0.00018258        0.00001783        0.00181320
      12         -0.689106        1.000000        0.43943293        0.00011733        0.00014590        0.00092358
      13         -0.683233        1.000000        0.43800853        0.00052389        0.00051732        0.00015024
      14         -0.681212        1.000000        0.43896404        0.00000079        0.00049771        0.00066511
      15         -0.638286        1.000000        0.00089982        0.00063716        0.00010183        0.00017988
      16         -0.617270        1.000000        0.00012264        0.00036133        0.00006937        0.00007437
      17         -0.609637        1.000000        0.00004764        0.00781328        0.03799441        0.00327648
      18         -0.600739        1.000000        0.00005504        0.00472566        0.00403579        0.00103268
      19         -0.596706        1.000000        0.00051122        0.00276670        0.00387279        0.00105959
      20         -0.593848        1.000000        0.00063436        0.00348872        0.00263077        0.00111888
      21         -0.592710        1.000000        0.00025356        0.00982981        0.00283352        0.00127408
      22         -0.590754        1.000000        0.00049770        0.01355637        0.00755738        0.00732866
      23         -0.587624        1.000000        0.00050880        0.00569336        0.00731750        0.00388035
      24         -0.585992        1.000000        0.00045350        0.00231643        0.00300623        0.00161547
      25         -0.585350        1.000000        0.00065664        0.01440950        0.00770346        0.00348056
      26         -0.584531        1.000000        0.00042717        0.01437945        0.00644840        0.00196871
      27         -0.583802        1.000000        0.00110525        0.02848010        0.00780500        0.00130857
      28         -0.582760        1.000000        0.00042233        0.00453159        0.00213452        0.00026872
      29         -0.581785        1.000000        0.00013433        0.00119438        0.00025419        0.00013832
      30         -0.581113        1.000000        0.00007451        0.04072934        0.00364557        0.00184245
      31         -0.579392        1.000000        0.00000160        0.00013502        0.00012549        0.00001094
      32         -0.577428        1.000000        0.00023627        0.00775333        0.00300466        0.00206617
      33         -0.576090        1.000000        0.00041146        0.00210164        0.00475651        0.00203260
      34         -0.571650        1.000000        0.00043600        0.01827044        0.00230927        0.00221099
      35         -0.571547        1.000000        0.00024633        0.00544266        0.00322162        0.00120365
      36         -0.570937        1.000000        0.00029466        0.00736877        0.00695399        0.00213853
      37         -0.570568        1.000000        0.00052677        0.00669089        0.00938063        0.00345648
      38         -0.569564        1.000000        0.00020120        0.00098839        0.00309683        0.00151523
      39         -0.568573        1.000000        0.00098434        0.00368526        0.01464414        0.00861162
      40         -0.567804        1.000000        0.00034304        0.01534394        0.02341095        0.00429521
      41         -0.566329        1.000000        0.00060834        0.00542131        0.01102643        0.00866464
      42         -0.565800        1.000000        0.00005091        0.01025900        0.00955160        0.00120259
      43         -0.564925        1.000000        0.00000626        0.00517946        0.00803920        0.00104652
      44         -0.563551        1.000000        0.00006986        0.00984741        0.00293917        0.01300928
      45         -0.563320        1.000000        0.00004420        0.01075821        0.00504236        0.01459624
      46         -0.563059        1.000000        0.00004279        0.01275718        0.01285851        0.00516013
      47         -0.561685        1.000000        0.00010929        0.00613856        0.00449912        0.00120978
      48         -0.561518        1.000000        0.00004213        0.00571632        0.00407301        0.00259813
      49         -0.561286        1.000000        0.00003590        0.00131593        0.00272641        0.00037732
      50         -0.560776        1.000000        0.00001937        0.00232880        0.00265324        0.00117919
      51         -0.559543        1.000000        0.00002611        0.01287769        0.00391222        0.00521594
      52         -0.559304        1.000000        0.00009184        0.00253100        0.00216177        0.00296991
      53         -0.559098        1.000000        0.00003589        0.02793050        0.00240229        0.00456238
      54         -0.557759        1.000000        0.00006303        0.00094646        0.00050949        0.00043099
      55         -0.557477        1.000000        0.00020098        0.00251809        0.02109222        0.00215048
      56         -0.557271        1.000000        0.00019600        0.00195792        0.02162474        0.00209325
      57         -0.555623        1.000000        0.00000348        0.00022600        0.00055606        0.00076646
      58         -0.555587        1.000000        0.00003032        0.00190151        0.00488431        0.00666953
      59         -0.554457        1.000000        0.00000303        0.00419431        0.00611919        0.00267842
      60         -0.553599        1.000000        0.00061976        0.01669348        0.01394574        0.00773982
      61         -0.553209        1.000000        0.00012089        0.00302139        0.00241135        0.00194294
      62         -0.551069        1.000000        0.00010385        0.00378614        0.01913110        0.00785871
      63         -0.548570        1.000000        0.00020107        0.00241344        0.00005589        0.00675284
      64         -0.544555        1.000000        0.00018365        0.03875152        0.01040861        0.00616163
      65         -0.498397        1.000000        0.03470182        0.01213980        0.00914848        0.31386702
      66         -0.485477        1.000000        0.02255409        0.00389578        0.14567873        0.19336107
      67         -0.475217        1.000000        0.02657583        0.03891514        0.14315858        0.15549774
      68         -0.470863        1.000000        0.02345867        0.01408239        0.03273041        0.29225776
      69         -0.469050        1.000000        0.02284380        0.02758634        0.01995261        0.29583728
      70         -0.466261        1.000000        0.02600885        0.13335149        0.11211975        0.09374694
      71         -0.461230        1.000000        0.02468674        0.00016211        0.10354843        0.23434862
      72         -0.459075        1.000000        0.00011264        0.00039401        0.00061612        0.00104932
      73         -0.456368        1.000000        0.00010630        0.00062731        0.00089464        0.00082541
      74         -0.454455        1.000000        0.00001816        0.00040251        0.00030234        0.00027462
      75         -0.453299        1.000000        0.00006765        0.00022066        0.00032552        0.00136246
      76         -0.450203        1.000000        0.00025786        0.00049404        0.00092588        0.00181580
      77         -0.448990        1.000000        0.00002894        0.00062582        0.00036043        0.00014433
      78         -0.448832        1.000000        0.00017321        0.00062049        0.00178593        0.00212903
      79         -0.444225        1.000000        0.00016158        0.00047490        0.00053544        0.00173711
      80         -0.421038        1.000000        0.00000226        0.20321109        0.21962123        0.10685260
      81         -0.419829        1.000000        0.00000018        0.06317480        0.45999190        0.02803964
      82         -0.417258        1.000000        0.00000031        0.31479151        0.08657366        0.12674905
      83         -0.416513        1.000000        0.00000017        0.45708273        0.07158295        0.00448112
      84         -0.409354        1.000000        0.00000341        0.04596069        0.47346064        0.00151560
      85         -0.406255        1.000000        0.00001777        0.40994724        0.05104092        0.06274522
      86         -0.405333        1.000000        0.00000407        0.28456561        0.21196615        0.03791437
      87         -0.404703        1.000000        0.00002252        0.14116872        0.34903609        0.04594055
      88         -0.403581        1.000000        0.00000635        0.19546575        0.07356847        0.26335833
      89         -0.402783        1.000000        0.00000189        0.39154748        0.10644317        0.03498252
      90         -0.399828        1.000000        0.00007366        0.02160317        0.16260108        0.34776034
      91         -0.398889        1.000000        0.00000983        0.04814534        0.33801104        0.14411842
      92         -0.395672        1.000000        0.00000221        0.48303562        0.03503685        0.01166188
      93         -0.395501        1.000000        0.00000965        0.30675854        0.20770297        0.02848734
      94         -0.317761        1.000000        0.00006935        0.00058691        0.00020857        0.00015655
      95         -0.291801        1.000000        0.00008670        0.00065314        0.00018573        0.00014200
      96         -0.276861        1.000000        0.00008382        0.00009007        0.00024567        0.00007137
      97         -0.272585        1.000000        0.00001307        0.00001659        0.00011198        0.00005494
      98         -0.269629        1.000000        0.00006714        0.00029196        0.00016581        0.00082226
      99         -0.269005        1.000000        0.00006568        0.00031127        0.00029647        0.00022657
     100         -0.265303        1.000000        0.00017706        0.00038702        0.00028300        0.00023128
     101         -0.264390        1.000000        0.00004880        0.00023560        0.00004314        0.00027292
     102         -0.262693        1.000000        0.00018193        0.00010072        0.00004721        0.00044547
     103         -0.260779        1.000000        0.00007365        0.00025310        0.00016881        0.00055655
     104         -0.260450        1.000000        0.00004120        0.00054274        0.00007715        0.00015880
     105         -0.257278        1.000000        0.00001811        0.00073082        0.00005234        0.00010336
     106         -0.255112        1.000000        0.00003253        0.00020985        0.00012010        0.00005505
     107         -0.252848        1.000000        0.00023152        0.00112696        0.00007051        0.00049914
     108         -0.250313        1.000000        0.00029544        0.00071943        0.00005014        0.00020008
     109         -0.248301        1.000000        0.00010516        0.00011457        0.00017538        0.00042818
     110         -0.243840        1.000000        0.00019512        0.00005232        0.00016897        0.00044998
     111         -0.243259        1.000000        0.00040478        0.00061982        0.00035653        0.00040633
     112         -0.241763        1.000000        0.00017665        0.00017509        0.00015711        0.00041275
     113         -0.240944        1.000000        0.00025107        0.00035665        0.00038727        0.00020864
     114         -0.239527        1.000000        0.00027686        0.00067366        0.00033788        0.00047906
     115         -0.237608        1.000000        0.00045506        0.00032279        0.00051283        0.00154210
     116         -0.236923        1.000000        0.00024422        0.00037894        0.00017292        0.00116348
     117         -0.235368        1.000000        0.00010274        0.00020051        0.00018253        0.00015487
     118         -0.234326        1.000000        0.00016731        0.00023619        0.00026035        0.00014186
     119         -0.232118        1.000000        0.00017557        0.00076055        0.00017088        0.00016855
     120         -0.229766        1.000000        0.00024336        0.00018885        0.00081690        0.00095557
     121         -0.227707        1.000000        0.00052805        0.00041012        0.00164594        0.00026873
     122         -0.226699        1.000000        0.00041500        0.00109401        0.00011822        0.00063103
     123         -0.224682        1.000000        0.00009783        0.00043272        0.00015623        0.00048074
     124         -0.223780        1.000000        0.00033186        0.00031289        0.00045619        0.00023031
     125         -0.221575        1.000000        0.00023192        0.00048304        0.00016982        0.00010564
     126         -0.219499        1.000000        0.00011293        0.00031032        0.00042401        0.00029869
     127         -0.218308        1.000000        0.00034527        0.00056940        0.00113256        0.00066015
     128         -0.216826        1.000000        0.00023310        0.00068306        0.00015230        0.00045406
     129         -0.215461        1.000000        0.00037659        0.00046207        0.00023613        0.00029870
     130         -0.214395        1.000000        0.00007845        0.00100036        0.00055783        0.00084487
     131         -0.213323        1.000000        0.00057344        0.00026721        0.00017835        0.00045780
     132         -0.213111        1.000000        0.00056690        0.00131880        0.00023496        0.00050174
     133         -0.211772        1.000000        0.00022744        0.00052609        0.00024874        0.00035360
     134         -0.210341        1.000000        0.00024772        0.00125744        0.00042318        0.00016957
     135         -0.208967        1.000000        0.00019719        0.00059681        0.00014413        0.00006426
     136         -0.208219        1.000000        0.00023086        0.00036775        0.00014423        0.00032461
     137         -0.207756        1.000000        0.00014133        0.00031998        0.00006199        0.00009770
     138         -0.206748        1.000000        0.00016258        0.00045621        0.00009915        0.00019526
     139         -0.206531        1.000000        0.00021508        0.00049093        0.00095266        0.00026033
     140         -0.205282        1.000000        0.00013147        0.00030272        0.00028756        0.00009531
     141         -0.204990        1.000000        0.00014836        0.00013141        0.00013349        0.00010884
     142         -0.203746        1.000000        0.00011813        0.00047693        0.00077955        0.00008416
     143         -0.202228        1.000000        0.00008563        0.00012929        0.00021154        0.00010538
     144         -0.201767        1.000000        0.00012010        0.00019116        0.00007425        0.00006306
     145         -0.201568        1.000000        0.00017907        0.00013092        0.00007362        0.00043343
     146         -0.201156        1.000000        0.00012620        0.00046558        0.00083999        0.00012608
     147         -0.200150        1.000000        0.00009182        0.00012728        0.00006898        0.00012847
     148         -0.199656        1.000000        0.00006165        0.00006721        0.00007323        0.00007406
     149         -0.198864        1.000000        0.00004720        0.00005214        0.00016057        0.00009797
     150         -0.197961        1.000000        0.00002188        0.00007932        0.00010129        0.00014546
     151         -0.197225        1.000000        0.00004842        0.00058606        0.00012978        0.00008145
     152         -0.196665        1.000000        0.00011129        0.00020639        0.00015656        0.00019131
     153         -0.196484        1.000000        0.00010489        0.00025633        0.00018938        0.00007574
     154         -0.195232        1.000000        0.00014058        0.00008873        0.00006208        0.00034261
     155         -0.195073        1.000000        0.00008609        0.00014290        0.00018994        0.00009867
     156         -0.194494        1.000000        0.00004765        0.00012037        0.00005709        0.00018517
     157         -0.193668        1.000000        0.00003288        0.00017468        0.00005825        0.00004730
     158         -0.193208        1.000000        0.00006701        0.00014650        0.00024645        0.00004917
     159         -0.192823        1.000000        0.00003418        0.00018056        0.00004146        0.00008596
     160         -0.191620        1.000000        0.00002781        0.00005859        0.00010092        0.00016427
     161         -0.191486        1.000000        0.00011021        0.00015144        0.00020479        0.00012736
     162         -0.191196        1.000000        0.00004780        0.00009055        0.00007468        0.00007717
     163         -0.190939        1.000000        0.00000940        0.00014654        0.00013691        0.00025665
     164         -0.190326        1.000000        0.00005693        0.00012120        0.00012038        0.00011641
     165         -0.190078        1.000000        0.00015358        0.00006428        0.00012389        0.00009968
     166         -0.189863        1.000000        0.00002010        0.00003700        0.00001805        0.00022314
     167         -0.189558        1.000000        0.00007619        0.00024136        0.00009133        0.00009315
     168         -0.188974        1.000000        0.00002335        0.00019140        0.00028711        0.00003929
     169         -0.188525        1.000000        0.00015044        0.00029794        0.00025707        0.00003772
     170         -0.188429        1.000000        0.00011597        0.00020463        0.00015709        0.00015705
     171         -0.187709        1.000000        0.00026192        0.00008719        0.00006571        0.00015735
     172         -0.187540        1.000000        0.00013163        0.00013287        0.00013615        0.00041524
     173         -0.187016        1.000000        0.00007016        0.00010295        0.00026961        0.00024234
     174         -0.186621        1.000000        0.00007381        0.00027412        0.00009277        0.00015490
     175         -0.186125        1.000000        0.00001675        0.00005536        0.00006631        0.00030478
     176         -0.185654        1.000000        0.00002564        0.00013376        0.00011338        0.00001930
     177         -0.185370        1.000000        0.00008511        0.00010571        0.00003953        0.00004894
     178         -0.185130        1.000000        0.00003213        0.00003910        0.00002679        0.00003557
     179         -0.184944        1.000000        0.00009880        0.00011257        0.00012972        0.00003530
     180         -0.184781        1.000000        0.00000774        0.00008788        0.00015672        0.00006667
     181         -0.184274        1.000000        0.00002648        0.00008864        0.00003268        0.00006057
     182         -0.184018        1.000000        0.00002076        0.00003351        0.00011017        0.00006138
     183         -0.183822        1.000000        0.00004484        0.00006181        0.00005806        0.00002544
     184         -0.183491        1.000000        0.00003332        0.00004755        0.00002859        0.00012916
     185         -0.183167        1.000000        0.00005406        0.00008530        0.00008937        0.00010759
     186         -0.182722        1.000000        0.00004369        0.00008022        0.00005469        0.00006572
     187         -0.182637        1.000000        0.00007482        0.00003667        0.00005671        0.00004160
     188         -0.182563        1.000000        0.00001913        0.00002013        0.00003702        0.00006918
     189         -0.182208        1.000000        0.00001821        0.00004243        0.00005241        0.00003935
     190         -0.182126        1.000000        0.00001934        0.00003095        0.00000883        0.00005472
     191         -0.181848        1.000000        0.00002435        0.00003083        0.00005048        0.00008756
     192         -0.181560        1.000000        0.00000847        0.00006932        0.00006482        0.00004329
     193         -0.181279        1.000000        0.00002115        0.00002233        0.00002179        0.00003392
     194         -0.181075        1.000000        0.00001236        0.00004889        0.00003529        0.00001509
     195         -0.180938        0.000000        0.00001121        0.00004983        0.00004379        0.00005035
     196         -0.180233        0.000000        0.00002781        0.00005578        0.00004722        0.00000615
     197         -0.179432        0.000000        0.00003093        0.00009001        0.00002730        0.00005326
     198         -0.179029        0.000000        0.00004035        0.00014987        0.00004498        0.00003496
     199         -0.178888        0.000000        0.00006483        0.00009613        0.00000664        0.00011648
     200         -0.178382        0.000000        0.00001259        0.00004472        0.00006988        0.00002099
     201         -0.164267        0.000000        0.00001506        0.00004841        0.00000678        0.00000834
     202         -0.072857        0.000000        0.00001219        0.00002846        0.00002579        0.00008869
     203         -0.069308        0.000000        0.00005114        0.00002942        0.00011679        0.00003235
     204         -0.064976        0.000000        0.00002436        0.00002930        0.00000818        0.00007590
     205         -0.062454        0.000000        0.00001747        0.00002286        0.00000719        0.00001787
     206         -0.058311        0.000000        0.00000718        0.00001154        0.00001244        0.00001441
     207         -0.055859        0.000000        0.00001723        0.00000325        0.00002683        0.00001540
     208         -0.055098        0.000000        0.00001031        0.00001161        0.00000818        0.00001205
     209         -0.053227        0.000000        0.00001910        0.00000949        0.00001391        0.00005494
     210         -0.048764        0.000000        0.00005219        0.00008034        0.00000806        0.00001497
     211         -0.046712        0.000000        0.00003009        0.00003442        0.00004151        0.00001868
     212         -0.044809        0.000000        0.00005797        0.00002052        0.00001436        0.00002345
     213         -0.043474        0.000000        0.00003069        0.00000701        0.00004666        0.00001532
     214         -0.043173        0.000000        0.00000553        0.00002167        0.00002385        0.00003703
     215         -0.040702        0.000000        0.00003159        0.00000865        0.00005583        0.00007091
     216         -0.036711        0.000000        0.00002078        0.00003089        0.00000495        0.00002217
     217         -0.031494        0.000000        0.00002436        0.00004096        0.00001568        0.00006650
     218         -0.029120        0.000000        0.00000556        0.00003254        0.00000607        0.00001774
     219         -0.026889        0.000000        0.00001478        0.00001993        0.00002303        0.00005086
     220         -0.023542        0.000000        0.00002455        0.00000661        0.00001658        0.00004628
     221         -0.020331        0.000000        0.00003112        0.00006135        0.00003080        0.00001976
     222         -0.019118        0.000000        0.00001955        0.00001832        0.00000332        0.00002327
     223         -0.017784        0.000000        0.00001300        0.00000305        0.00001250        0.00002649
     224         -0.010990        0.000000        0.00001294        0.00000877        0.00001519        0.00005119
     225         -0.007667        0.000000        0.00001096        0.00000675        0.00001953        0.00002396
     226          0.084824        0.000000        0.08637090        0.01343469        0.02122410        0.51787955
     227          0.090565        0.000000        0.08445746        0.00936562        0.24114637        0.29251820
     228          0.100203        0.000000        0.08156205        0.01415522        0.07099091        0.46262313
     229          0.103130        0.000000        0.08351617        0.06400405        0.24162988        0.24283541
     230          0.104497        0.000000        0.07889585        0.06164555        0.01587255        0.47127800
     231          0.105451        0.000000        0.08352379        0.20641582        0.17136703        0.17268267
     232          0.107884        0.000000        0.07887478        0.00050650        0.15611028        0.39464555
     233          0.166342        0.000000        0.00045089        0.00033114        0.00005689        0.00001233
     234          0.171063        0.000000        0.00194238        0.00022636        0.00142313        0.00023237
     235          0.203914        0.000000        0.00155385        0.00142152        0.00011235        0.00057616
     236          0.233588        0.000000        0.00299619        0.00012008        0.00134880        0.00302153
     237          0.252630        0.000000        0.00096557        0.00066891        0.00000542        0.00374837
     238          0.282333        0.000000        0.00004756        0.00054555        0.00372966        0.00402777
     239          0.283937        0.000000        0.00183634        0.00157547        0.00320518        0.00002260
     240          0.288628        0.000000        0.00000756        0.00020848        0.00710624        0.00024052
     241          0.291613        0.000000        0.00001400        0.00234132        0.00306656        0.00063837
     242          0.292984        0.000000        0.00003037        0.00574004        0.00062087        0.00035791
     243          0.294691        0.000000        0.00011417        0.00751168        0.00005990        0.00011371
     244          0.295194        0.000000        0.00001657        0.00417025        0.00114508        0.00107522
     245          0.299139        0.000000        0.00024916        0.00263163        0.00692128        0.00007130
     246          0.301527        0.000000        0.00004494        0.00118083        0.00686090        0.00051922
     247          0.306904        0.000000        0.00001974        0.00389760        0.00303717        0.00069003
     248          0.323411        0.000000        0.00378080        0.00531501        0.00035879        0.00000444
     249          0.325697        0.000000        0.00344907        0.00000856        0.00181050        0.00234518
     250          0.328088        0.000000        0.00380634        0.00119970        0.00003716        0.00164026
     251          0.336602        0.000000        0.00542471        0.00001771        0.00027243        0.00004479
     252          0.337721        0.000000        0.00505723        0.00005219        0.00004624        0.00010548
     253          0.344819        0.000000        0.00561465        0.00000485        0.00009155        0.00004199
     254          0.442187        0.000000        0.00001281        0.26616021        0.04463955        0.07820418
     255          0.447703        0.000000        0.00050937        0.12511133        0.26441345        0.00285981
     256          0.450343        0.000000        0.00028854        0.11851770        0.17555452        0.09922205
     257          0.451422        0.000000        0.00106863        0.25697953        0.11177789        0.01910903
     258          0.459513        0.000000        0.00117371        0.29745266        0.03633698        0.05669185
     259          0.460703        0.000000        0.00001527        0.36747628        0.01227674        0.01224215