     100
 i =        1, E =      -575.3413781725
  I        12.0399585764       12.4241637800        8.7354736385
  I        18.3381176560       12.4399461386        8.7274124265
  I        12.0432349472       18.6662648831        8.7337456881
  I        18.3383027806       18.6498949869        8.7279068695
  I        12.1549300745        9.3148761030       12.1496699455
  I        18.4392950113        9.3108471235       12.1523844853
  I         9.1383524386       12.4271197821       11.6117757654
  I        12.1963534535       12.4347808482       15.0636649391
  I        12.1515117445       15.5427270231       12.1543250421
  I        15.4087739346       12.4262082235       11.6178668877
  I        18.4763952701       12.4321155614       15.0654195408
  I        18.4321938459       15.5439185195       12.1586786066
  I        21.6934617491       12.4277715905       11.6297546693
  I         9.1359498185       18.6671213416       11.6142882245
  I        12.1958764846       18.6534746664       15.0672838269
  I        12.1502534147       21.7779804260       12.1484614869
  I        15.4077253070       18.6632432469       11.6160399903
  I        18.4767528436       18.6581163763       15.0680701057
  I        18.4403896233       21.7815629830       12.1526614119
  I        21.6974712088       18.6635809031       11.6291280436
  I        12.3022847973        9.3051635367       18.5079999244
  I        18.5886084041        9.2999932377       18.4998738994
  I         9.2814155818       12.4284649053       17.9781853450
  I        12.3528177713       12.4171493716       21.4028118009
  I        12.2985006513       15.5469705717       18.5097026912
  I        15.5649913235       12.4309212330       17.9687377072
  I        18.6353002942       12.4394939787       21.4100263835
  I        18.5817302148       15.5467166272       18.5011718114
  I        21.8528211292       12.4347666559       17.9705002387
  I         9.2848514567       18.6610361810       17.9777169498
  I        12.3531468450       18.6727490734       21.4009550565
  I        12.3034860350       21.7831661665       18.5070238209
  I        15.5641930679       18.6591925350       17.9697999006
  I        18.6348339754       18.6508808586       21.4084130723
  I        18.5885852183       21.7886958162       18.4993596551
  I        21.8498781550       18.6554713453       17.9707011481
 Pb        12.2827304287       12.3569025640       11.8501400371
 Pb        18.6925365572       12.3435653904       11.8327728548
 Pb        12.2855225486       18.7302350211       11.8497222960
 Pb        18.6905428711       18.7452528239       11.8321753804
 Pb        12.4294646436       12.3606624026       18.3121016880
 Pb        18.8353833468       12.3536660679       18.3243892149
 Pb        12.4266071231       18.7310278603       18.3135485575
 Pb        18.8361756356       18.7358981739       18.3250728045
  C        15.0413097952       15.5451104726        8.5569566549
  C        15.1840143594        9.2923034337       14.9071691635
  C         8.8864827253       15.5451361562       14.9092057499
  C        15.1848018850       15.5450701883       14.9111799499
  C        21.4849444850       15.5450230435       14.9119133002
  C        15.1839206649       21.7978419832       14.9072059284
  C        15.3441643887       15.5450501344       21.2816135133
  N        16.4518955568       15.5450607904        9.1735451881
  N        16.5894765996        9.2898475669       15.5347749980
  N        10.2939212383       15.5451415033       15.5273241218
  N        16.5916749668       15.5451293120       15.5281363488
  N        22.8963741380       15.5451353313       15.5367831104
  N        16.5894013562       21.8001908988       15.5345639732
  N        16.7580655116       15.5452553905       21.8931587812
  H        15.1419540938       15.5452080154        7.4962683967
  H        14.5202080413       16.4188528773        8.8769330400
  H        14.5203228337       14.6713931634        8.8770662505
  H        16.9769559568       16.4054682659        8.8829293578
  H        16.9771852778       14.6848915289        8.8828477598
  H        16.3936995575       15.5451603739       10.2121623218
  H        15.2867096326        9.3012415862       13.8463270450
  H        14.6728935263       10.1690949020       15.2344860822
  H        14.6665413213        8.4213958334       15.2363291596
  H        17.1264659693       10.1399418855       15.2362621029
  H        17.1307403828        8.4598968862       15.2268032636
  H        16.5490594776        9.3042142697       16.5783011899
  H         8.9936484522       15.5449053649       13.8488038364
  H         8.3785585169       16.4236313083       15.2369361509
  H         8.3785602907       14.6666114085       15.2368350141
  H        10.8225915671       16.3998362004       15.2347399804
  H        10.8225086957       14.6905962572       15.2346108975
  H        10.2397517106       15.5451426290       16.5685979108
  H        15.2877754162       15.5450655218       13.8519130193
  H        14.6747762447       16.4231049300       15.2340590896
  H        14.6748226870       14.6670030612       15.2340584938
  H        17.1246363523       16.3982802847       15.2364048342
  H        17.1247215658       14.6919993467       15.2364161655
  H        16.5427524430       15.5449560224       16.5691557885
  H        21.5821837892       15.5452227574       13.8500868418
  H        20.9749719177       16.4245325919       15.2355666518
  H        20.9750279571       14.6655419955       15.2356571845
  H        23.4133732015       16.3959124585       15.2325460969
  H        23.4134242804       14.6943971160       15.2325922403
  H        22.8173441944       15.5450404383       16.5782285314
  H        15.2871825449       21.7889675589       13.8464410854
  H        14.6663896807       22.6686828414       15.2365108397
  H        14.6727938904       20.9210614209       15.2346409205
  H        17.1305479534       22.6303456386       15.2270405937
  H        17.1267976396       20.9501775488       15.2364107180
  H        16.5491399359       21.7861292315       16.5781354637
  H        15.4421096614       15.5450629213       20.2209192510
  H        14.8232061968       16.4238168880       21.5866786059
  H        14.8231466956       14.6663393471       21.5866103494
  H        17.2820145586       16.4047783369       21.5891629568
  H        17.2816870653       14.6856897751       21.5891768454
  H        16.6874458073       15.5450724331       22.9288255213
     100
 i =        2, E =      -575.3569416888
  I        12.0399248696       12.4288917426        8.7597767358
  I        18.3316572611       12.4629629203        8.7447495408
  I        12.0448256904       18.6623882333        8.7570333461
  I        18.3310324023       18.6264797777        8.7445542884
  I        12.1669621021        9.3216702087       12.1410438062
  I        18.4369920124        9.3139878681       12.1473402914
  I         9.1477618388       12.4334321190       11.6147507175
  I        12.1972420258       12.4578269537       15.0639170638
  I        12.1679796344       15.5382437395       12.1526593510
  I        15.3868575285       12.4357637119       11.6248720764
  I        18.4528773478       12.4443316394       15.0649947082
  I        18.4232001743       15.5423792835       12.1628179673
  I        21.6932797428       12.4376910734       11.6495153018
  I         9.1441237667       18.6618009825       11.6170861906
  I        12.1984968606       18.6265131886       15.0691379789
  I        12.1616283755       21.7733644740       12.1388076438
  I        15.3887606460       18.6521814468       11.6195815569
  I        18.4524415846       18.6452114220       15.0733030157
  I        18.4397714193       21.7803129652       12.1481977078
  I        21.6996696902       18.6550321308       11.6482261553
  I        12.3161493880        9.2964763189       18.4963243905
  I        18.5881152426        9.2903759119       18.4818693615
  I         9.2894568131       12.4400350131       17.9834855316
  I        12.3600597908       12.4172871497       21.3915430340
  I        12.3132265368       15.5470397096       18.5067436732
  I        15.5486794603       12.4459729144       17.9621897071
  I        18.6258862835       12.4687728163       21.4072519095
  I        18.5727575926       15.5522309033       18.4852798781
  I        21.8499997146       12.4545937041       17.9660528718
  I         9.2957190521       18.6490482459       17.9829980077
  I        12.3623733260       18.6736358447       21.3894325891
  I        12.3193999450       21.7902822657       18.4960792110
  I        15.5516538259       18.6435595844       17.9651624654
  I        18.6244418137       18.6231121776       21.4020777049
  I        18.5889105599       21.7956676632       18.4804601735
  I        21.8439605867       18.6365891580       17.9669559000
 Pb        12.2359285352       12.3001602999       11.8020350629
 Pb        18.7516449127       12.2790244069       11.7737303750
 Pb        12.2335016057       18.7908604820       11.8056046509
 Pb        18.7488793966       18.8093827650       11.7717507412
 Pb        12.3827357207       12.3044802064       18.3706530509
 Pb        18.8900853654       12.2871137641       18.3920480125
 Pb        12.3712240453       18.7908418411       18.3699793111
 Pb        18.8875470024       18.7974623891       18.3965692677
  C        14.9985668338       15.5450395055        8.5325409488
  C        15.1503974542        9.2927542293       14.8945175415
  C         8.8514329739       15.5451293523       14.8888665603
  C        15.1551030274       15.5451582299       14.8914311106
  C        21.4420473165       15.5451449208       14.8876540980
  C        15.1507527294       21.7971703270       14.8944976161
  C        15.3079264129       15.5452921029       21.2517271641
  N        16.4314360378       15.5451965650        9.1737221478
  N        16.5926546827        9.2988528656       15.5224851807
  N        10.2834119134       15.5450975898       15.5248967052
  N        16.5873934940       15.5449585931       15.5254864986
  N        22.8851456152       15.5451510080       15.5329319703
  N        16.5927885655       21.7913911938       15.5226913281
  N        16.7467267534       15.5451142632       21.8912869706
  H        15.1411768921       15.5451517450        7.4858062776
  H        14.5209633873       16.4233497743        8.8808472165
  H        14.5209480052       14.6667149641        8.8808609046
  H        16.9926414643       16.3918228782        8.8976876219
  H        16.9924340156       14.6984491245        8.8976842906
  H        16.4166438904       15.5450100620       10.2119992104
  H        15.2825005978        9.3005580614       13.8446789633
  H        14.6657799665       10.1706121328       15.2330955387
  H        14.6525631410        8.4224411677       15.2292907218
  H        17.1424530757       10.1490991878       15.2400490015
  H        17.1443264274        8.4697830374       15.2372617231
  H        16.5673039663        9.2992281440       16.5699567648
  H         8.9842911233       15.5448283159       13.8399339346
  H         8.3711844466       16.4229689750       15.2342206029
  H         8.3711621073       14.6673077798       15.2341965495
  H        10.8324352360       16.3925372203       15.2401125622
  H        10.8321227216       14.6977906913       15.2398259609
  H        10.2464766574       15.5451872817       16.5665133507
  H        15.2805832535       15.5449665487       13.8438870217
  H        14.6704662052       16.4208244809       15.2331887311
  H        14.6708310800       14.6693406270       15.2332058623
  H        17.1382761240       16.3928537727       15.2417913551
  H        17.1384209890       14.6972114298       15.2415702098
  H        16.5547073170       15.5448416908       16.5673229999
  H        21.5811818403       15.5451063407       13.8384286400
  H        20.9736838199       16.4290989460       15.2393678496
  H        20.9738959978       14.6610038850       15.2393779537
  H        23.4249328422       16.3852664757       15.2499743236
  H        23.4249596741       14.7049180753       15.2501781236
  H        22.8198094533       15.5446885588       16.5743281878
  H        15.2822561411       21.7897222141       13.8446721869
  H        14.6524383278       22.6672264173       15.2294847252
  H        14.6654477067       20.9198175571       15.2332898681
  H        17.1441950185       22.6205024611       15.2369894914
  H        17.1425045850       20.9411496580       15.2400994099
  H        16.5668722140       21.7909086703       16.5700489740
  H        15.4438261226       15.5450952938       20.2045445312
  H        14.8297212310       16.4253626907       21.5960145199
  H        14.8302262186       14.6650795839       21.5961211826
  H        17.3017365465       16.3945039338       21.6020398900
  H        17.3012735311       14.6959202283       21.6019298338
  H        16.7199675922       15.5452234468       22.9245041151
     100
 i =        3, E =      -575.3644721537
  I        12.0477561729       12.4321089535        8.7655887343
  I        18.3249493041       12.4817616214        8.7488931571
  I        12.0518988654       18.6595518864        8.7615091103
  I        18.3251693126       18.6074421636        8.7483798577
  I        12.1783442300        9.3118792052       12.1325032929
  I        18.4342652882        9.3016523697       12.1403701333
  I         9.1436192920       12.4408317674       11.6254218875
  I        12.1961079952       12.4791612890       15.0646125510
  I        12.1828470375       15.5341061225       12.1502159286
  I        15.3646834663       12.4469474397       11.6304793926
  I        18.4290576248       12.4536281074       15.0676690931
  I        18.4104489659       15.5442964119       12.1635149627
  I        21.7153687066       12.4467253475       11.6680441329
  I         9.1377128693       18.6550247303       11.6270820071
  I        12.2037566247       18.6005079701       15.0711383734
  I        12.1728164027       21.7871892549       12.1294377098
  I        15.3713518203       18.6419062290       11.6275018296
  I        18.4286628474       18.6359825935       15.0772475650
  I        18.4380023842       21.7905408941       12.1423020256
  I        21.7182831084       18.6468109118       11.6671213347
  I        12.3318050210        9.2778098263       18.4809236549
  I        18.5870620217        9.2697933909       18.4640938323
  I         9.2944306530       12.4528373271       17.9868928024
  I        12.3665191784       12.4217163206       21.3962912499
  I        12.3282334189       15.5454245941       18.5041428735
  I        15.5266898317       12.4576768867       17.9528940003
  I        18.6189180238       12.4964003342       21.4180864852
  I        18.5656473820       15.5576062292       18.4681395527
  I        21.8615156461       12.4724221152       17.9620943219
  I         9.2993843186       18.6359213914       17.9893061288
  I        12.3696883394       18.6689823993       21.3921307908
  I        12.3359370618       21.8103303512       18.4806912553
  I        15.5350097931       18.6299351890       17.9574513938
  I        18.6169545489       18.5976091666       21.4119375200
  I        18.5896708156       21.8113046840       18.4614936377
  I        21.8502752011       18.6198139335       17.9636207346
 Pb        12.2046319462       12.2710403522       11.7774038185
 Pb        18.7855041365       12.2466905652       11.7445175614
 Pb        12.2007250819       18.8215970224       11.7810812549
 Pb        18.7833894316       18.8402742665       11.7378977262
 Pb        12.3527007777       12.2680801425       18.4060860924
 Pb        18.9222710127       12.2518870229       18.4336329077
 Pb        12.3366916282       18.8316305224       18.4052239708
 Pb        18.9151177374       18.8306872154       18.4420650665
  C        15.0210133279       15.5451198349        8.5473723560
  C        15.1539390928        9.2972370342       14.8915996053
  C         8.8529695236       15.5451077264       14.8909127493
  C        15.1580673560       15.5450017133       14.8932033457
  C        21.4475827547       15.5451080665       14.8900904262
  C        15.1537226479       21.7928601589       14.8916234962
  C        15.3267556065       15.5452318741       21.2596853201
  N        16.4686972422       15.5449891617        9.1855331157
  N        16.6074802649        9.2997047292       15.5306408325
  N        10.2970031305       15.5449085081       15.5277166193
  N        16.6025306873       15.5448681279       15.5282871445
  N        22.9045167735       15.5450341788       15.5434760769
  N        16.6072355500       21.7904501412       15.5304999009
  N        16.7814866421       15.5452758601       21.8980113280
  H        15.1224889682       15.5451238147        7.4928083140
  H        14.5076987145       16.4159713144        8.8678124073
  H        14.5078345310       14.6741883369        8.8677015076
  H        16.9958621958       16.4075866174        8.8931692578
  H        16.9958322562       14.6826244996        8.8929314802
  H        16.4036014343       15.5451605887       10.2236038639
  H        15.2683959581        9.3015962543       13.8372485417
  H        14.6534645001       10.1709097275       15.2276141545
  H        14.6426807387        8.4281972282       15.2230246142
  H        17.1390668763       10.1589652250       15.2346156791
  H        17.1502572397        8.4704669072       15.2273183930
  H        16.5743914072        9.3026861476       16.5766613378
  H         8.9684330233       15.5448515441       13.8366336809
  H         8.3547887778       16.4206303198       15.2234819570
  H         8.3547344848       14.6696908390       15.2236504862
  H        10.8331381961       16.3989236162       15.2366908370
  H        10.8328379904       14.6909662814       15.2363652976
  H        10.2377498809       15.5451231591       16.5681464927
  H        15.2687130328       15.5450697498       13.8402766826
  H        14.6592233094       16.4194308677       15.2253121034
  H        14.6594806563       14.6706243980       15.2255121262
  H        17.1408575466       16.3988477159       15.2379547811
  H        17.1410198228       14.6911763538       15.2374828462
  H        16.5532171375       15.5447777883       16.5690671219
  H        21.5626973494       15.5450555133       13.8351708798
  H        20.9584025421       16.4247903629       15.2283480307
  H        20.9586361063       14.6652710043       15.2283804548
  H        23.4262304380       16.3933232359       15.2509193340
  H        23.4262000678       14.6966648799       15.2509206857
  H        22.8032660950       15.5445641271       16.5826608163
  H        15.2682466298       21.7885383852       13.8372928709
  H        14.6425145622       22.6618464323       15.2233667964
  H        14.6534465029       20.9191478869       15.2278649932
  H        17.1501410883       22.6196529505       15.2272782586
  H        17.1390245606       20.9310965270       15.2351197214
  H        16.5737631160       21.7872790426       16.5764588755
  H        15.4294109194       15.5453533929       20.2054932332
  H        14.8217174401       16.4200008386       21.5840246994
  H        14.8222793164       14.6705122151       21.5845123864
  H        17.3077260695       16.4077800541       21.5940432917
  H        17.3072101219       14.6826387717       21.5942069958
  H        16.7152038993       15.5452126677       22.9305583684
     100
 i =        4, E =      -575.3694189292
  I        12.0614111286       12.4342922402        8.7538001847
  I        18.3199535383       12.4931839696        8.7395516588
  I        12.0621072819       18.6573996589        8.7474793496
  I        18.3223173518       18.5959211965        8.7368417523
  I        12.1886201449        9.2926227720       12.1250705293
  I        18.4324181353        9.2808384672       12.1323078183
  I         9.1295437341       12.4492616902       11.6424683597
  I        12.1944315886       12.4962645045       15.0625943960
  I        12.1910197016       15.5305360622       12.1468961308
  I        15.3467172094       12.4581419962       11.6358271750
  I        18.4056410413       12.4578332476       15.0717027573
  I        18.3996874543       15.5477922750       12.1650090089
  I        21.7476610145       12.4539156102       11.6839357184
  I         9.1197831284       18.6466462829       11.6419786411
  I        12.2108558488       18.5804764917       15.0726883758
  I        12.1828896034       21.8111515036       12.1221333032
  I        15.3571627013       18.6329115131       11.6393453159
  I        18.4065148108       18.6321634841       15.0796049859
  I        18.4367281410       21.8073794716       12.1353884523
  I        21.7469999837       18.6398760249       11.6836502431
  I        12.3471622281        9.2572783064       18.4629090020
  I        18.5881740199        9.2473057928       18.4519332214
  I         9.2978454743       12.4654711595       17.9906060125
  I        12.3723882158       12.4296678039       21.4124061006
  I        12.3413507312       15.5430202653       18.5033504056
  I        15.5041896458       12.4666473610       17.9426556727
  I        18.6153547803       12.5150428564       21.4399055438
  I        18.5607860727       15.5610686857       18.4516434976
  I        21.8807476397       12.4864593039       17.9598260141
  I         9.2953641127       18.6233519570       17.9959668299
  I        12.3751047870       18.6594525920       21.4068784980
  I        12.3512737797       21.8362216629       18.4618160693
  I        15.5167028232       18.6196345404       17.9477760798
  I        18.6131995280       18.5819047522       21.4376816063
  I        18.5927035656       21.8304659570       18.4484590693
  I        21.8656803567       18.6071209171       17.9616499087
 Pb        12.1897377361       12.2638369003       11.7757948657
 Pb        18.7982530158       12.2405233770       11.7433296207
 Pb        12.1896241272       18.8290858230       11.7766177636
 Pb        18.7942050391       18.8451147403       11.7327667364
 Pb        12.3376255350       12.2462654713       18.4204316010
 Pb        18.9357430312       12.2440557763       18.4478872985
 Pb        12.3245477974       18.8551484627       18.4192970193
 Pb        18.9230425521       18.8356558375       18.4573046769
  C        15.0107065197       15.5451018409        8.5419663772
  C        15.1543873429        9.2986160044       14.8910814207
  C         8.8496192804       15.5450825552       14.8888676509
  C        15.1589585049       15.5448070859       14.8944098477
  C        21.4483266773       15.5449879658       14.8909864017
  C        15.1540896798       21.7915876621       14.8911942698
  C        15.3289057081       15.5452655354       21.2632863027
  N        16.4563172326       15.5450383526        9.1772162580
  N        16.6080469344        9.3021712776       15.5309555792
  N        10.2923964190       15.5447713424       15.5248897209
  N        16.6037275929       15.5448755178       15.5251214323
  N        22.9045822119       15.5449540628       15.5486469680
  N        16.6077815415       21.7877739098       15.5308256121
  N        16.7845939466       15.5453932825       21.8953289877
  H        15.1261924115       15.5451965487        7.4845687137
  H        14.5090637626       16.4238402361        8.8734080958
  H        14.5091914653       14.6663661590        8.8732469086
  H        16.9975457540       16.4023283469        8.9016954540
  H        16.9975608090       14.6880345945        8.9014342865
  H        16.4049479857       15.5452300998       10.2157211562
  H        15.2675067720        9.3063887558       13.8323167147
  H        14.6502419806       10.1762579815       15.2248138682
  H        14.6418406043        8.4270376892       15.2252191770
  H        17.1340105611       10.1636307551       15.2328701858
  H        17.1515713315        8.4767000251       15.2171708555
  H        16.5806056326        9.3081248277       16.5753413096
  H         8.9664737163       15.5447888155       13.8305256807
  H         8.3475046492       16.4237124224       15.2207291212
  H         8.3474196251       14.6665601938       15.2209563620
  H        10.8294747919       16.3986134491       15.2368180122
  H        10.8288317842       14.6903988502       15.2366309893
  H        10.2326134836       15.5447517026       16.5643108053
  H        15.2687916027       15.5451161988       13.8369791255
  H        14.6548938123       16.4222991640       15.2228783255
  H        14.6547763297       14.6674823640       15.2230677942
  H        17.1385729870       16.4001904983       15.2359238438
  H        17.1386493770       14.6898699358       15.2353363729
  H        16.5533192873       15.5446888302       16.5650335378
  H        21.5604266292       15.5450139712       13.8311695397
  H        20.9480232760       16.4254827634       15.2235873941
  H        20.9481815515       14.6644603325       15.2236609229
  H        23.4240361577       16.3945648720       15.2529076793
  H        23.4238079479       14.6952177847       15.2527104680
  H        22.7959928753       15.5443477480       16.5857414034
  H        15.2673372706       21.7836545165       13.8324295247
  H        14.6415721115       22.6631404462       15.2254745866
  H        14.6504151786       20.9136993379       15.2249698156
  H        17.1513784115       22.6132992906       15.2172709668
  H        17.1338249824       20.9259990249       15.2333903122
  H        16.5796920883       21.7818237820       16.5751546875
  H        15.4316154415       15.5454147258       20.2040851447
  H        14.8226574073       16.4260718460       21.5809116513
  H        14.8231461794       14.6644777034       21.5813810644
  H        17.3118226431       16.4055771223       21.5920595470
  H        17.3113580040       14.6845967912       21.5925272296
  H        16.7147597258       15.5452503842       22.9279489476
     100
 i =        5, E =      -575.3753411507
  I        12.1007199622       12.4398078347        8.7259681656
  I        18.3088679576       12.5246843874        8.7190616210
  I        12.0921276979       18.6527127371        8.7119733703
  I        18.3142628242       18.5643231353        8.7065940860
  I        12.2180124596        9.2491503503       12.1022967515
  I        18.4289517663        9.2306223549       12.1070457757
  I         9.0933173910       12.4736761185       11.6955295393
  I        12.1902611043       12.5441404260       15.0485343245
  I        12.2100631795       15.5226083918       12.1358748473
  I        15.2969181794       12.4867098586       11.6544038761
  I        18.3383978619       12.4649792026       15.0827378605
  I        18.3701966257       15.5592355669       12.1651553432
  I        21.8262520447       12.4734008217       11.7309047413
  I         9.0744421096       18.6219275888       11.6875305277
  I        12.2321443397       18.5254893872       15.0735205407
  I        12.2115331228       21.8651147102       12.1002804368
  I        15.3182769375       18.6021904398       11.6719251778
  I        18.3427358640       18.6279362238       15.0859051055
  I        18.4351400033       21.8475841162       12.1137735619
  I        21.8153709695       18.6198015340       11.7325611121
  I        12.3919866068        9.2041790521       18.4075877493
  I        18.5956151488        9.2002874706       18.4208280233
  I         9.3085634130       12.5022278001       18.0050631910
  I        12.3898487600       12.4538327812       21.4529993767
  I        12.3760816102       15.5372813706       18.5010935769
  I        15.4443431094       12.4897955226       17.9157887993
  I        18.6089008987       12.5613240602       21.4932996937
  I        18.5453387639       15.5655102966       18.4054757594
  I        21.9263479670       12.5257102118       17.9559692113
  I         9.2853638646       18.5874862623       18.0166783034
  I        12.3916660101       18.6309588134       21.4470516072
  I        12.3959785231       21.9010251473       18.4040181442
  I        15.4610532875       18.5900307358       17.9220922344
  I        18.6050534890       18.5430609066       21.5058188393
  I        18.6036316179       21.8747231797       18.4149352167
  I        21.9039175555       18.5709117819       17.9576058386
 Pb        12.1497833831       12.2384982730       11.7689773452
 Pb        18.8406714437       12.2227019015       11.7429648728
 Pb        12.1535067566       18.8596050019       11.7621233177
 Pb        18.8370150215       18.8616217082       11.7259515860
 Pb        12.2990101795       12.1840761508       18.4673859802
 Pb        18.9733565750       12.2204427890       18.4878689743
 Pb        12.2944195705       18.9246362281       18.4599638872
 Pb        18.9519622803       18.8512556353       18.5003837900
  C        15.0256906176       15.5452526225        8.5430879418
  C        15.1475856927        9.3052582535       14.8900038224
  C         8.8360690287       15.5450382835       14.8775566217
  C        15.1518748233       15.5446240975       14.8849440433
  C        21.4262762785       15.5449333432       14.8808696797
  C        15.1473922228       21.7847726718       14.8899704841
  C        15.3289606531       15.5454514502       21.2532973803
  N        16.4563037630       15.5452652706        9.1877384044
  N        16.6040370260        9.3177836756       15.5167993602
  N        10.2687599883       15.5442651266       15.5197127776
  N        16.5886520449       15.5448799053       15.5170669655
  N        22.8766437844       15.5445047842       15.5510960936
  N        16.6037202249       21.7717387597       15.5169919650