# Projected DOS for atomic kind N at iteration step i = 0, E(Fermi) =    -0.101588 a.u.
#     MO Eigenvalue [a.u.]      Occupation                 s                py                pz                px
       1         -0.961067        1.000000        0.00000000        0.00000000        0.00000000        0.00000000
       2         -0.940785        1.000000        0.00000000        0.00000000        0.00000000        0.00000000
       3         -0.936349        1.000000        0.00000000        0.00000000        0.00000000        0.00000000
       4         -0.932960        1.000000        0.00000000        0.00000000        0.00000000        0.00000000
       5         -0.928227        1.000000        0.00000000        0.00000000        0.00000000        0.00000000
       6         -0.921307        1.000000        0.00000000        0.00000000        0.00000000        0.00000000
       7         -0.920097        1.000000        0.00000000        0.00000000        0.00000000        0.00000000
       8         -0.919982        1.000000        0.00000000        0.00000000        0.00000000        0.00000000
       9         -0.913005        1.000000        0.00001181        0.00000123        0.00000002        0.00000010
      10         -0.902861        1.000000        0.00000045        0.00000002        0.00000006        0.00000008
      11         -0.900717        1.000000        0.00000003        0.00000000        0.00000000        0.00000000
      12         -0.900407        1.000000        0.00007862        0.00000478        0.00000004        0.00000115
      13         -0.899332        1.000000        0.00000000        0.00000000        0.00000000        0.00000000
      14         -0.897044        1.000000        0.00000000        0.00000000        0.00000000        0.00000000
      15         -0.893700        1.000000        0.00000016        0.00000000        0.00000000        0.00000001
      16         -0.892627        1.000000        0.00000976        0.00000013        0.00000008        0.00000013
      17         -0.890240        1.000000        0.00000034        0.00000001        0.00000002        0.00000001
      18         -0.888188        1.000000        0.00000001        0.00000000        0.00000000        0.00000000
      19         -0.885899        1.000000        0.00000000        0.00000000        0.00000000        0.00000000
      20         -0.883688        1.000000        0.00000631        0.00000014        0.00000027        0.00000001
      21         -0.883099        1.000000        0.00000001        0.00000000        0.00000000        0.00000000
      22         -0.882100        1.000000        0.00000000        0.00000000        0.00000000        0.00000000
      23         -0.881034        1.000000        0.00000009        0.00000000        0.00000001        0.00000001
      24         -0.879887        1.000000        0.00004767        0.00000026        0.00000004        0.00000059
      25         -0.879725        1.000000        0.00000004        0.00000000        0.00000000        0.00000000
      26         -0.879315        1.000000        0.00000012        0.00000000        0.00000000        0.00000001
      27         -0.879030        1.000000        0.00003754        0.00000076        0.00000040        0.00000310
      28         -0.877295        1.000000        0.00000007        0.00000000        0.00000001        0.00000000
      29         -0.875586        1.000000        0.00000000        0.00000000        0.00000000        0.00000000
      30         -0.874524        1.000000        0.00237298        0.00002763        0.00007926        0.00000223
      31         -0.873184        1.000000        0.00039534        0.00000262        0.00001094        0.00003549
      32         -0.871492        1.000000        0.00000000        0.00000000        0.00000000        0.00000000
      33         -0.871370        1.000000        0.00080922        0.00000214        0.00000905        0.00004191
      34         -0.871077        1.000000        0.00000008        0.00000000        0.00000000        0.00000000
      35         -0.871013        1.000000        0.60809860        0.00036431        0.00010558        0.00007425
      36         -0.868087        1.000000        0.00000061        0.00000000        0.00000007        0.00000001
      37         -0.867741        1.000000        0.00000003        0.00000000        0.00000000        0.00000000
      38         -0.865982        1.000000        0.00113513        0.00002475        0.00003953        0.00007147
      39         -0.864376        1.000000        0.00000002        0.00000000        0.00000000        0.00000000
      40         -0.864288        1.000000        0.00000002        0.00000000        0.00000000        0.00000000
      41         -0.861882        1.000000        0.00000057        0.00000000        0.00000000        0.00000000
      42         -0.861540        1.000000        0.00000218        0.00000001        0.00000002        0.00000010
      43         -0.861360        1.000000        0.00000934        0.00000000        0.00000001        0.00000004
      44         -0.858888        1.000000        0.61266932        0.00000903        0.00001228        0.00017312
      45         -0.858674        1.000000        0.61358749        0.00001150        0.00020313        0.00003893
      46         -0.858637        1.000000        0.00004824        0.00000000        0.00000001        0.00000000
      47         -0.858325        1.000000        0.00000193        0.00000000        0.00000001        0.00000000
      48         -0.858052        1.000000        0.00045098        0.00000086        0.00000213        0.00000293
      49         -0.856919        1.000000        0.00001779        0.00000009        0.00000025        0.00000074
      50         -0.856435        1.000000        0.15221464        0.00000155        0.00003349        0.00004069
      51         -0.856382        1.000000        0.45819124        0.00000406        0.00010937        0.00012210
      52         -0.856290        1.000000        0.00000116        0.00000000        0.00000000        0.00000000
      53         -0.854739        1.000000        0.00001751        0.00000005        0.00000001        0.00000003
      54         -0.853853        1.000000        0.00085167        0.00000359        0.00000188        0.00000984
      55         -0.852608        1.000000        0.00002902        0.00000006        0.00000022        0.00000002
      56         -0.852367        1.000000        0.05565879        0.00010827        0.00041860        0.00002388
      57         -0.851533        1.000000        0.00000026        0.00000000        0.00000000        0.00000001
      58         -0.849987        1.000000        0.00069228        0.00000318        0.00000920        0.00002531
      59         -0.848677        1.000000        0.00006225        0.00000002        0.00000031        0.00000003
      60         -0.847567        1.000000        0.00034075        0.00000007        0.00000227        0.00000031
      61         -0.844420        1.000000        0.00000025        0.00000000        0.00000000        0.00000001
      62         -0.844343        1.000000        0.00252128        0.00001435        0.00003635        0.00001846
      63         -0.843339        1.000000        0.00069158        0.00000021        0.00000168        0.00000007
      64         -0.842496        1.000000        0.00037042        0.00000026        0.00000426        0.00000404
      65         -0.842405        1.000000        0.01479851        0.00000814        0.00016358        0.00016657
      66         -0.842284        1.000000        0.00162865        0.00000093        0.00001890        0.00001769
      67         -0.841941        1.000000        0.00468638        0.00000266        0.00007076        0.00004317
      68         -0.840325        1.000000        0.00002928        0.00000000        0.00000004        0.00000000
      69         -0.839660        1.000000        0.00000022        0.00000003        0.00000002        0.00000000
      70         -0.838811        1.000000        0.00000241        0.00000000        0.00000000        0.00000000
      71         -0.837701        1.000000        0.03179519        0.00026876        0.00035637        0.00010333
      72         -0.837471        1.000000        0.00094085        0.00000006        0.00000069        0.00000003
      73         -0.837420        1.000000        0.00003118        0.00000001        0.00000002        0.00000076
      74         -0.837095        1.000000        0.00030777        0.00000045        0.00000713        0.00000076
      75         -0.836990        1.000000        0.00156628        0.00001090        0.00001657        0.00000526
      76         -0.836262        1.000000        0.00000013        0.00000000        0.00000000        0.00000000
      77         -0.835068        1.000000        0.00002269        0.00000017        0.00000073        0.00000001
      78         -0.834943        1.000000        0.00001173        0.00000011        0.00000037        0.00000001
      79         -0.834422        1.000000        0.00000339        0.00000000        0.00000014        0.00000048
      80         -0.832989        1.000000        0.00030874        0.00004205        0.00000593        0.00000065
      81         -0.830943        1.000000        0.00002658        0.00000006        0.00000001        0.00000008
      82         -0.830701        1.000000        0.00011900        0.00000012        0.00000007        0.00000001
      83         -0.830366        1.000000        0.00008585        0.00000009        0.00000008        0.00000001
      84         -0.829728        1.000000        0.00000286        0.00000001        0.00000001        0.00000001
      85         -0.829177        1.000000        0.00073780        0.00000099        0.00000077        0.00000003
      86         -0.828929        1.000000        0.00050644        0.00000072        0.00000055        0.00000001
      87         -0.828376        1.000000        0.14428408        0.00000015        0.00009944        0.00001278
      88         -0.827781        1.000000        0.57565150        0.00100893        0.00083814        0.00000815
      89         -0.827633        1.000000        0.00001396        0.00000002        0.00000002        0.00000000
      90         -0.827471        1.000000        0.00010409        0.00000100        0.00000022        0.00000221
      91         -0.827359        1.000000        0.00152853        0.00000014        0.00000266        0.00000102
      92         -0.825573        1.000000        0.00000354        0.00000000        0.00000000        0.00000000
      93         -0.823285        1.000000        0.00009635        0.00000031        0.00000035        0.00000000
      94         -0.823140        1.000000        0.02385546        0.00007846        0.00008752        0.00000006
      95         -0.821820        1.000000        0.00000093        0.00000000        0.00000000        0.00000000
      96         -0.821012        1.000000        0.00009255        0.00000007        0.00000030        0.00000002
      97         -0.820459        1.000000        0.00000015        0.00000000        0.00000000        0.00000000
      98         -0.819502        1.000000        0.38904674        0.00040293        0.00157719        0.00011734
      99         -0.819084        1.000000        0.00002380        0.00000028        0.00000010        0.00000015
     100         -0.818522        1.000000        0.00029015        0.00000036        0.00000139        0.00000007
     101         -0.817990        1.000000        0.00001144        0.00000004        0.00000010        0.00000002
     102         -0.816376        1.000000        0.00585746        0.00001030        0.00003958        0.00000058
     103         -0.815670        1.000000        0.00211642        0.00000408        0.00001572        0.00000012
     104         -0.815242        1.000000        0.00001942        0.00000030        0.00000081        0.00000026
     105         -0.814179        1.000000        0.00001920        0.00000032        0.00000088        0.00000027
     106         -0.813138        1.000000        0.00000024        0.00000001        0.00000000        0.00000005
     107         -0.813118        1.000000        0.00000355        0.00000007        0.00000016        0.00000005
     108         -0.811836        1.000000        0.00000853        0.00000021        0.00000026        0.00000015
     109         -0.811061        1.000000        0.00017563        0.00000744        0.00000082        0.00000529
     110         -0.810555        1.000000        0.00001707        0.00000014        0.00000006        0.00000036
     111         -0.809407        1.000000        0.00013786        0.00000037        0.00000209        0.00000075
     112         -0.809270        1.000000        0.00004020        0.00000081        0.00000465        0.00000214
     113         -0.808879        1.000000        0.00001758        0.00000005        0.00000025        0.00000009
     114         -0.807230        1.000000        0.00000190        0.00000001        0.00000013        0.00000003
     115         -0.806701        1.000000        0.00000068        0.00000001        0.00000000        0.00000001
     116         -0.805393        1.000000        0.00000052        0.00000005        0.00000003        0.00000002
     117         -0.804313        1.000000        0.00873557        0.00005254        0.00006192        0.00002396
     118         -0.804312        1.000000        0.00000692        0.00000005        0.00000006        0.00000002
     119         -0.803282        1.000000        0.00001206        0.00000009        0.00000008        0.00000002
     120         -0.802996        1.000000        0.00000008        0.00000001        0.00000001        0.00000002
     121         -0.801715        1.000000        0.00000000        0.00000000        0.00000000        0.00000000
     122         -0.800560        1.000000        0.00000646        0.00000005        0.00000014        0.00000002
     123         -0.800539        1.000000        0.00000003        0.00000000        0.00000000        0.00000000
     124         -0.799985        1.000000        0.00000033        0.00000001        0.00000000        0.00000001
     125         -0.798950        1.000000        0.00000009        0.00000000        0.00000000        0.00000000
     126         -0.797284        1.000000        0.00054554        0.00000140        0.00000060        0.00000072
     127         -0.797085        1.000000        0.00003637        0.00000048        0.00000145        0.00000028
     128         -0.796957        1.000000        0.00000270        0.00000004        0.00000009        0.00000002
     129         -0.796547        1.000000        0.00000724        0.00000007        0.00000023        0.00000001
     130         -0.796191        1.000000        0.00011388        0.00000146        0.00000450        0.00000089
     131         -0.795377        1.000000        0.00006444        0.00000123        0.00000275        0.00000055
     132         -0.794440        1.000000        0.51745638        0.00179451        0.00098502        0.00094096
     133         -0.793500        1.000000        0.00000078        0.00000005        0.00000001        0.00000001
     134         -0.792717        1.000000        0.00000898        0.00000054        0.00000028        0.00000025
     135         -0.790849        1.000000        0.00006514        0.00000087        0.00000238        0.00000034
     136         -0.790122        1.000000        0.00000359        0.00000000        0.00000006        0.00000016
     137         -0.789857        1.000000        0.00000048        0.00000000        0.00000002        0.00000004
     138         -0.787424        1.000000        0.00000011        0.00000000        0.00000001        0.00000000
     139         -0.783348        1.000000        0.00015777        0.00000132        0.00001711        0.00000157
     140         -0.783199        1.000000        0.00002477        0.00000020        0.00000274        0.00000025
     141         -0.782324        1.000000        0.00000004        0.00000000        0.00000001        0.00000003
     142         -0.781164        1.000000        0.00000906        0.00000002        0.00000036        0.00000168
     143         -0.781101        1.000000        0.00000003        0.00000000        0.00000001        0.00000000
     144         -0.780720        1.000000        0.00000032        0.00000000        0.00000005        0.00000023
     145         -0.780142        1.000000        0.00000002        0.00000000        0.00000000        0.00000000
     146         -0.778116        1.000000        0.00000000        0.00000000        0.00000000        0.00000000
     147         -0.776714        1.000000        0.00000011        0.00000014        0.00000012        0.00000011
     148         -0.775622        1.000000        0.00002381        0.00000061        0.00000201        0.00000006
     149         -0.775136        1.000000        0.00000001        0.00000000        0.00000000        0.00000000
     150         -0.771621        1.000000        0.00000029        0.00000013        0.00000016        0.00000007
     151         -0.771170        1.000000        0.00753346        0.00012430        0.00012993        0.00008602
     152         -0.767770        1.000000        0.00002033        0.00000067        0.00000331        0.00000049
     153         -0.765769        1.000000        0.00000000        0.00000000        0.00000000        0.00000000
     154         -0.765391        1.000000        0.00000001        0.00000000        0.00000000        0.00000000
     155         -0.765055        1.000000        0.00000001        0.00000000        0.00000000        0.00000000
     156         -0.761780        1.000000        0.00008118        0.00000309        0.00001136        0.00000209
     157         -0.760821        1.000000        0.00000000        0.00000000        0.00000000        0.00000000
     158         -0.758131        1.000000        0.00000001        0.00000000        0.00000000        0.00000001
     159         -0.757792        1.000000        0.00000000        0.00000000        0.00000000        0.00000000
     160         -0.757088        1.000000        0.00000014        0.00000001        0.00000002        0.00000000
     161         -0.747654        1.000000        0.00626627        0.00130963        0.00089283        0.00028039
     162         -0.746151        1.000000        0.00000431        0.00000084        0.00000055        0.00000020
     163         -0.722866        1.000000        0.00000078        0.00000032        0.00000027        0.00000003
     164         -0.618944        1.000000        0.01756652        0.00011793        0.01029036        0.18705385
     165         -0.599994        1.000000        0.01415624        0.00014576        0.03948314        0.17173634
     166         -0.598666        1.000000        0.01457196        0.00003404        0.02988753        0.17767175
     167         -0.597516        1.000000        0.01509801        0.00104948        0.03939171        0.16419264
     168         -0.581229        1.000000        0.02442034        0.00505368        0.04537066        0.13096929
     169         -0.575711        1.000000        0.02021960        0.00013978        0.00025469        0.17915380
     170         -0.567332        1.000000        0.02723494        0.00033531        0.01883662        0.15347985
     171         -0.555431        1.000000        0.00041766        0.00002172        0.00152834        0.00024316
     172         -0.523151        1.000000        0.00023953        0.00739813        0.00090329        0.00116125
     173         -0.519923        1.000000        0.00039706        0.00374755        0.00280299        0.00063882
     174         -0.519487        1.000000        0.00030206        0.00133272        0.00102261        0.00059249
     175         -0.517871        1.000000        0.00045339        0.00192047        0.01276087        0.00137818
     176         -0.514930        1.000000        0.00022725        0.03385848        0.00498323        0.00072746
     177         -0.512496        1.000000        0.00026532        0.03947384        0.04910723        0.00360729
     178         -0.511049        1.000000        0.00041605        0.01385771        0.12054876        0.00649338
     179         -0.509344        1.000000        0.00020754        0.03784094        0.01005192        0.00154454
     180         -0.508556        1.000000        0.00044328        0.02004410        0.00305391        0.00111652
     181         -0.508175        1.000000        0.00001255        0.00439628        0.00213167        0.00033115
     182         -0.507781        1.000000        0.00005673        0.07288880        0.00202770        0.00040167
     183         -0.506482        1.000000        0.00017061        0.05031841        0.00833037        0.00104209
     184         -0.506317        1.000000        0.00011761        0.00282570        0.00110293        0.00048311
     185         -0.505956        1.000000        0.00008205        0.01795597        0.00480330        0.00027093
     186         -0.505691        1.000000        0.00001046        0.00110379        0.00023557        0.00006040
     187         -0.504808        1.000000        0.00023056        0.01008611        0.00312406        0.00043052
     188         -0.502671        1.000000        0.00003284        0.00544041        0.02065922        0.00465216
     189         -0.502370        1.000000        0.00017083        0.02997619        0.01771117        0.00350764
     190         -0.501040        1.000000        0.00009228        0.02983696        0.00819104        0.00089453
     191         -0.500854        1.000000        0.00010682        0.01889159        0.00552291        0.00070246
     192         -0.500300        1.000000        0.00015693        0.01484448        0.01682515        0.00092983
     193         -0.500245        1.000000        0.00001220        0.00139750        0.00097681        0.00050304
     194         -0.498494        1.000000        0.00003406        0.00219511        0.00254818        0.00091277
     195         -0.497831        1.000000        0.00038140        0.00725058        0.02038720        0.00531907
     196         -0.497623        1.000000        0.00053197        0.01201187        0.03811464        0.00266341
     197         -0.496880        1.000000        0.00001045        0.00215996        0.00174547        0.00043192
     198         -0.495288        1.000000        0.00011077        0.00311943        0.00078087        0.00022093
     199         -0.494552        1.000000        0.00021826        0.01214034        0.00760481        0.00206121
     200         -0.494044        1.000000        0.00004019        0.00658238        0.00347643        0.00114134
     201         -0.491981        1.000000        0.00002836        0.00158602        0.00143120        0.00032605
     202         -0.491159        1.000000        0.00011980        0.00465343        0.00225279        0.00018360
     203         -0.490258        1.000000        0.00000094        0.00015123        0.00004158        0.00000941
     204         -0.489262        1.000000        0.00038356        0.02010491        0.05417203        0.00561020
     205         -0.488992        1.000000        0.00014724        0.00914590        0.01574967        0.00208879
     206         -0.487817        1.000000        0.00090395        0.03402070        0.10216950        0.00741986
     207         -0.487108        1.000000        0.00003791        0.00217032        0.00266820        0.00044701
     208         -0.485806        1.000000        0.00029583        0.00231321        0.03821935        0.00300891
     209         -0.485397        1.000000        0.00000976        0.00304693        0.02021995        0.00385642
     210         -0.483682        1.000000        0.00015462        0.00363742        0.00659836        0.00066246
     211         -0.483514        1.000000        0.00046042        0.00979916        0.02942337        0.00288015
     212         -0.482706        1.000000        0.00000015        0.00001420        0.00019192        0.00000634
     213         -0.478092        1.000000        0.00034184        0.10566097        0.36469623        0.06788933
     214         -0.477463        1.000000        0.00008847        0.13127365        0.36781306        0.05466643
     215         -0.475690        1.000000        0.00000004        0.00003530        0.00011031        0.00002312
     216         -0.474693        1.000000        0.00010895        0.12809837        0.06709600        0.00940920
     217         -0.474294        1.000000        0.00002575        0.26184563        0.06770884        0.01043687
     218         -0.473299        1.000000        0.00004912        0.40704975        0.07174671        0.02787562
     219         -0.471952        1.000000        0.00000079        0.00213766        0.00095853        0.00026874
     220         -0.471551        1.000000        0.00007630        0.08965922        0.36807192        0.07242511
     221         -0.471036        1.000000        0.00057079        0.25730196        0.05524805        0.00284874
     222         -0.469723        1.000000        0.00003547        0.03462395        0.01273524        0.00066945
     223         -0.468615        1.000000        0.00004964        0.43168672        0.06796801        0.02026811
     224         -0.466901        1.000000        0.00001251        0.00704020        0.00062260        0.00003136
     225         -0.464317        1.000000        0.00000001        0.00002450        0.00001095        0.00000359
     226         -0.463121        1.000000        0.00000003        0.00052437        0.00003670        0.00000286
     227         -0.462194        1.000000        0.00000002        0.00008231        0.00000542        0.00000543
     228         -0.461395        1.000000        0.00000141        0.00225930        0.00030390        0.00000248
     229         -0.458360        1.000000        0.00000038        0.23976097        0.34464082        0.00278648
     230         -0.458073        1.000000        0.00000134        0.02768982        0.00043790        0.00074597
     231         -0.456941        1.000000        0.00005080        0.48140832        0.00016439        0.02821151
     232         -0.455404        1.000000        0.00000004        0.00002726        0.00000731        0.00000543
     233         -0.455284        1.000000        0.00000014        0.00004053        0.00000337        0.00000293
     234         -0.452188        1.000000        0.00000019        0.00002597        0.00000256        0.00000059
     235         -0.451625        1.000000        0.00000001        0.00000075        0.00000152        0.00000071
     236         -0.450179        1.000000        0.00000001        0.00000074        0.00001202        0.00000474
     237         -0.449711        1.000000        0.00006152        0.01701045        0.30782026        0.12034995
     238         -0.448023        1.000000        0.00000631        0.00034857        0.00023100        0.00003749
     239         -0.447750        1.000000        0.00000233        0.00108326        0.00187893        0.00021635
     240         -0.444817        1.000000        0.00000046        0.00002304        0.00002329        0.00000253
     241         -0.442141        1.000000        0.00007519        0.00221299        0.02669655        0.00251912
     242         -0.440744        1.000000        0.00000003        0.00000185        0.00000559        0.00000089
     243         -0.439983        1.000000        0.00306576        0.32959647        0.22654893        0.00179854
     244         -0.439655        1.000000        0.00000002        0.00001913        0.00000021        0.00001096
     245         -0.438856        1.000000        0.00000196        0.00004245        0.00016709        0.00000174
     246         -0.438847        1.000000        0.00001983        0.00074138        0.00128478        0.00000946
     247         -0.436123        1.000000        0.00005439        0.00395461        0.00123374        0.00010785
     248         -0.435576        1.000000        0.00000689        0.00467620        0.00131955        0.00018377
     249         -0.435328        1.000000        0.00000001        0.00000030        0.00000055        0.00000088
     250         -0.434701        1.000000        0.00049934        0.44236248        0.06831078        0.00948976
     251         -0.434515        1.000000        0.00000004        0.00000901        0.00000192        0.00000357
     252         -0.434359        1.000000        0.00000555        0.00073021        0.00003999        0.00002643
     253         -0.434274        1.000000        0.00001906        0.00182061        0.00007412        0.00010061
     254         -0.433705        1.000000        0.00000002        0.00000521        0.00006150        0.00002030
     255         -0.432607        1.000000        0.00005175        0.03485466        0.29701236        0.02376816
     256         -0.432270        1.000000        0.00000851        0.00016721        0.00004619        0.00006097
     257         -0.431447        1.000000        0.00000023        0.00001251        0.00027210        0.00009780
     258         -0.429597        1.000000        0.00006384        0.00166955        0.02663472        0.01157358
     259         -0.427958        1.000000        0.00000073        0.00004902        0.00095293        0.00023728