# Projected DOS for atomic kind I at iteration step i = 0, E(Fermi) =    -0.103074 a.u.
#     MO Eigenvalue [a.u.]      Occupation                 s                py                pz                px
       1         -0.961067        1.000000        0.00000066        0.00000535        0.00000019        0.00000721
       2         -0.940785        1.000000        0.00001367        0.00000602        0.00011136        0.00002907
       3         -0.936348        1.000000        0.00000109        0.00000296        0.00000708        0.00000046
       4         -0.932961        1.000000        0.00001369        0.00008375        0.00004354        0.00001338
       5         -0.928229        1.000000        0.00000145        0.00001119        0.00000507        0.00000541
       6         -0.921308        1.000000        0.00001441        0.00000109        0.00003345        0.00009891
       7         -0.920098        1.000000        0.00000019        0.00000365        0.00000215        0.00000929
       8         -0.919981        1.000000        0.00000503        0.00001482        0.00000664        0.00003187
       9         -0.913005        1.000000        0.00005493        0.00006502        0.00004848        0.00019089
      10         -0.902871        1.000000        0.00000843        0.00000042        0.00002882        0.00005228
      11         -0.900716        1.000000        0.00000126        0.00000124        0.00001007        0.00000530
      12         -0.900407        1.000000        0.00002226        0.00004672        0.00004727        0.00004690
      13         -0.899331        1.000000        0.00000289        0.00002223        0.00000693        0.00000849
      14         -0.896760        1.000000        0.00000288        0.00000334        0.00000326        0.00003118
      15         -0.893698        1.000000        0.00000032        0.00000179        0.00000187        0.00000217
      16         -0.892624        1.000000        0.00000629        0.00004375        0.00001127        0.00001344
      17         -0.890238        1.000000        0.00000559        0.00001434        0.00002145        0.00002157
      18         -0.888187        1.000000        0.00001607        0.00004947        0.00001427        0.00006498
      19         -0.885899        1.000000        0.00007753        0.00000292        0.00007255        0.00029910
      20         -0.883689        1.000000        0.00001078        0.00005065        0.00002501        0.00001596
      21         -0.883101        1.000000        0.00000083        0.00000284        0.00000259        0.00000192
      22         -0.882067        1.000000        0.00001565        0.00001547        0.00009320        0.00002258
      23         -0.881036        1.000000        0.00008971        0.00009581        0.00019151        0.00010447
      24         -0.879886        1.000000        0.00000137        0.00000132        0.00000411        0.00000466
      25         -0.879720        1.000000        0.00000608        0.00001011        0.00002766        0.00001656
      26         -0.879296        1.000000        0.00006425        0.00005332        0.00000109        0.00028662
      27         -0.879025        1.000000        0.00000465        0.00000547        0.00001026        0.00002678
      28         -0.877297        1.000000        0.00002183        0.00000270        0.00005467        0.00003214
      29         -0.875586        1.000000        0.00004137        0.00000637        0.00012086        0.00009583
      30         -0.874524        1.000000        0.00002755        0.00000270        0.00022064        0.00001153
      31         -0.873183        1.000000        0.00000957        0.00003773        0.00002328        0.00003257
      32         -0.871478        1.000000        0.00001647        0.00000145        0.00002757        0.00009401
      33         -0.871368        1.000000        0.00000084        0.00000974        0.00002563        0.00001695
      34         -0.871057        1.000000        0.00001726        0.00005072        0.00002391        0.00004539
      35         -0.871019        1.000000        0.00027390        0.00048312        0.00037592        0.00024894
      36         -0.868091        1.000000        0.00020136        0.00045377        0.00001206        0.00009260
      37         -0.867740        1.000000        0.00000282        0.00001035        0.00000400        0.00001956
      38         -0.865986        1.000000        0.00000578        0.00000340        0.00001551        0.00003823
      39         -0.865030        1.000000        0.00009524        0.00018085        0.00019127        0.00006669
      40         -0.864281        1.000000        0.00002041        0.00003177        0.00007368        0.00004160
      41         -0.861880        1.000000        0.00001196        0.00001748        0.00004897        0.00002538
      42         -0.861592        1.000000        0.00015936        0.00018671        0.00010613        0.00040957
      43         -0.861356        1.000000        0.00006114        0.00005974        0.00005496        0.00024808
      44         -0.858881        1.000000        0.00016092        0.00022044        0.00043495        0.00022347
      45         -0.858679        1.000000        0.00013386        0.00039404        0.00009327        0.00022212
      46         -0.858496        1.000000        0.00001936        0.00001094        0.00009284        0.00003571
      47         -0.858323        1.000000        0.00000448        0.00000730        0.00001361        0.00001589
      48         -0.857986        1.000000        0.00000978        0.00000818        0.00002939        0.00002375
      49         -0.856911        1.000000        0.00002077        0.00001715        0.00000864        0.00008968
      50         -0.856438        1.000000        0.00006278        0.00004115        0.00006182        0.00015966
      51         -0.856377        1.000000        0.00012017        0.00029852        0.00018237        0.00021212
      52         -0.856293        1.000000        0.00001922        0.00004413        0.00001655        0.00008626
      53         -0.854739        1.000000        0.00000227        0.00002243        0.00000110        0.00000910
      54         -0.853825        1.000000        0.00003128        0.00001994        0.00009167        0.00006361
      55         -0.852602        1.000000        0.00002365        0.00002363        0.00000329        0.00017453
      56         -0.852350        1.000000        0.00000386        0.00002773        0.00001960        0.00002631
      57         -0.850774        1.000000        0.00003737        0.00006383        0.00008732        0.00004628
      58         -0.849986        1.000000        0.00000236        0.00000952        0.00002350        0.00000468
      59         -0.848616        1.000000        0.00005779        0.00003666        0.00018363        0.00005092
      60         -0.847341        1.000000        0.00004085        0.00000167        0.00026748        0.00006251
      61         -0.844407        1.000000        0.00004509        0.00002187        0.00003429        0.00018197
      62         -0.843337        1.000000        0.00000767        0.00000062        0.00003579        0.00001117
      63         -0.842612        1.000000        0.00005134        0.00002224        0.00008488        0.00007198
      64         -0.842311        1.000000        0.00010094        0.00013387        0.00001479        0.00013832
      65         -0.842286        1.000000        0.00004854        0.00005838        0.00021219        0.00006983
      66         -0.842162        1.000000        0.00001027        0.00012927        0.00010033        0.00001636
      67         -0.840325        1.000000        0.00005249        0.00000287        0.00004799        0.00018532
      68         -0.840237        1.000000        0.00010773        0.00004295        0.00041627        0.00013007
      69         -0.839648        1.000000        0.00001201        0.00004313        0.00001493        0.00000931
      70         -0.838809        1.000000        0.00000437        0.00004420        0.00002447        0.00000540
      71         -0.837593        1.000000        0.00004055        0.00005184        0.00001744        0.00011928
      72         -0.837466        1.000000        0.00001836        0.00006568        0.00006120        0.00000184
      73         -0.837414        1.000000        0.00000593        0.00001365        0.00000775        0.00003150
      74         -0.837080        1.000000        0.00002477        0.00000274        0.00011885        0.00003011
      75         -0.836986        1.000000        0.00002049        0.00003466        0.00002004        0.00011570
      76         -0.836010        1.000000        0.00006100        0.00008618        0.00004068        0.00012377
      77         -0.835030        1.000000        0.00003697        0.00000779        0.00010561        0.00005820
      78         -0.834218        1.000000        0.00001917        0.00006271        0.00000417        0.00007085
      79         -0.833373        1.000000        0.00003808        0.00001933        0.00008629        0.00013676
      80         -0.832834        1.000000        0.00000303        0.00000217        0.00002609        0.00000725
      81         -0.830950        1.000000        0.00002051        0.00001135        0.00007386        0.00003505
      82         -0.830452        1.000000        0.00003032        0.00005326        0.00006866        0.00006875
      83         -0.830126        1.000000        0.00002686        0.00004490        0.00004991        0.00004230
      84         -0.829727        1.000000        0.00000203        0.00000633        0.00000730        0.00000672
      85         -0.829196        1.000000        0.00001181        0.00001209        0.00001432        0.00005240
      86         -0.828335        1.000000        0.00002663        0.00005901        0.00007197        0.00003739
      87         -0.828178        1.000000        0.00005502        0.00001289        0.00005795        0.00020132
      88         -0.827785        1.000000        0.00007133        0.00004359        0.00018423        0.00007603
      89         -0.827513        1.000000        0.00001092        0.00003989        0.00005397        0.00000524
      90         -0.827431        1.000000        0.00000744        0.00002140        0.00002408        0.00003184
      91         -0.826731        1.000000        0.00003274        0.00001470        0.00010727        0.00004235
      92         -0.826326        1.000000        0.00000773        0.00000570        0.00000224        0.00001422
      93         -0.825557        1.000000        0.00000210        0.00000682        0.00000082        0.00000511
      94         -0.823160        1.000000        0.00005092        0.00006880        0.00010713        0.00009607
      95         -0.822880        1.000000        0.00004727        0.00003869        0.00003010        0.00016652
      96         -0.821791        1.000000        0.00003108        0.00001610        0.00003037        0.00009349
      97         -0.820935        1.000000        0.00003275        0.00001088        0.00002495        0.00007627
      98         -0.820266        1.000000        0.00003231        0.00003419        0.00001316        0.00010199
      99         -0.819497        1.000000        0.00006524        0.00014037        0.00004793        0.00005755
     100         -0.818536        1.000000        0.00000998        0.00001658        0.00001931        0.00002269
     101         -0.817212        1.000000        0.00002524        0.00004003        0.00004467        0.00004423
     102         -0.816737        1.000000        0.00000488        0.00000669        0.00000422        0.00000983
     103         -0.816440        1.000000        0.00001320        0.00002125        0.00004269        0.00003761
     104         -0.816071        1.000000        0.00003530        0.00006671        0.00017155        0.00007396
     105         -0.816043        1.000000        0.00120068        0.00164989        0.00123336        0.00011146
     106         -0.815731        1.000000        0.00000614        0.00001840        0.00001503        0.00001069
     107         -0.814198        1.000000        0.00000727        0.00004418        0.00004476        0.00001531
     108         -0.813401        1.000000        0.00003263        0.00008162        0.00009365        0.00000549
     109         -0.812439        1.000000        0.00004301        0.00001359        0.00001210        0.00022598
     110         -0.812407        1.000000        0.00002846        0.00006440        0.00004916        0.00002041
     111         -0.811198        1.000000        0.00002300        0.00007043        0.00003185        0.00006166
     112         -0.809464        1.000000        0.00001607        0.00002970        0.00003265        0.00003780
     113         -0.809309        1.000000        0.00002871        0.00002262        0.00005751        0.00005502
     114         -0.808888        1.000000        0.00003400        0.00006293        0.00000276        0.00000979
     115         -0.807194        1.000000        0.00000566        0.00001147        0.00002506        0.00001759
     116         -0.805412        1.000000        0.00003960        0.00002056        0.00026415        0.00001576
     117         -0.804325        1.000000        0.00000418        0.00000819        0.00000642        0.00001326
     118         -0.803287        1.000000        0.00003534        0.00005188        0.00000505        0.00001970
     119         -0.802997        1.000000        0.00000078        0.00001104        0.00000204        0.00000514
     120         -0.800560        1.000000        0.00001312        0.00000229        0.00009149        0.00000597
     121         -0.800502        1.000000        0.00003614        0.00003562        0.00003171        0.00008236
     122         -0.800449        1.000000        0.00006206        0.00006753        0.00017713        0.00000168
     123         -0.799213        1.000000        0.00002111        0.00007438        0.00002909        0.00006834
     124         -0.798220        1.000000        0.00002515        0.00017143        0.00008588        0.00003691
     125         -0.797711        1.000000        0.00000285        0.00001987        0.00002747        0.00000232
     126         -0.797446        1.000000        0.00011240        0.00003961        0.00044693        0.00002079
     127         -0.797383        1.000000        0.00000538        0.00000949        0.00000664        0.00004183
     128         -0.796904        1.000000        0.00003361        0.00007403        0.00001638        0.00003299
     129         -0.796543        1.000000        0.00000098        0.00001700        0.00000466        0.00001116
     130         -0.795711        1.000000        0.00003318        0.00002164        0.00004991        0.00006037
     131         -0.794693        1.000000        0.00001553        0.00001067        0.00000601        0.00001936
     132         -0.794445        1.000000        0.00005296        0.00011131        0.00010987        0.00002433
     133         -0.793060        1.000000        0.00004076        0.00003984        0.00010073        0.00004359
     134         -0.792121        1.000000        0.00009831        0.00012014        0.00011540        0.00020064
     135         -0.790871        1.000000        0.00002003        0.00002231        0.00009690        0.00004242
     136         -0.790453        1.000000        0.00000580        0.00000749        0.00002555        0.00000640
     137         -0.789773        1.000000        0.00019076        0.00008399        0.00032744        0.00013376
     138         -0.784623        1.000000        0.00004389        0.00004912        0.00004891        0.00009813
     139         -0.783701        1.000000        0.00013114        0.00003634        0.00005186        0.00014068
     140         -0.782456        1.000000        0.00000464        0.00001265        0.00000376        0.00003094
     141         -0.782346        1.000000        0.00005057        0.00001422        0.00024304        0.00001279
     142         -0.782225        1.000000        0.00000351        0.00001088        0.00000267        0.00000338
     143         -0.779748        1.000000        0.00001914        0.00002377        0.00001979        0.00001829
     144         -0.778020        1.000000        0.00009366        0.00010205        0.00017416        0.00010592
     145         -0.775667        1.000000        0.00046052        0.00096338        0.00009834        0.00034091
     146         -0.775574        1.000000        0.00002637        0.00001036        0.00012165        0.00002136
     147         -0.773485        1.000000        0.00002022        0.00010052        0.00000828        0.00001021
     148         -0.771682        1.000000        0.00001719        0.00000921        0.00002298        0.00009336
     149         -0.771171        1.000000        0.00000775        0.00000628        0.00000554        0.00000405
     150         -0.769329        1.000000        0.00005664        0.00001576        0.00008084        0.00021021
     151         -0.767853        1.000000        0.00817667        0.00839945        0.00014395        0.00181990
     152         -0.765905        1.000000        0.00000501        0.00002001        0.00000520        0.00001435
     153         -0.765812        1.000000        0.00000221        0.00002520        0.00000484        0.00000431
     154         -0.765500        1.000000        0.00001094        0.00002028        0.00000799        0.00000809
     155         -0.765214        1.000000        0.00000308        0.00000068        0.00001381        0.00002308
     156         -0.761186        1.000000        0.00000290        0.00001005        0.00000817        0.00000985
     157         -0.760871        1.000000        0.00001733        0.00006755        0.00011738        0.00002683
     158         -0.756637        1.000000        0.00000886        0.00000619        0.00000538        0.00001087
     159         -0.756121        1.000000        0.00000312        0.00000633        0.00000562        0.00000746
     160         -0.751854        1.000000        0.00008343        0.00001386        0.00001201        0.00018219
     161         -0.748250        1.000000        0.00005494        0.00015507        0.00002310        0.00006735
     162         -0.745177        1.000000        0.00003409        0.00002507        0.00002689        0.00006323
     163         -0.734215        1.000000        0.00001469        0.00001352        0.00000038        0.00001272
     164         -0.618945        1.000000        0.00234711        0.00061083        0.00045696        0.00020417
     165         -0.599992        1.000000        0.00290893        0.00050183        0.00037302        0.00043398
     166         -0.598668        1.000000        0.00357660        0.00055286        0.00063459        0.00047595
     167         -0.597503        1.000000        0.00142151        0.00033103        0.00017541        0.00021040
     168         -0.581225        1.000000        0.00177227        0.00028030        0.00026386        0.00026543
     169         -0.575713        1.000000        0.00299345        0.00009363        0.00025706        0.00030578
     170         -0.567339        1.000000        0.00255605        0.00029556        0.00024113        0.00033495
     171         -0.555455        1.000000        0.94745552        0.01721764        0.00066749        0.00340443
     172         -0.522448        1.000000        0.83301373        0.00681043        0.00393118        0.00534594
     173         -0.520034        1.000000        0.85054690        0.00519302        0.00632376        0.00429576
     174         -0.519170        1.000000        0.83297145        0.00617582        0.00416275        0.00455889
     175         -0.517987        1.000000        0.82483279        0.00421417        0.00555094        0.00479297
     176         -0.516897        1.000000        0.84389650        0.00274287        0.00236967        0.00352690
     177         -0.512456        1.000000        0.90388345        0.00194278        0.00260466        0.00290090
     178         -0.511791        1.000000        0.64048005        0.00247125        0.00540912        0.00123427
     179         -0.510606        1.000000        0.69374671        0.00395664        0.00156350        0.00443616
     180         -0.508554        1.000000        0.83760463        0.00170540        0.00272132        0.00125165
     181         -0.508046        1.000000        0.87526668        0.00220132        0.00316330        0.00186545
     182         -0.506790        1.000000        0.87024037        0.00173594        0.00213104        0.00138638
     183         -0.505732        1.000000        0.08411514        0.00092453        0.00011413        0.00036652
     184         -0.505178        1.000000        0.86027355        0.00833735        0.00107104        0.00292270
     185         -0.505063        1.000000        0.78091864        0.00276148        0.00217932        0.00205776
     186         -0.503896        1.000000        0.88525255        0.00164672        0.00095876        0.00085479
     187         -0.502061        1.000000        0.90432329        0.00074742        0.00164212        0.00133911
     188         -0.501992        1.000000        0.88555906        0.00085831        0.00197514        0.00158127
     189         -0.501662        1.000000        0.89721968        0.00099910        0.00247362        0.00165834
     190         -0.501441        1.000000        0.92321967        0.00141624        0.00044237        0.00048103
     191         -0.500970        1.000000        0.92112419        0.00096686        0.00129918        0.00134626
     192         -0.500745        1.000000        0.88502785        0.00097694        0.00047600        0.00082361
     193         -0.500383        1.000000        0.93963185        0.00039699        0.00022362        0.00082971
     194         -0.499849        1.000000        0.93998621        0.00127109        0.00056178        0.00036055
     195         -0.497890        1.000000        0.80829825        0.00104627        0.00361117        0.00153258
     196         -0.496796        1.000000        0.94210838        0.00050718        0.00048026        0.00020438
     197         -0.495462        1.000000        0.95903383        0.00111689        0.00081805        0.00062538
     198         -0.494778        1.000000        0.90351423        0.00031023        0.00039596        0.00095578
     199         -0.494166        1.000000        0.94983343        0.00086902        0.00016722        0.00107472
     200         -0.493796        1.000000        0.87337609        0.00067915        0.00051806        0.00048863
     201         -0.493231        1.000000        0.93812486        0.00200490        0.00035465        0.00149369
     202         -0.491572        1.000000        0.97058261        0.00024584        0.00023257        0.00073574
     203         -0.490268        1.000000        0.01312998        0.00013188        0.00002819        0.00005120
     204         -0.489176        1.000000        0.07597085        0.00012452        0.00021282        0.00013657
     205         -0.488612        1.000000        0.48264529        0.00041298        0.00043571        0.00064790
     206         -0.487197        1.000000        0.85103103        0.00032924        0.00033651        0.00089084
     207         -0.486649        1.000000        0.91632212        0.00066837        0.00092337        0.00071275
     208         -0.485649        1.000000        0.91276457        0.00049964        0.00042051        0.00069818
     209         -0.485331        1.000000        0.58389651        0.00062095        0.00050827        0.00070299
     210         -0.483614        1.000000        0.09242140        0.00045591        0.00004492        0.00010295
     211         -0.483410        1.000000        0.29205702        0.00013956        0.00018074        0.00021637
     212         -0.482700        1.000000        0.64458956        0.00188567        0.00012310        0.00041851
     213         -0.478242        1.000000        0.09941417        0.00207530        0.00068348        0.00099207
     214         -0.477434        1.000000        0.07535089        0.00127922        0.00317504        0.00114044
     215         -0.475689        1.000000        0.00153752        0.00012569        0.00003503        0.00000595
     216         -0.474753        1.000000        0.06908094        0.00200662        0.00083615        0.00170990
     217         -0.474382        1.000000        0.04318034        0.00168018        0.00028374        0.00135461
     218         -0.473250        1.000000        0.15666396        0.00317907        0.00030093        0.00179766
     219         -0.471955        1.000000        0.02440209        0.00002171        0.00025710        0.00038002
     220         -0.471530        1.000000        0.12406083        0.00122339        0.00060137        0.00188658
     221         -0.470943        1.000000        0.29752436        0.00075204        0.00109727        0.00200600
     222         -0.469712        1.000000        0.06386964        0.00025543        0.00007424        0.00031588
     223         -0.468309        1.000000        0.15121145        0.00228441        0.00039616        0.00310239
     224         -0.466898        1.000000        0.02017520        0.00008662        0.00003594        0.00019758
     225         -0.464317        1.000000        0.00426974        0.00005802        0.00015844        0.00024448
     226         -0.463119        1.000000        0.00315141        0.00000639        0.00002364        0.00007836
     227         -0.462194        1.000000        0.00562882        0.00002589        0.00022863        0.00040948
     228         -0.461396        1.000000        0.00132474        0.00030517        0.00009947        0.00011945
     229         -0.458335        1.000000        0.00931133        0.00049375        0.00233584        0.00061354
     230         -0.458070        1.000000        0.00832295        0.00024812        0.00023075        0.00097416
     231         -0.456943        1.000000        0.02764152        0.00122920        0.00055723        0.00105693
     232         -0.455401        1.000000        0.15995382        0.00003571        0.00101878        0.00577601
     233         -0.455281        1.000000        0.05369387        0.00008190        0.00038251        0.00197744
     234         -0.452180        1.000000        0.00626473        0.00027560        0.00007057        0.00049917
     235         -0.451609        1.000000        0.00017833        0.00005353        0.00001558        0.00004146
     236         -0.450077        1.000000        0.00025428        0.00000808        0.00000652        0.00008778
     237         -0.449705        1.000000        0.01771244        0.00167319        0.00039242        0.00077186
     238         -0.447990        1.000000        0.00107193        0.00005256        0.00002144        0.00011676
     239         -0.447753        1.000000        0.00028185        0.00004704        0.00004038        0.00003913
     240         -0.444803        1.000000        0.00355392        0.00048173        0.00009047        0.00033536
     241         -0.442143        1.000000        0.00046880        0.00012875        0.00006994        0.00003777
     242         -0.440745        1.000000        0.00068998        0.00001935        0.00005063        0.00006738
     243         -0.439992        1.000000        0.00202733        0.00012597        0.00159507        0.00024130
     244         -0.439655        1.000000        0.00035362        0.00006759        0.00000944        0.00011485
     245         -0.438857        1.000000        0.00064460        0.00006906        0.00000903        0.00010360
     246         -0.438725        1.000000        0.01439681        0.00019314        0.00012760        0.00401858
     247         -0.436228        1.000000        0.03536381        0.00210848        0.00025665        0.00475329
     248         -0.435549        1.000000        0.00216631        0.00014458        0.00109035        0.00027327
     249         -0.435316        1.000000        0.00459448        0.00004863        0.00044231        0.00114584
     250         -0.434706        1.000000        0.00232445        0.00033750        0.00082712        0.00019679
     251         -0.434518        1.000000        0.00122748        0.00016118        0.00066619        0.00021319
     252         -0.434359        1.000000        0.03301954        0.00001381        0.00160839        0.00026587
     253         -0.434274        1.000000        0.01015998        0.00003954        0.00044843        0.00016548
     254         -0.433705        1.000000        0.00076696        0.00005033        0.00007602        0.00007840
     255         -0.432614        1.000000        0.00207127        0.00077663        0.00057060        0.00016051
     256         -0.432271        1.000000        0.00053492        0.00006064        0.00002284        0.00018290
     257         -0.431446        1.000000        0.00037498        0.00003527        0.00002335        0.00008518
     258         -0.429597        1.000000        0.00041635        0.00005427        0.00005193        0.00002928
     259         -0.427956        1.000000        0.00085883        0.00005872        0.00017900        0.00038941