# Projected DOS for atomic kind Pb at iteration step i = 0, E(Fermi) =    -0.101588 a.u.
#     MO Eigenvalue [a.u.]      Occupation                 s                py                pz                px
       1         -0.961067        1.000000        0.00000000        0.00000002        0.00000000        0.00000000
       2         -0.940785        1.000000        0.00000000        0.00000003        0.00000002        0.00000000
       3         -0.936349        1.000000        0.00000000        0.00000000        0.00000000        0.00000000
       4         -0.932960        1.000000        0.00000005        0.00000029        0.00000000        0.00000001
       5         -0.928227        1.000000        0.00000001        0.00000017        0.00000014        0.00000003
       6         -0.921307        1.000000        0.00000003        0.00000002        0.00000067        0.00000027
       7         -0.920097        1.000000        0.00000000        0.00000002        0.00000001        0.00000005
       8         -0.919982        1.000000        0.00000002        0.00000009        0.00000000        0.00000002
       9         -0.913005        1.000000        0.00000001        0.00000007        0.00000000        0.00000000
      10         -0.902861        1.000000        0.00000005        0.00000000        0.00000001        0.00000026
      11         -0.900717        1.000000        0.00000001        0.00000000        0.00000003        0.00000000
      12         -0.900407        1.000000        0.00000004        0.00000028        0.00000001        0.00000001
      13         -0.899332        1.000000        0.00000025        0.00000290        0.00000133        0.00000672
      14         -0.897044        1.000000        0.00000002        0.00000050        0.00000003        0.00000026
      15         -0.893700        1.000000        0.00000000        0.00000001        0.00000000        0.00000000
      16         -0.892627        1.000000        0.00000003        0.00000014        0.00000001        0.00000000
      17         -0.890240        1.000000        0.00000005        0.00000005        0.00000085        0.00000038
      18         -0.888188        1.000000        0.00000005        0.00000033        0.00000010        0.00000064
      19         -0.885899        1.000000        0.00000000        0.00000006        0.00000002        0.00000007
      20         -0.883688        1.000000        0.00000012        0.00000021        0.00000158        0.00000009
      21         -0.883099        1.000000        0.00000001        0.00000011        0.00000011        0.00000005
      22         -0.882100        1.000000        0.00000007        0.00000010        0.00000040        0.00000084
      23         -0.881034        1.000000        0.00000032        0.00000099        0.00000043        0.00000415
      24         -0.879887        1.000000        0.00000001        0.00000004        0.00000003        0.00000002
      25         -0.879725        1.000000        0.00000005        0.00000000        0.00000028        0.00000001
      26         -0.879315        1.000000        0.00000020        0.00000165        0.00000003        0.00000134
      27         -0.879030        1.000000        0.00000004        0.00000000        0.00000001        0.00000019
      28         -0.877295        1.000000        0.00000001        0.00000076        0.00000001        0.00000000
      29         -0.875586        1.000000        0.00000000        0.00000000        0.00000000        0.00000004
      30         -0.874524        1.000000        0.00000025        0.00000011        0.00000066        0.00000000
      31         -0.873184        1.000000        0.00000004        0.00000004        0.00000008        0.00000051
      32         -0.871492        1.000000        0.00000008        0.00000000        0.00000001        0.00000031
      33         -0.871370        1.000000        0.00000000        0.00000001        0.00000002        0.00000003
      34         -0.871077        1.000000        0.00000006        0.00000001        0.00000003        0.00000064
      35         -0.871013        1.000000        0.00000349        0.00002555        0.00005501        0.00001609
      36         -0.868087        1.000000        0.00000001        0.00000014        0.00000001        0.00000002
      37         -0.867741        1.000000        0.00000000        0.00000007        0.00000002        0.00000002
      38         -0.865982        1.000000        0.00000005        0.00000001        0.00000001        0.00000018
      39         -0.864376        1.000000        0.00000027        0.00000189        0.00000122        0.00000034
      40         -0.864288        1.000000        0.00000017        0.00000003        0.00000081        0.00000004
      41         -0.861882        1.000000        0.00000008        0.00000001        0.00000018        0.00000075
      42         -0.861540        1.000000        0.00000328        0.00001603        0.00004566        0.00001664
      43         -0.861360        1.000000        0.00000049        0.00000673        0.00000158        0.00000472
      44         -0.858888        1.000000        0.00000052        0.00000604        0.00000509        0.00000333
      45         -0.858674        1.000000        0.00000046        0.00000688        0.00000746        0.00000221
      46         -0.858637        1.000000        0.00000005        0.00000008        0.00000017        0.00000082
      47         -0.858325        1.000000        0.00000000        0.00000039        0.00000016        0.00000015
      48         -0.858052        1.000000        0.00000003        0.00000034        0.00000017        0.00000039
      49         -0.856919        1.000000        0.00000001        0.00000034        0.00000011        0.00000004
      50         -0.856435        1.000000        0.00000045        0.00000137        0.00000366        0.00000182
      51         -0.856382        1.000000        0.00000033        0.00000768        0.00000376        0.00000269
      52         -0.856290        1.000000        0.00000015        0.00000199        0.00000028        0.00000217
      53         -0.854739        1.000000        0.00000001        0.00000010        0.00000004        0.00000007
      54         -0.853853        1.000000        0.00000006        0.00000107        0.00000016        0.00000026
      55         -0.852608        1.000000        0.00000017        0.00000000        0.00000002        0.00000086
      56         -0.852367        1.000000        0.00000002        0.00000003        0.00000009        0.00000002
      57         -0.851533        1.000000        0.00000014        0.00000083        0.00000002        0.00000002
      58         -0.849987        1.000000        0.00000001        0.00000003        0.00000009        0.00000008
      59         -0.848677        1.000000        0.00000064        0.00000077        0.00000458        0.00000168
      60         -0.847567        1.000000        0.00000005        0.00000053        0.00000004        0.00000015
      61         -0.844420        1.000000        0.00000017        0.00000002        0.00000001        0.00000061
      62         -0.844343        1.000000        0.00000077        0.00000031        0.00000527        0.00001048
      63         -0.843339        1.000000        0.00000007        0.00000000        0.00000046        0.00000008
      64         -0.842496        1.000000        0.00000002        0.00000111        0.00000012        0.00000028
      65         -0.842405        1.000000        0.00000025        0.00000037        0.00000185        0.00000049
      66         -0.842284        1.000000        0.00000084        0.00001070        0.00001264        0.00000126
      67         -0.841941        1.000000        0.00000004        0.00000044        0.00000023        0.00000004
      68         -0.840325        1.000000        0.00000038        0.00000001        0.00000465        0.00000237
      69         -0.839660        1.000000        0.00000003        0.00000007        0.00000002        0.00000051
      70         -0.838811        1.000000        0.00000006        0.00000035        0.00000021        0.00000182
      71         -0.837701        1.000000        0.00000007        0.00000006        0.00000010        0.00000026
      72         -0.837471        1.000000        0.00000031        0.00000045        0.00000354        0.00000002
      73         -0.837420        1.000000        0.00000002        0.00000002        0.00000005        0.00000013
      74         -0.837095        1.000000        0.00000007        0.00000022        0.00000033        0.00000003
      75         -0.836990        1.000000        0.00000011        0.00000001        0.00000001        0.00000037
      76         -0.836262        1.000000        0.00000022        0.00000004        0.00000001        0.00000105
      77         -0.835068        1.000000        0.00000007        0.00000072        0.00000110        0.00000047
      78         -0.834943        1.000000        0.00000008        0.00000017        0.00000037        0.00000031
      79         -0.834422        1.000000        0.00000009        0.00000000        0.00000001        0.00000031
      80         -0.832989        1.000000        0.00000001        0.00000011        0.00000000        0.00000000
      81         -0.830943        1.000000        0.00000025        0.00000076        0.00000148        0.00000036
      82         -0.830701        1.000000        0.00000002        0.00000040        0.00000038        0.00000004
      83         -0.830366        1.000000        0.00000017        0.00000171        0.00000028        0.00000017
      84         -0.829728        1.000000        0.00000002        0.00000010        0.00000013        0.00000004
      85         -0.829177        1.000000        0.00000011        0.00000039        0.00000037        0.00000019
      86         -0.828929        1.000000        0.00000003        0.00000054        0.00000068        0.00000017
      87         -0.828376        1.000000        0.00000008        0.00000030        0.00000044        0.00000004
      88         -0.827781        1.000000        0.00000007        0.00000106        0.00000010        0.00000021
      89         -0.827633        1.000000        0.00000003        0.00000005        0.00000008        0.00000043
      90         -0.827471        1.000000        0.00000010        0.00000020        0.00000052        0.00000092
      91         -0.827359        1.000000        0.00000004        0.00000019        0.00000068        0.00000084
      92         -0.825573        1.000000        0.00000006        0.00000082        0.00000033        0.00000203
      93         -0.823285        1.000000        0.00000017        0.00000016        0.00000014        0.00000061
      94         -0.823140        1.000000        0.00000020        0.00000237        0.00000029        0.00000026
      95         -0.821820        1.000000        0.00000012        0.00000003        0.00000199        0.00000069
      96         -0.821012        1.000000        0.00000040        0.00000001        0.00000158        0.00000163
      97         -0.820459        1.000000        0.00000017        0.00000008        0.00000005        0.00000097
      98         -0.819502        1.000000        0.00000018        0.00000056        0.00000135        0.00000014
      99         -0.819084        1.000000        0.00000002        0.00000011        0.00000027        0.00000015
     100         -0.818522        1.000000        0.00000012        0.00000076        0.00000025        0.00000018
     101         -0.817990        1.000000        0.00000025        0.00000043        0.00000015        0.00000002
     102         -0.816376        1.000000        0.00000007        0.00000024        0.00000023        0.00000018
     103         -0.815670        1.000000        0.00000002        0.00000022        0.00000007        0.00000004
     104         -0.815242        1.000000        0.00000014        0.00000002        0.00000027        0.00000007
     105         -0.814179        1.000000        0.00000003        0.00000003        0.00000009        0.00000001
     106         -0.813138        1.000000        0.00000031        0.00000007        0.00000000        0.00000102
     107         -0.813118        1.000000        0.00000021        0.00000033        0.00000031        0.00000000
     108         -0.811836        1.000000        0.00000010        0.00000004        0.00000199        0.00000001
     109         -0.811061        1.000000        0.00000018        0.00000175        0.00000030        0.00000078
     110         -0.810555        1.000000        0.00000002        0.00000063        0.00000027        0.00000015
     111         -0.809407        1.000000        0.00000006        0.00000013        0.00000107        0.00000089
     112         -0.809270        1.000000        0.00000013        0.00000045        0.00000076        0.00000020
     113         -0.808879        1.000000        0.00000005        0.00000066        0.00000031        0.00000008
     114         -0.807230        1.000000        0.00000005        0.00000001        0.00000013        0.00000000
     115         -0.806701        1.000000        0.00000126        0.00000755        0.00000056        0.00000007
     116         -0.805393        1.000000        0.00000032        0.00000004        0.00000040        0.00000008
     117         -0.804313        1.000000        0.00000003        0.00000003        0.00000002        0.00000015
     118         -0.804312        1.000000        0.00000004        0.00000025        0.00000072        0.00000004
     119         -0.803282        1.000000        0.00000026        0.00000267        0.00000098        0.00000008
     120         -0.802996        1.000000        0.00000001        0.00000002        0.00000000        0.00000001
     121         -0.801715        1.000000        0.00000095        0.00000011        0.00000312        0.00000002
     122         -0.800560        1.000000        0.00000002        0.00000070        0.00000014        0.00000003
     123         -0.800539        1.000000        0.00000013        0.00000013        0.00000016        0.00000078
     124         -0.799985        1.000000        0.00000001        0.00000011        0.00000011        0.00000001
     125         -0.798950        1.000000        0.00000032        0.00000021        0.00000104        0.00000001
     126         -0.797284        1.000000        0.00000002        0.00000001        0.00000002        0.00000009
     127         -0.797085        1.000000        0.00000006        0.00000026        0.00000188        0.00000061
     128         -0.796957        1.000000        0.00000003        0.00000039        0.00000082        0.00000016
     129         -0.796547        1.000000        0.00000086        0.00000795        0.00001210        0.00000209
     130         -0.796191        1.000000        0.00000051        0.00000250        0.00000138        0.00000007
     131         -0.795377        1.000000        0.00000010        0.00000046        0.00000083        0.00000017
     132         -0.794440        1.000000        0.00000023        0.00000086        0.00000109        0.00000132
     133         -0.793500        1.000000        0.00000076        0.00000398        0.00000006        0.00000006
     134         -0.792717        1.000000        0.00000045        0.00000027        0.00000097        0.00000005
     135         -0.790849        1.000000        0.00000012        0.00000003        0.00000037        0.00000003
     136         -0.790122        1.000000        0.00000004        0.00000029        0.00000021        0.00000004
     137         -0.789857        1.000000        0.00000009        0.00000033        0.00000001        0.00000029
     138         -0.787424        1.000000        0.00000002        0.00000028        0.00000009        0.00000048
     139         -0.783348        1.000000        0.00000025        0.00000250        0.00000048        0.00000123
     140         -0.783199        1.000000        0.00000013        0.00000080        0.00000010        0.00000021
     141         -0.782324        1.000000        0.00000002        0.00000009        0.00000027        0.00000016
     142         -0.781164        1.000000        0.00000015        0.00000368        0.00000106        0.00000050
     143         -0.781101        1.000000        0.00000012        0.00000007        0.00000124        0.00000012
     144         -0.780720        1.000000        0.00000008        0.00000002        0.00000002        0.00000033
     145         -0.780142        1.000000        0.00000013        0.00000001        0.00000042        0.00000306
     146         -0.778116        1.000000        0.00000155        0.00001084        0.00000001        0.00000165
     147         -0.776714        1.000000        0.00000032        0.00000000        0.00000120        0.00000000
     148         -0.775622        1.000000        0.00000023        0.00000001        0.00000081        0.00000013
     149         -0.775136        1.000000        0.00000025        0.00000116        0.00000014        0.00000040
     150         -0.771621        1.000000        0.00000006        0.00000000        0.00000022        0.00000000
     151         -0.771170        1.000000        0.00000001        0.00000002        0.00000002        0.00000007
     152         -0.767770        1.000000        0.00000023        0.00000151        0.00000002        0.00000108
     153         -0.765769        1.000000        0.00000001        0.00000000        0.00000004        0.00000000
     154         -0.765391        1.000000        0.00000040        0.00000004        0.00000007        0.00000135
     155         -0.765055        1.000000        0.00000000        0.00000002        0.00000002        0.00000000
     156         -0.761780        1.000000        0.00000007        0.00000053        0.00000008        0.00000052
     157         -0.760821        1.000000        0.00000004        0.00000001        0.00000007        0.00000000
     158         -0.758131        1.000000        0.00000042        0.00000009        0.00000001        0.00000144
     159         -0.757792        1.000000        0.00000001        0.00000002        0.00000005        0.00000003
     160         -0.757088        1.000000        0.00000024        0.00000087        0.00000000        0.00000003
     161         -0.747654        1.000000        0.00000018        0.00000074        0.00000003        0.00000007
     162         -0.746151        1.000000        0.00000014        0.00000001        0.00000001        0.00000049
     163         -0.722866        1.000000        0.00000000        0.00000003        0.00000000        0.00000000
     164         -0.618944        1.000000        0.00005842        0.00004834        0.00011852        0.00005875
     165         -0.599994        1.000000        0.00008261        0.00006324        0.00005415        0.00001266
     166         -0.598666        1.000000        0.00009482        0.00008124        0.00006140        0.00002273
     167         -0.597516        1.000000        0.00001992        0.00002050        0.00002459        0.00000515
     168         -0.581229        1.000000        0.00003315        0.00001937        0.00002253        0.00000847
     169         -0.575711        1.000000        0.00005163        0.00004271        0.00000776        0.00000717
     170         -0.567332        1.000000        0.00017005        0.00007408        0.00007236        0.00004684
     171         -0.555431        1.000000        0.00230281        0.00069508        0.00001215        0.00220469
     172         -0.523151        1.000000        0.14061578        0.00083610        0.00044748        0.00156877
     173         -0.519923        1.000000        0.11974002        0.00078684        0.00325550        0.00172436
     174         -0.519487        1.000000        0.11358117        0.00283287        0.00456322        0.00309869
     175         -0.517871        1.000000        0.09380196        0.01795488        0.00216764        0.00141539
     176         -0.514930        1.000000        0.07572656        0.00566115        0.00785228        0.00051545
     177         -0.512496        1.000000        0.04582272        0.00981822        0.00236939        0.00247924
     178         -0.511049        1.000000        0.04377439        0.00881548        0.00115245        0.00199327
     179         -0.509344        1.000000        0.01174422        0.02121865        0.00275413        0.00202971
     180         -0.508556        1.000000        0.00714781        0.00520451        0.02714086        0.00827737
     181         -0.508175        1.000000        0.00416439        0.01773599        0.00712610        0.00248177
     182         -0.507781        1.000000        0.02143470        0.00584666        0.01271091        0.00449687
     183         -0.506482        1.000000        0.01126459        0.00642570        0.01491958        0.00709455
     184         -0.506317        1.000000        0.02850219        0.00390339        0.01392296        0.01437312
     185         -0.505956        1.000000        0.04750554        0.00670824        0.01089224        0.00766928
     186         -0.505691        1.000000        0.00036346        0.00005727        0.00103977        0.00017802
     187         -0.504808        1.000000        0.00147895        0.00151984        0.01188266        0.00887679
     188         -0.502671        1.000000        0.00385076        0.00243058        0.01245581        0.01154391
     189         -0.502370        1.000000        0.00294632        0.00581170        0.00438204        0.01048156
     190         -0.501040        1.000000        0.01588475        0.00144977        0.01804032        0.01235808
     191         -0.500854        1.000000        0.02515298        0.00261818        0.02115055        0.00892619
     192         -0.500300        1.000000        0.03543325        0.00389068        0.01605318        0.00962607
     193         -0.500245        1.000000        0.00091706        0.03986901        0.00537249        0.00041446
     194         -0.498494        1.000000        0.00092669        0.01971954        0.00987637        0.00121969
     195         -0.497831        1.000000        0.01059018        0.00215026        0.01174919        0.00721122
     196         -0.497623        1.000000        0.03223761        0.00326986        0.01527242        0.00756931
     197         -0.496880        1.000000        0.00551600        0.01330672        0.00261208        0.01112597
     198         -0.495288        1.000000        0.00046990        0.00051476        0.01317126        0.01051123
     199         -0.494552        1.000000        0.00390437        0.01629306        0.00314834        0.00071646
     200         -0.494044        1.000000        0.00300937        0.00575115        0.00437082        0.00679840
     201         -0.491981        1.000000        0.00056926        0.00211499        0.00171171        0.01316349
     202         -0.491159        1.000000        0.00074752        0.00199483        0.00134926        0.02376772
     203         -0.490258        1.000000        0.00034282        0.00010509        0.00005265        0.00037371
     204         -0.489262        1.000000        0.00187730        0.00123241        0.00155605        0.01159016
     205         -0.488992        1.000000        0.00151375        0.00071445        0.00078206        0.01105272
     206         -0.487817        1.000000        0.00641989        0.00164556        0.00517657        0.01560551
     207         -0.487108        1.000000        0.01283133        0.00110194        0.00261446        0.01200718
     208         -0.485806        1.000000        0.00336572        0.00019839        0.00191856        0.01473692
     209         -0.485397        1.000000        0.00797401        0.00043461        0.00313174        0.01370031
     210         -0.483682        1.000000        0.00035790        0.00086818        0.00007617        0.00111052
     211         -0.483514        1.000000        0.00008438        0.00122345        0.00029583        0.00264880
     212         -0.482706        1.000000        0.00001826        0.00026654        0.00000133        0.00001294
     213         -0.478092        1.000000        0.00182202        0.00024381        0.00135187        0.00074946
     214         -0.477463        1.000000        0.00192924        0.00182001        0.00043194        0.00027156
     215         -0.475690        1.000000        0.00004557        0.00000537        0.00003499        0.00000170
     216         -0.474693        1.000000        0.00077960        0.00036610        0.00079457        0.00016950
     217         -0.474294        1.000000        0.00110394        0.00051434        0.00079093        0.00026142
     218         -0.473299        1.000000        0.00368901        0.00025159        0.00410215        0.00020068
     219         -0.471952        1.000000        0.00037101        0.00000683        0.00059857        0.00010808
     220         -0.471551        1.000000        0.00076930        0.00113743        0.00288054        0.00009842
     221         -0.471036        1.000000        0.00345805        0.00120437        0.00427188        0.00002709
     222         -0.469723        1.000000        0.00077688        0.00046861        0.00063395        0.00001462
     223         -0.468615        1.000000        0.00491999        0.00017573        0.00335091        0.00009520
     224         -0.466901        1.000000        0.00010798        0.00001135        0.00010930        0.00000347
     225         -0.464317        1.000000        0.00021332        0.00014210        0.00002851        0.00001803
     226         -0.463121        1.000000        0.00001364        0.00000254        0.00000698        0.00000008
     227         -0.462194        1.000000        0.00048774        0.00000249        0.00021245        0.00000256
     228         -0.461395        1.000000        0.00017651        0.00001172        0.00001698        0.00002141
     229         -0.458360        1.000000        0.00025155        0.00002423        0.00000682        0.00005398
     230         -0.458073        1.000000        0.00088523        0.00000022        0.00001022        0.00030100
     231         -0.456941        1.000000        0.00158379        0.00005243        0.00091602        0.00003949
     232         -0.455404        1.000000        0.00004204        0.00006169        0.00000246        0.00000022
     233         -0.455284        1.000000        0.00005061        0.00003248        0.00000127        0.00000153
     234         -0.452188        1.000000        0.00037509        0.00006725        0.00000082        0.00001386
     235         -0.451625        1.000000        0.00003023        0.00000579        0.00000361        0.00000134
     236         -0.450179        1.000000        0.00000069        0.00000302        0.00000095        0.00000129
     237         -0.449711        1.000000        0.00183367        0.00005348        0.00061332        0.00000558
     238         -0.448023        1.000000        0.00002667        0.00000149        0.00000586        0.00001573
     239         -0.447750        1.000000        0.00001535        0.00000019        0.00000121        0.00000588
     240         -0.444817        1.000000        0.00030292        0.00001327        0.00000082        0.00002968
     241         -0.442141        1.000000        0.00004304        0.00000076        0.00000051        0.00001362
     242         -0.440744        1.000000        0.00002791        0.00000798        0.00000160        0.00000249
     243         -0.439983        1.000000        0.00000835        0.00000413        0.00000152        0.00000580
     244         -0.439655        1.000000        0.00002119        0.00000770        0.00000046        0.00000005
     245         -0.438856        1.000000        0.00036728        0.00005575        0.00000184        0.00000801
     246         -0.438847        1.000000        0.00093777        0.00018089        0.00001597        0.00001284
     247         -0.436123        1.000000        0.00126824        0.00000405        0.00045145        0.00022244
     248         -0.435576        1.000000        0.00051503        0.00000040        0.00000575        0.00005021
     249         -0.435328        1.000000        0.00086326        0.00000482        0.00000712        0.00020863
     250         -0.434701        1.000000        0.00045911        0.00000124        0.00001269        0.00005918
     251         -0.434515        1.000000        0.00031374        0.00000208        0.00007972        0.00000051
     252         -0.434359        1.000000        0.00005140        0.00001213        0.00000043        0.00000026
     253         -0.434274        1.000000        0.00004433        0.00000652        0.00000141        0.00000115
     254         -0.433705        1.000000        0.00017288        0.00000248        0.00001026        0.00000055
     255         -0.432607        1.000000        0.00043840        0.00000336        0.00000029        0.00006388
     256         -0.432270        1.000000        0.00000862        0.00000137        0.00000067        0.00002187
     257         -0.431447        1.000000        0.00016591        0.00000184        0.00000929        0.00000024
     258         -0.429597        1.000000        0.00011118        0.00000125        0.00001624        0.00000026
     259         -0.427958        1.000000        0.00038168        0.00000730        0.00001926        0.00000052