# Projected DOS for atomic kind H at iteration step i = 0, E(Fermi) =    -0.101588 a.u.
#     MO Eigenvalue [a.u.]      Occupation                 s
       1         -0.961067        1.000000        0.28136138
       2         -0.940785        1.000000        0.24792681
       3         -0.936349        1.000000        0.27729054
       4         -0.932960        1.000000        0.23762355
       5         -0.928227        1.000000        0.27841727
       6         -0.921307        1.000000        0.26805022
       7         -0.920097        1.000000        0.26103674
       8         -0.919982        1.000000        0.24538855
       9         -0.913005        1.000000        0.27919849
      10         -0.902861        1.000000        0.28100760
      11         -0.900717        1.000000        0.29879188
      12         -0.900407        1.000000        0.25541406
      13         -0.899332        1.000000        0.25888353
      14         -0.897044        1.000000        0.29028817
      15         -0.893700        1.000000        0.21763731
      16         -0.892627        1.000000        0.28395625
      17         -0.890240        1.000000        0.27270506
      18         -0.888188        1.000000        0.26786666
      19         -0.885899        1.000000        0.23804330
      20         -0.883688        1.000000        0.25779515
      21         -0.883099        1.000000        0.26617206
      22         -0.882100        1.000000        0.23572528
      23         -0.881034        1.000000        0.27325006
      24         -0.879887        1.000000        0.24740304
      25         -0.879725        1.000000        0.29121403
      26         -0.879315        1.000000        0.26572396
      27         -0.879030        1.000000        0.26587307
      28         -0.877295        1.000000        0.27093509
      29         -0.875586        1.000000        0.25899507
      30         -0.874524        1.000000        0.26561443
      31         -0.873184        1.000000        0.26672179
      32         -0.871492        1.000000        0.26771273
      33         -0.871370        1.000000        0.25544120
      34         -0.871077        1.000000        0.24946823
      35         -0.871013        1.000000        0.27778330
      36         -0.868087        1.000000        0.25503926
      37         -0.867741        1.000000        0.24840361
      38         -0.865982        1.000000        0.27921612
      39         -0.864376        1.000000        0.26211628
      40         -0.864288        1.000000        0.26997915
      41         -0.861882        1.000000        0.27057200
      42         -0.861540        1.000000        0.24960494
      43         -0.861360        1.000000        0.26222758
      44         -0.858888        1.000000        0.28172933
      45         -0.858674        1.000000        0.28163231
      46         -0.858637        1.000000        0.27944249
      47         -0.858325        1.000000        0.23912381
      48         -0.858052        1.000000        0.24166061
      49         -0.856919        1.000000        0.23160560
      50         -0.856435        1.000000        0.27057654
      51         -0.856382        1.000000        0.27802240
      52         -0.856290        1.000000        0.26951701
      53         -0.854739        1.000000        0.26116713
      54         -0.853853        1.000000        0.23319261
      55         -0.852608        1.000000        0.26842039
      56         -0.852367        1.000000        0.25675628
      57         -0.851533        1.000000        0.27981137
      58         -0.849987        1.000000        0.25649611
      59         -0.848677        1.000000        0.24127598
      60         -0.847567        1.000000        0.25624159
      61         -0.844420        1.000000        0.26066050
      62         -0.844343        1.000000        0.25969610
      63         -0.843339        1.000000        0.23288002
      64         -0.842496        1.000000        0.22923920
      65         -0.842405        1.000000        0.24877328
      66         -0.842284        1.000000        0.25910873
      67         -0.841941        1.000000        0.25931960
      68         -0.840325        1.000000        0.25904069
      69         -0.839660        1.000000        0.23984032
      70         -0.838811        1.000000        0.25198865
      71         -0.837701        1.000000        0.24320545
      72         -0.837471        1.000000        0.25592334
      73         -0.837420        1.000000        0.26235982
      74         -0.837095        1.000000        0.26494520
      75         -0.836990        1.000000        0.23820959
      76         -0.836262        1.000000        0.24841875
      77         -0.835068        1.000000        0.26009372
      78         -0.834943        1.000000        0.25878880
      79         -0.834422        1.000000        0.26074201
      80         -0.832989        1.000000        0.24560482
      81         -0.830943        1.000000        0.24785041
      82         -0.830701        1.000000        0.26567835
      83         -0.830366        1.000000        0.28133598
      84         -0.829728        1.000000        0.22179211
      85         -0.829177        1.000000        0.25827801
      86         -0.828929        1.000000        0.25516193
      87         -0.828376        1.000000        0.24561768
      88         -0.827781        1.000000        0.28042462
      89         -0.827633        1.000000        0.22553933
      90         -0.827471        1.000000        0.20913220
      91         -0.827359        1.000000        0.24015975
      92         -0.825573        1.000000        0.23064644
      93         -0.823285        1.000000        0.26142484
      94         -0.823140        1.000000        0.25628250
      95         -0.821820        1.000000        0.23893501
      96         -0.821012        1.000000        0.23968455
      97         -0.820459        1.000000        0.22878742
      98         -0.819502        1.000000        0.23780056
      99         -0.819084        1.000000        0.26904808
     100         -0.818522        1.000000        0.24280576
     101         -0.817990        1.000000        0.24212490
     102         -0.816376        1.000000        0.22921227
     103         -0.815670        1.000000        0.23306410
     104         -0.815242        1.000000        0.23783789
     105         -0.814179        1.000000        0.22368117
     106         -0.813138        1.000000        0.26497769
     107         -0.813118        1.000000        0.23670134
     108         -0.811836        1.000000        0.23827022
     109         -0.811061        1.000000        0.24094663
     110         -0.810555        1.000000        0.24114259
     111         -0.809407        1.000000        0.21640606
     112         -0.809270        1.000000        0.22861676
     113         -0.808879        1.000000        0.24929323
     114         -0.807230        1.000000        0.19954766
     115         -0.806701        1.000000        0.25041907
     116         -0.805393        1.000000        0.23952053
     117         -0.804313        1.000000        0.19399174
     118         -0.804312        1.000000        0.23259186
     119         -0.803282        1.000000        0.21831166
     120         -0.802996        1.000000        0.18312296
     121         -0.801715        1.000000        0.24130569
     122         -0.800560        1.000000        0.18309836
     123         -0.800539        1.000000        0.21313684
     124         -0.799985        1.000000        0.23972024
     125         -0.798950        1.000000        0.20573148
     126         -0.797284        1.000000        0.23882115
     127         -0.797085        1.000000        0.21601279
     128         -0.796957        1.000000        0.22201143
     129         -0.796547        1.000000        0.19524640
     130         -0.796191        1.000000        0.22775843
     131         -0.795377        1.000000        0.21679199
     132         -0.794440        1.000000        0.25099620
     133         -0.793500        1.000000        0.19137149
     134         -0.792717        1.000000        0.20242555
     135         -0.790849        1.000000        0.22748898
     136         -0.790122        1.000000        0.23216151
     137         -0.789857        1.000000        0.21053299
     138         -0.787424        1.000000        0.19278446
     139         -0.783348        1.000000        0.22991242
     140         -0.783199        1.000000        0.24316829
     141         -0.782324        1.000000        0.18978779
     142         -0.781164        1.000000        0.20609519
     143         -0.781101        1.000000        0.21583637
     144         -0.780720        1.000000        0.21376197
     145         -0.780142        1.000000        0.20534066
     146         -0.778116        1.000000        0.20048215
     147         -0.776714        1.000000        0.22424940
     148         -0.775622        1.000000        0.20108659
     149         -0.775136        1.000000        0.20427644
     150         -0.771621        1.000000        0.21179678
     151         -0.771170        1.000000        0.18878780
     152         -0.767770        1.000000        0.15687650
     153         -0.765769        1.000000        0.19022240
     154         -0.765391        1.000000        0.20629516
     155         -0.765055        1.000000        0.20581802
     156         -0.761780        1.000000        0.20559841
     157         -0.760821        1.000000        0.19516896
     158         -0.758131        1.000000        0.19144178
     159         -0.757792        1.000000        0.20159963
     160         -0.757088        1.000000        0.16109188
     161         -0.747654        1.000000        0.18068338
     162         -0.746151        1.000000        0.18541961
     163         -0.722866        1.000000        0.16834216
     164         -0.618944        1.000000        0.34598393
     165         -0.599994        1.000000        0.33808177
     166         -0.598666        1.000000        0.33854341
     167         -0.597516        1.000000        0.33926992
     168         -0.581229        1.000000        0.35553682
     169         -0.575711        1.000000        0.35248386
     170         -0.567332        1.000000        0.36474416
     171         -0.555431        1.000000        0.00554649
     172         -0.523151        1.000000        0.00922541
     173         -0.519923        1.000000        0.00963416
     174         -0.519487        1.000000        0.00608983
     175         -0.517871        1.000000        0.01396969
     176         -0.514930        1.000000        0.03080791
     177         -0.512496        1.000000        0.06848124
     178         -0.511049        1.000000        0.09616220
     179         -0.509344        1.000000        0.03925936
     180         -0.508556        1.000000        0.02075739
     181         -0.508175        1.000000        0.00736867
     182         -0.507781        1.000000        0.05610275
     183         -0.506482        1.000000        0.04849859
     184         -0.506317        1.000000        0.01014943
     185         -0.505956        1.000000        0.02125313
     186         -0.505691        1.000000        0.34246871
     187         -0.504808        1.000000        0.02202857
     188         -0.502671        1.000000        0.02402542
     189         -0.502370        1.000000        0.03750558
     190         -0.501040        1.000000        0.02998852
     191         -0.500854        1.000000        0.02179221
     192         -0.500300        1.000000        0.02653934
     193         -0.500245        1.000000        0.00869325
     194         -0.498494        1.000000        0.00945568
     195         -0.497831        1.000000        0.02779617
     196         -0.497623        1.000000        0.03662509
     197         -0.496880        1.000000        0.00434352
     198         -0.495288        1.000000        0.01144762
     199         -0.494552        1.000000        0.03270447
     200         -0.494044        1.000000        0.00908255
     201         -0.491981        1.000000        0.00391089
     202         -0.491159        1.000000        0.01122940
     203         -0.490258        1.000000        0.33551933
     204         -0.489262        1.000000        0.19232165
     205         -0.488992        1.000000        0.22137682
     206         -0.487817        1.000000        0.09671679
     207         -0.487108        1.000000        0.01249454
     208         -0.485806        1.000000        0.11564173
     209         -0.485397        1.000000        0.02505329
     210         -0.483682        1.000000        0.32119131
     211         -0.483514        1.000000        0.28029717
     212         -0.482706        1.000000        0.14595525
     213         -0.478092        1.000000        0.28652170
     214         -0.477463        1.000000        0.29844295
     215         -0.475690        1.000000        0.32711063
     216         -0.474693        1.000000        0.31742462
     217         -0.474294        1.000000        0.30876026
     218         -0.473299        1.000000        0.26537585
     219         -0.471952        1.000000        0.33933617
     220         -0.471551        1.000000        0.27781079
     221         -0.471036        1.000000        0.21382357
     222         -0.469723        1.000000        0.32473231
     223         -0.468615        1.000000        0.26893413
     224         -0.466901        1.000000        0.34633151
     225         -0.464317        1.000000        0.35020288
     226         -0.463121        1.000000        0.35114946
     227         -0.462194        1.000000        0.34417064
     228         -0.461395        1.000000        0.35082572
     229         -0.458360        1.000000        0.33659550
     230         -0.458073        1.000000        0.35245797
     231         -0.456941        1.000000        0.32618176
     232         -0.455404        1.000000        0.28760280
     233         -0.455284        1.000000        0.33196543
     234         -0.452188        1.000000        0.35493281
     235         -0.451625        1.000000        0.30767948
     236         -0.450179        1.000000        0.32843771
     237         -0.449711        1.000000        0.31913359
     238         -0.448023        1.000000        0.35931329
     239         -0.447750        1.000000        0.34982999
     240         -0.444817        1.000000        0.34787663
     241         -0.442141        1.000000        0.33972814
     242         -0.440744        1.000000        0.35435567
     243         -0.439983        1.000000        0.31627772
     244         -0.439655        1.000000        0.35583073
     245         -0.438856        1.000000        0.35759624
     246         -0.438847        1.000000        0.34327973
     247         -0.436123        1.000000        0.33773203
     248         -0.435576        1.000000        0.34046291
     249         -0.435328        1.000000        0.35947639
     250         -0.434701        1.000000        0.34080086
     251         -0.434515        1.000000        0.34374909
     252         -0.434359        1.000000        0.35066611
     253         -0.434274        1.000000        0.35122332
     254         -0.433705        1.000000        0.34819203
     255         -0.432607        1.000000        0.32514762
     256         -0.432270        1.000000        0.34459676
     257         -0.431447        1.000000        0.32675962
     258         -0.429597        1.000000        0.33573372
     259         -0.427958        1.000000        0.33334633
     260         -0.427127        1.000000        0.34218135
     261         -0.425891        1.000000        0.34718496
     262         -0.425415        1.000000        0.32862053
     263         -0.425316        1.000000        0.32857981
     264         -0.424812        1.000000        0.34821305
     265         -0.424669        1.000000        0.35749507
     266         -0.424551        1.000000        0.36371081
     267         -0.422782        1.000000        0.34853644
     268         -0.422427        1.000000        0.35054617
     269         -0.422067        1.000000        0.34040295
     270         -0.421284        1.000000        0.34614769
     271         -0.421185        1.000000        0.35676030
     272         -0.418857        1.000000        0.34003487
     273         -0.418624        1.000000        0.35019700
     274         -0.417685        1.000000        0.34545427
     275         -0.417206        1.000000        0.34922708
     276         -0.416753        1.000000        0.34781127
     277         -0.414954        1.000000        0.34139150
     278         -0.413520        1.000000        0.34946629
     279         -0.412802        1.000000        0.34291610
     280         -0.412380        1.000000        0.35142746
     281         -0.412225        1.000000        0.34951285
     282         -0.411657        1.000000        0.33707227
     283         -0.411291        1.000000        0.34362056
     284         -0.411079        1.000000        0.34484925
     285         -0.410531        1.000000        0.34000406
     286         -0.409529        1.000000        0.33363722
     287         -0.408940        1.000000        0.31875451
     288         -0.407235        1.000000        0.33668519
     289         -0.406794        1.000000        0.31329589
     290         -0.406498        1.000000        0.33277877
     291         -0.406213        1.000000        0.35319661
     292         -0.405033        1.000000        0.34241007
     293         -0.404337        1.000000        0.32370525
     294         -0.404038        1.000000        0.34822496
     295         -0.404003        1.000000        0.33920873
     296         -0.402938        1.000000        0.34478471
     297         -0.402884        1.000000        0.31948641
     298         -0.402648        1.000000        0.33360917
     299         -0.400830        1.000000        0.34718229
     300         -0.400805        1.000000        0.33576511
     301         -0.399980        1.000000        0.33903858
     302         -0.399708        1.000000        0.34182740
     303         -0.399609        1.000000        0.18545969
     304         -0.398457        1.000000        0.34683617
     305         -0.398031        1.000000        0.33626830
     306         -0.397443        1.000000        0.33418070
     307         -0.397097        1.000000        0.31032954
     308         -0.396172        1.000000        0.34309239
     309         -0.395962        1.000000        0.33940449
     310         -0.395690        1.000000        0.33849080
     311         -0.395480        1.000000        0.33080257
     312         -0.395399        1.000000        0.34022993
     313         -0.395281        1.000000        0.34211055
     314         -0.394808        1.000000        0.32881542
     315         -0.393536        1.000000        0.34600870
     316         -0.393277        1.000000        0.34723947
     317         -0.392933        1.000000        0.33537141
     318         -0.392662        1.000000        0.33621830
     319         -0.392117        1.000000        0.17086251
     320         -0.391725        1.000000        0.33553035
     321         -0.391620        1.000000        0.35152605
     322         -0.391240        1.000000        0.32958740
     323         -0.390794        1.000000        0.34780479
     324         -0.390635        1.000000        0.31747026
     325         -0.390354        1.000000        0.28579482
     326         -0.390259        1.000000        0.32746762
     327         -0.389638        1.000000        0.33867064
     328         -0.388775        1.000000        0.21875545
     329         -0.388359        1.000000        0.32460770
     330         -0.387522        1.000000        0.34260167
     331         -0.386895        1.000000        0.29671644
     332         -0.386717        1.000000        0.32734837
     333         -0.386502        1.000000        0.31658094
     334         -0.386039        1.000000        0.14087701
     335         -0.385159        1.000000        0.06726682
     336         -0.384315        1.000000        0.24950505
     337         -0.384198        1.000000        0.32835979
     338         -0.383909        1.000000        0.27798548
     339         -0.383587        1.000000        0.19508777
     340         -0.383288        1.000000        0.24878680
     341         -0.382795        1.000000        0.20402936
     342         -0.382628        1.000000        0.30522985
     343         -0.382119        1.000000        0.26569480
     344         -0.381835        1.000000        0.32240356
     345         -0.381542        1.000000        0.29894723
     346         -0.381164        1.000000        0.29849306
     347         -0.381072        1.000000        0.31829273
     348         -0.380923        1.000000        0.30355509
     349         -0.380524        1.000000        0.24327477
     350         -0.380317        1.000000        0.31041306
     351         -0.379670        1.000000        0.23088438
     352         -0.379297        1.000000        0.29891211
     353         -0.379116        1.000000        0.25421044
     354         -0.378530        1.000000        0.24368474
     355         -0.377798        1.000000        0.19001780
     356         -0.377620        1.000000        0.15331240
     357         -0.374706        1.000000        0.09566108
     358         -0.374363        1.000000        0.32389850
     359         -0.373842        1.000000        0.32192336
     360         -0.373266        1.000000        0.35046895
     361         -0.373198        1.000000        0.35625433
     362         -0.373059        1.000000        0.32768403
     363         -0.372824        1.000000        0.31460232
     364         -0.372358        1.000000        0.32101729
     365         -0.371979        1.000000        0.33106560
     366         -0.371260        1.000000        0.34036770
     367         -0.371105        1.000000        0.05758326
     368         -0.370849        1.000000        0.33530155
     369         -0.370410        1.000000        0.33582255
     370         -0.366311        1.000000        0.33959775
     371         -0.366046        1.000000        0.35559017
     372         -0.365166        1.000000        0.33329246
     373         -0.364283        1.000000        0.33164047
     374         -0.361712        1.000000        0.29643799
     375         -0.361693        1.000000        0.31984704
     376         -0.361280        1.000000        0.34575915
     377         -0.360798        1.000000        0.27529649
     378         -0.360300        1.000000        0.32806962
     379         -0.358420        1.000000        0.33410028
     380         -0.356621        1.000000        0.33416715
     381         -0.356108        1.000000        0.19607345
     382         -0.355928        1.000000        0.34260257
     383         -0.352352        1.000000        0.31953763
     384         -0.350089        1.000000        0.36626180
     385         -0.350037        1.000000        0.33606357
     386         -0.347648        1.000000        0.19413348
     387         -0.347084        1.000000        0.32601394
     388         -0.345563        1.000000        0.32960959
     389         -0.342492        1.000000        0.34092888
     390         -0.337511        1.000000        0.32009371
     391         -0.336096        1.000000        0.42555782
     392         -0.334234        1.000000        0.33346273
     393         -0.332789        1.000000        0.41922809
     394         -0.328429        1.000000        0.16558329
     395         -0.327033        1.000000        0.15916287
     396         -0.324646        1.000000        0.10945579
     397         -0.321945        1.000000        0.14444462
     398         -0.321769        1.000000        0.13406247
     399         -0.318151        1.000000        0.16876632
     400         -0.317146        1.000000        0.24316038
     401         -0.315477        1.000000        0.17099706
     402         -0.314607        1.000000        0.11699607
     403         -0.314292        1.000000        0.41957320
     404         -0.313443        1.000000        0.41985588
     405         -0.312798        1.000000        0.40640075
     406         -0.312746        1.000000        0.15938191
     407         -0.312487        1.000000        0.34472847
     408         -0.312451        1.000000        0.22685325
     409         -0.312026        1.000000        0.42016369
     410         -0.310785        1.000000        0.41801755
     411         -0.308354        1.000000        0.13024873
     412         -0.307924        1.000000        0.13817162
     413         -0.306276        1.000000        0.30468149
     414         -0.305218        1.000000        0.17203958
     415         -0.302766        1.000000        0.14609025
     416         -0.302357        1.000000        0.41521976
     417         -0.302085        1.000000        0.11649000
     418         -0.300209        1.000000        0.19196599
     419         -0.299859        1.000000        0.28372598
     420         -0.297850        1.000000        0.16226425
     421         -0.296704        1.000000        0.22861211
     422         -0.296240        1.000000        0.23311626
     423         -0.295991        1.000000        0.24489715
     424         -0.295816        1.000000        0.28562732
     425         -0.295602        1.000000        0.21557424
     426         -0.292248        1.000000        0.15627646
     427         -0.291927        1.000000        0.17083304
     428         -0.291183        1.000000        0.23468624
     429         -0.290579        1.000000        0.12270066
     430         -0.290006        1.000000        0.16808466
     431         -0.289130        1.000000        0.16015350
     432         -0.288917        1.000000        0.13280443
     433         -0.288764        1.000000        0.40091113
     434         -0.288005        1.000000        0.11998469
     435         -0.285580        1.000000        0.14213658
     436         -0.284303        1.000000        0.12594127
     437         -0.281728        1.000000        0.11290219
     438         -0.281384        1.000000        0.13527543
     439         -0.281316        1.000000        0.13514756
     440         -0.280239        1.000000        0.09948531
     441         -0.279859        1.000000        0.15248766
     442         -0.279137        1.000000        0.14233775
     443         -0.277206        1.000000        0.14141605
     444         -0.276819        1.000000        0.13931831
     445         -0.276482        1.000000        0.13717950
     446         -0.274541        1.000000        0.11330221
     447         -0.273019        1.000000        0.14459692
     448         -0.271440        1.000000        0.10755656
     449         -0.270801        1.000000        0.11867013
     450         -0.270183        1.000000        0.09938828
     451         -0.269787        1.000000        0.08776073
     452         -0.269725        1.000000        0.13227416
     453         -0.269121        1.000000        0.11709534
     454         -0.268394        1.000000        0.10504406
     455         -0.267549        1.000000        0.09808988
     456         -0.267033        1.000000        0.09989093
     457         -0.266683        1.000000        0.09000158
     458         -0.265501        1.000000        0.12637294
     459         -0.264732        1.000000        0.13435162
     460         -0.264090        1.000000        0.07145148
     461         -0.263010        1.000000        0.12681036
     462         -0.261849        1.000000        0.10089112
     463         -0.259491        1.000000        0.11762622
     464         -0.258867        1.000000        0.11177327
     465         -0.258753        1.000000        0.13339732
     466         -0.258047        1.000000        0.12910353
     467         -0.255052        1.000000        0.10454531
     468         -0.254497        1.000000        0.09633774
     469         -0.254033        1.000000        0.08872831
     470         -0.253039        1.000000        0.09988030
     471         -0.252678        1.000000        0.09327618
     472         -0.251706        1.000000        0.12935036
     473         -0.250400        1.000000        0.12155806
     474         -0.249489        1.000000        0.11488492
     475         -0.247952        1.000000        0.11421845
     476         -0.247841        1.000000        0.10321142
     477         -0.247717        1.000000        0.04119801
     478         -0.246010        1.000000        0.10478701
     479         -0.245078        1.000000        0.10131075
     480         -0.244573        1.000000        0.12998687
     481         -0.244403        1.000000        0.10630228
     482         -0.243534        1.000000        0.09277830
     483         -0.243348        1.000000        0.08523548
     484         -0.242773        1.000000        0.08080105
     485         -0.241892        1.000000        0.02217110
     486         -0.241696        1.000000        0.02511146
     487         -0.241466        1.000000        0.10345230
     488         -0.240671        1.000000        0.08898306
     489         -0.240093        1.000000        0.07283078