# Projected DOS for atomic kind N at iteration step i = 0, E(Fermi) =    -0.103074 a.u.
#     MO Eigenvalue [a.u.]      Occupation                 s                py                pz                px
       1         -0.961067        1.000000        0.00000000        0.00000000        0.00000000        0.00000000
       2         -0.940785        1.000000        0.00000000        0.00000000        0.00000000        0.00000000
       3         -0.936348        1.000000        0.00000000        0.00000000        0.00000000        0.00000000
       4         -0.932961        1.000000        0.00000000        0.00000000        0.00000000        0.00000000
       5         -0.928229        1.000000        0.00000000        0.00000000        0.00000000        0.00000000
       6         -0.921308        1.000000        0.00000000        0.00000000        0.00000000        0.00000000
       7         -0.920098        1.000000        0.00000000        0.00000000        0.00000000        0.00000000
       8         -0.919981        1.000000        0.00000000        0.00000000        0.00000000        0.00000000
       9         -0.913005        1.000000        0.00001181        0.00000123        0.00000002        0.00000010
      10         -0.902871        1.000000        0.00000045        0.00000002        0.00000006        0.00000008
      11         -0.900716        1.000000        0.00000003        0.00000000        0.00000000        0.00000000
      12         -0.900407        1.000000        0.00007866        0.00000478        0.00000004        0.00000115
      13         -0.899331        1.000000        0.00000000        0.00000000        0.00000000        0.00000000
      14         -0.896760        1.000000        0.00000000        0.00000000        0.00000000        0.00000000
      15         -0.893698        1.000000        0.00000016        0.00000000        0.00000000        0.00000001
      16         -0.892624        1.000000        0.00000976        0.00000013        0.00000008        0.00000013
      17         -0.890238        1.000000        0.00000034        0.00000001        0.00000002        0.00000001
      18         -0.888187        1.000000        0.00000001        0.00000000        0.00000000        0.00000000
      19         -0.885899        1.000000        0.00000000        0.00000000        0.00000000        0.00000000
      20         -0.883689        1.000000        0.00000630        0.00000014        0.00000027        0.00000001
      21         -0.883101        1.000000        0.00000001        0.00000000        0.00000000        0.00000000
      22         -0.882067        1.000000        0.00000000        0.00000000        0.00000000        0.00000000
      23         -0.881036        1.000000        0.00000009        0.00000000        0.00000002        0.00000001
      24         -0.879886        1.000000        0.00004767        0.00000026        0.00000004        0.00000059
      25         -0.879720        1.000000        0.00000004        0.00000000        0.00000000        0.00000000
      26         -0.879296        1.000000        0.00000013        0.00000000        0.00000000        0.00000001
      27         -0.879025        1.000000        0.00003757        0.00000076        0.00000041        0.00000311
      28         -0.877297        1.000000        0.00000007        0.00000000        0.00000001        0.00000001
      29         -0.875586        1.000000        0.00000000        0.00000000        0.00000000        0.00000000
      30         -0.874524        1.000000        0.00237161        0.00002764        0.00007922        0.00000223
      31         -0.873183        1.000000        0.00039981        0.00000265        0.00001104        0.00003588
      32         -0.871478        1.000000        0.00000000        0.00000000        0.00000000        0.00000000
      33         -0.871368        1.000000        0.00081171        0.00000212        0.00000894        0.00004149
      34         -0.871057        1.000000        0.00000008        0.00000000        0.00000000        0.00000000
      35         -0.871019        1.000000        0.60809898        0.00036380        0.00010561        0.00007436
      36         -0.868091        1.000000        0.00000062        0.00000000        0.00000007        0.00000001
      37         -0.867740        1.000000        0.00000003        0.00000000        0.00000000        0.00000000
      38         -0.865986        1.000000        0.00113449        0.00002478        0.00003950        0.00007146
      39         -0.865030        1.000000        0.00000002        0.00000000        0.00000000        0.00000000
      40         -0.864281        1.000000        0.00000002        0.00000000        0.00000000        0.00000000
      41         -0.861880        1.000000        0.00000058        0.00000000        0.00000000        0.00000000
      42         -0.861592        1.000000        0.00000220        0.00000001        0.00000002        0.00000010
      43         -0.861356        1.000000        0.00000930        0.00000000        0.00000001        0.00000004
      44         -0.858881        1.000000        0.61266433        0.00000908        0.00001244        0.00017301
      45         -0.858679        1.000000        0.61363890        0.00001153        0.00020328        0.00003898
      46         -0.858496        1.000000        0.00000485        0.00000000        0.00000000        0.00000000
      47         -0.858323        1.000000        0.00000193        0.00000000        0.00000001        0.00000000
      48         -0.857986        1.000000        0.00044790        0.00000095        0.00000226        0.00000294
      49         -0.856911        1.000000        0.00001770        0.00000009        0.00000025        0.00000074
      50         -0.856438        1.000000        0.10232112        0.00000108        0.00002214        0.00002734
      51         -0.856377        1.000000        0.50809029        0.00000458        0.00012076        0.00013526
      52         -0.856293        1.000000        0.00000141        0.00000000        0.00000000        0.00000000
      53         -0.854739        1.000000        0.00001741        0.00000005        0.00000001        0.00000003
      54         -0.853825        1.000000        0.00086411        0.00000353        0.00000180        0.00001001
      55         -0.852602        1.000000        0.00002642        0.00000005        0.00000020        0.00000001
      56         -0.852350        1.000000        0.05575289        0.00010879        0.00041843        0.00002388
      57         -0.850774        1.000000        0.00000029        0.00000000        0.00000000        0.00000001
      58         -0.849986        1.000000        0.00068452        0.00000310        0.00000935        0.00002516
      59         -0.848616        1.000000        0.00004546        0.00000002        0.00000022        0.00000002
      60         -0.847341        1.000000        0.00034914        0.00000007        0.00000242        0.00000033
      61         -0.844407        1.000000        0.00000024        0.00000000        0.00000000        0.00000001
      62         -0.843337        1.000000        0.00069583        0.00000022        0.00000168        0.00000008
      63         -0.842612        1.000000        0.01645620        0.00001605        0.00018441        0.00017419
      64         -0.842311        1.000000        0.00252647        0.00000259        0.00003390        0.00002389
      65         -0.842286        1.000000        0.00020231        0.00000013        0.00000234        0.00000213
      66         -0.842162        1.000000        0.00544663        0.00000530        0.00008136        0.00004841
      67         -0.840325        1.000000        0.00002973        0.00000000        0.00000004        0.00000000
      68         -0.840237        1.000000        0.00022214        0.00002000        0.00000368        0.00000146
      69         -0.839648        1.000000        0.00001863        0.00000094        0.00000015        0.00000001
      70         -0.838809        1.000000        0.00000242        0.00000000        0.00000000        0.00000000
      71         -0.837593        1.000000        0.03065426        0.00024785        0.00034034        0.00010198
      72         -0.837466        1.000000        0.00096874        0.00000005        0.00000069        0.00000003
      73         -0.837414        1.000000        0.00003000        0.00000001        0.00000002        0.00000076
      74         -0.837080        1.000000        0.00033847        0.00000069        0.00000739        0.00000086
      75         -0.836986        1.000000        0.00187873        0.00001295        0.00001988        0.00000636
      76         -0.836010        1.000000        0.00000004        0.00000000        0.00000000        0.00000000
      77         -0.835030        1.000000        0.00003384        0.00000028        0.00000107        0.00000002
      78         -0.834218        1.000000        0.00000332        0.00000000        0.00000014        0.00000048
      79         -0.833373        1.000000        0.00000002        0.00000000        0.00000000        0.00000000
      80         -0.832834        1.000000        0.00012104        0.00004104        0.00000582        0.00000061
      81         -0.830950        1.000000        0.00001916        0.00000005        0.00000001        0.00000008
      82         -0.830452        1.000000        0.00008343        0.00000008        0.00000008        0.00000001
      83         -0.830126        1.000000        0.00011964        0.00000014        0.00000009        0.00000001
      84         -0.829727        1.000000        0.00000214        0.00000001        0.00000001        0.00000001
      85         -0.829196        1.000000        0.00086840        0.00000115        0.00000090        0.00000003
      86         -0.828335        1.000000        0.14477575        0.00000023        0.00010203        0.00001302
      87         -0.828178        1.000000        0.00032521        0.00000053        0.00000043        0.00000001
      88         -0.827785        1.000000        0.57442210        0.00100450        0.00083519        0.00000820
      89         -0.827513        1.000000        0.00001197        0.00000002        0.00000002        0.00000000
      90         -0.827431        1.000000        0.00172440        0.00000008        0.00000270        0.00000107
      91         -0.826731        1.000000        0.00004368        0.00000092        0.00000036        0.00000201
      92         -0.826326        1.000000        0.00057728        0.00000120        0.00000059        0.00000008
      93         -0.825557        1.000000        0.00000336        0.00000000        0.00000000        0.00000000
      94         -0.823160        1.000000        0.02454368        0.00008041        0.00008965        0.00000007
      95         -0.822880        1.000000        0.00003336        0.00000011        0.00000013        0.00000000
      96         -0.821791        1.000000        0.00000280        0.00000000        0.00000001        0.00000000
      97         -0.820935        1.000000        0.00009587        0.00000008        0.00000032        0.00000002
      98         -0.820266        1.000000        0.00000013        0.00000000        0.00000000        0.00000000
      99         -0.819497        1.000000        0.38774586        0.00040225        0.00157116        0.00011698
     100         -0.818536        1.000000        0.00025868        0.00000032        0.00000124        0.00000006
     101         -0.817212        1.000000        0.00000381        0.00000001        0.00000004        0.00000001
     102         -0.816737        1.000000        0.00001182        0.00000028        0.00000006        0.00000015
     103         -0.816440        1.000000        0.00700372        0.00001221        0.00004680        0.00000071
     104         -0.816071        1.000000        0.00001168        0.00000016        0.00000043        0.00000014
     105         -0.816043        1.000000        0.00000072        0.00000000        0.00000000        0.00000000
     106         -0.815731        1.000000        0.00174152        0.00000333        0.00001281        0.00000010
     107         -0.814198        1.000000        0.00002471        0.00000041        0.00000111        0.00000035
     108         -0.813401        1.000000        0.00000849        0.00000015        0.00000039        0.00000012
     109         -0.812439        1.000000        0.00000022        0.00000001        0.00000000        0.00000005
     110         -0.812407        1.000000        0.00000354        0.00000007        0.00000014        0.00000005
     111         -0.811198        1.000000        0.00017685        0.00000763        0.00000073        0.00000562
     112         -0.809464        1.000000        0.00013919        0.00000037        0.00000211        0.00000078
     113         -0.809309        1.000000        0.00004014        0.00000064        0.00000482        0.00000205
     114         -0.808888        1.000000        0.00001422        0.00000004        0.00000020        0.00000008
     115         -0.807194        1.000000        0.00000192        0.00000001        0.00000012        0.00000003
     116         -0.805412        1.000000        0.00000056        0.00000005        0.00000003        0.00000002
     117         -0.804325        1.000000        0.00873420        0.00005259        0.00006196        0.00002401
     118         -0.803287        1.000000        0.00001158        0.00000008        0.00000008        0.00000002
     119         -0.802997        1.000000        0.00000009        0.00000001        0.00000001        0.00000002
     120         -0.800560        1.000000        0.00000651        0.00000005        0.00000014        0.00000002
     121         -0.800502        1.000000        0.00000286        0.00000005        0.00000007        0.00000001
     122         -0.800449        1.000000        0.00000004        0.00000000        0.00000000        0.00000000
     123         -0.799213        1.000000        0.00018706        0.00000299        0.00000506        0.00000077
     124         -0.798220        1.000000        0.00000068        0.00000002        0.00000000        0.00000002
     125         -0.797711        1.000000        0.00000021        0.00000001        0.00000002        0.00000000
     126         -0.797446        1.000000        0.00000010        0.00000000        0.00000000        0.00000000
     127         -0.797383        1.000000        0.00050635        0.00000129        0.00000054        0.00000067
     128         -0.796904        1.000000        0.00000458        0.00000010        0.00000019        0.00000005
     129         -0.796543        1.000000        0.00000717        0.00000007        0.00000022        0.00000001
     130         -0.795711        1.000000        0.00000364        0.00000018        0.00000062        0.00000014
     131         -0.794693        1.000000        0.00005017        0.00000026        0.00000010        0.00000027
     132         -0.794445        1.000000        0.51739109        0.00179467        0.00098560        0.00094097
     133         -0.793060        1.000000        0.00000356        0.00000028        0.00000045        0.00000037
     134         -0.792121        1.000000        0.00000001        0.00000000        0.00000000        0.00000000
     135         -0.790871        1.000000        0.00006547        0.00000087        0.00000239        0.00000033
     136         -0.790453        1.000000        0.00000004        0.00000000        0.00000000        0.00000000
     137         -0.789773        1.000000        0.00000003        0.00000000        0.00000000        0.00000000
     138         -0.784623        1.000000        0.00020410        0.00000183        0.00002048        0.00000185
     139         -0.783701        1.000000        0.00001209        0.00000003        0.00000038        0.00000192
     140         -0.782456        1.000000        0.00000000        0.00000000        0.00000000        0.00000000
     141         -0.782346        1.000000        0.00000002        0.00000001        0.00000000        0.00000002
     142         -0.782225        1.000000        0.00000001        0.00000000        0.00000000        0.00000000
     143         -0.779748        1.000000        0.00000000        0.00000000        0.00000000        0.00000000
     144         -0.778020        1.000000        0.00000005        0.00000000        0.00000001        0.00000000
     145         -0.775667        1.000000        0.00000005        0.00000001        0.00000000        0.00000001
     146         -0.775574        1.000000        0.00002372        0.00000060        0.00000202        0.00000006
     147         -0.773485        1.000000        0.00000009        0.00000000        0.00000001        0.00000000
     148         -0.771682        1.000000        0.00000033        0.00000000        0.00000007        0.00000031
     149         -0.771171        1.000000        0.00753482        0.00012436        0.00013001        0.00008607
     150         -0.769329        1.000000        0.00000026        0.00000001        0.00000001        0.00000000
     151         -0.767853        1.000000        0.00002001        0.00000066        0.00000333        0.00000048
     152         -0.765905        1.000000        0.00000976        0.00000027        0.00000126        0.00000028
     153         -0.765812        1.000000        0.00000195        0.00000006        0.00000025        0.00000005
     154         -0.765500        1.000000        0.00008585        0.00000254        0.00001145        0.00000233
     155         -0.765214        1.000000        0.00000035        0.00000013        0.00000025        0.00000017
     156         -0.761186        1.000000        0.00000000        0.00000000        0.00000000        0.00000000
     157         -0.760871        1.000000        0.00000002        0.00000000        0.00000000        0.00000001
     158         -0.756637        1.000000        0.00000768        0.00000110        0.00000055        0.00000043
     159         -0.756121        1.000000        0.00000001        0.00000000        0.00000000        0.00000001
     160         -0.751854        1.000000        0.00000000        0.00000000        0.00000000        0.00000000
     161         -0.748250        1.000000        0.00635235        0.00130486        0.00089041        0.00027800
     162         -0.745177        1.000000        0.00000407        0.00000079        0.00000051        0.00000020
     163         -0.734215        1.000000        0.00000000        0.00000000        0.00000000        0.00000000
     164         -0.618945        1.000000        0.01756520        0.00011783        0.01028980        0.18705625
     165         -0.599992        1.000000        0.01416199        0.00014689        0.03947979        0.17172495
     166         -0.598668        1.000000        0.01456946        0.00003388        0.02987822        0.17766979
     167         -0.597503        1.000000        0.01509288        0.00105221        0.03939697        0.16421918
     168         -0.581225        1.000000        0.02442409        0.00505256        0.04537302        0.13097192
     169         -0.575713        1.000000        0.02022233        0.00014037        0.00025509        0.17912584
     170         -0.567339        1.000000        0.02723640        0.00033544        0.01884002        0.15347767
     171         -0.555455        1.000000        0.00041708        0.00002232        0.00152661        0.00024086
     172         -0.522448        1.000000        0.00024675        0.00699259        0.00063266        0.00085663
     173         -0.520034        1.000000        0.00016914        0.00146896        0.00175367        0.00076041
     174         -0.519170        1.000000        0.00068312        0.00466479        0.00233976        0.00078757
     175         -0.517987        1.000000        0.00035128        0.00389357        0.01382183        0.00134168
     176         -0.516897        1.000000        0.00022522        0.02485633        0.00441073        0.00092077
     177         -0.512456        1.000000        0.00015039        0.00337808        0.00389882        0.00029704
     178         -0.511791        1.000000        0.00008985        0.01331007        0.14484529        0.00891162
     179         -0.510606        1.000000        0.00056589        0.11964637        0.00820950        0.00030619
     180         -0.508554        1.000000        0.00010326        0.01982748        0.02506001        0.00215679
     181         -0.508046        1.000000        0.00006142        0.01576578        0.00370900        0.00067084
     182         -0.506790        1.000000        0.00046273        0.02375621        0.00617116        0.00208099
     183         -0.505732        1.000000        0.00001774        0.00056995        0.00020575        0.00001019
     184         -0.505178        1.000000        0.00017013        0.00435489        0.00267902        0.00018648
     185         -0.505063        1.000000        0.00035432        0.08269384        0.00173736        0.00047314
     186         -0.503896        1.000000        0.00009459        0.01353159        0.01023722        0.00196316
     187         -0.502061        1.000000        0.00012770        0.00953621        0.00882757        0.00086535
     188         -0.501992        1.000000        0.00013382        0.01567800        0.00985532        0.00188148
     189         -0.501662        1.000000        0.00010249        0.00594876        0.00808890        0.00095945
     190         -0.501441        1.000000        0.00002770        0.00087554        0.00639894        0.00187343
     191         -0.500970        1.000000        0.00006286        0.00514010        0.00442361        0.00077110
     192         -0.500745        1.000000        0.00002410        0.02025007        0.02134418        0.00404492
     193         -0.500383        1.000000        0.00005290        0.00336144        0.00737411        0.00101640
     194         -0.499849        1.000000        0.00001301        0.00451719        0.00224813        0.00069455
     195         -0.497890        1.000000        0.00055733        0.01604314        0.04581736        0.00315221
     196         -0.496796        1.000000        0.00012367        0.00362235        0.00105028        0.00009383
     197         -0.495462        1.000000        0.00004195        0.00166531        0.00087109        0.00042783
     198         -0.494778        1.000000        0.00022487        0.01286213        0.01007020        0.00291232
     199         -0.494166        1.000000        0.00007224        0.00401993        0.00594090        0.00120069
     200         -0.493796        1.000000        0.00026783        0.01821364        0.01292388        0.00353008
     201         -0.493231        1.000000        0.00003129        0.01056792        0.00105214        0.00046977
     202         -0.491572        1.000000        0.00001514        0.00328121        0.00156958        0.00032233
     203         -0.490268        1.000000        0.00000068        0.00006763        0.00006880        0.00001231
     204         -0.489176        1.000000        0.00020721        0.00739610        0.02953567        0.00255693
     205         -0.488612        1.000000        0.00105351        0.04127797        0.11963147        0.01129414
     206         -0.487197        1.000000        0.00028975        0.00926622        0.03432097        0.00236861
     207         -0.486649        1.000000        0.00010253        0.00473795        0.01096874        0.00121781
     208         -0.485649        1.000000        0.00001235        0.00165042        0.01519676        0.00279495
     209         -0.485331        1.000000        0.00013587        0.00333416        0.02048211        0.00164507
     210         -0.483614        1.000000        0.00005451        0.00110230        0.00218437        0.00021583
     211         -0.483410        1.000000        0.00058071        0.01047555        0.03844635        0.00369812
     212         -0.482700        1.000000        0.00000013        0.00001473        0.00017929        0.00000415
     213         -0.478242        1.000000        0.00032159        0.11908666        0.36019010        0.06662169
     214         -0.477434        1.000000        0.00008409        0.13568217        0.36424452        0.05383956
     215         -0.475689        1.000000        0.00000004        0.00006318        0.00011907        0.00002396
     216         -0.474753        1.000000        0.00009837        0.20435816        0.09403330        0.01344748
     217         -0.474382        1.000000        0.00002990        0.19043780        0.04225227        0.00668271
     218         -0.473250        1.000000        0.00006076        0.39609024        0.07892148        0.02987986
     219         -0.471955        1.000000        0.00000068        0.00246391        0.00097695        0.00029524
     220         -0.471530        1.000000        0.00006580        0.10633808        0.35396873        0.06906609
     221         -0.470943        1.000000        0.00058898        0.24828756        0.05346960        0.00264277
     222         -0.469712        1.000000        0.00004650        0.03936602        0.01406235        0.00070813
     223         -0.468309        1.000000        0.00006580        0.40876516        0.07824262        0.02252407
     224         -0.466898        1.000000        0.00001363        0.00741539        0.00067610        0.00003319
     225         -0.464317        1.000000        0.00000001        0.00002353        0.00001030        0.00000345
     226         -0.463119        1.000000        0.00000002        0.00053490        0.00003782        0.00000288
     227         -0.462194        1.000000        0.00000002        0.00008093        0.00000520        0.00000539
     228         -0.461396        1.000000        0.00000141        0.00225398        0.00030156        0.00000242
     229         -0.458335        1.000000        0.00000034        0.23972609        0.34434032        0.00277878
     230         -0.458070        1.000000        0.00000144        0.02883436        0.00044964        0.00078294
     231         -0.456943        1.000000        0.00005140        0.48036092        0.00015286        0.02827796
     232         -0.455401        1.000000        0.00000004        0.00002699        0.00000721        0.00000544
     233         -0.455281        1.000000        0.00000014        0.00004125        0.00000344        0.00000306
     234         -0.452180        1.000000        0.00000023        0.00002946        0.00000306        0.00000067
     235         -0.451609        1.000000        0.00000001        0.00000065        0.00000170        0.00000078
     236         -0.450077        1.000000        0.00000001        0.00000097        0.00001913        0.00000756
     237         -0.449705        1.000000        0.00006149        0.01709538        0.30781591        0.12026727
     238         -0.447990        1.000000        0.00000608        0.00039906        0.00028558        0.00004226
     239         -0.447753        1.000000        0.00000239        0.00103102        0.00182598        0.00021218
     240         -0.444803        1.000000        0.00000054        0.00002753        0.00002747        0.00000295
     241         -0.442143        1.000000        0.00007496        0.00221722        0.02670781        0.00251944
     242         -0.440745        1.000000        0.00000003        0.00000181        0.00000561        0.00000091
     243         -0.439992        1.000000        0.00306414        0.32961684        0.22667781        0.00179620
     244         -0.439655        1.000000        0.00000002        0.00001918        0.00000021        0.00001094
     245         -0.438857        1.000000        0.00000123        0.00012436        0.00004396        0.00000073
     246         -0.438725        1.000000        0.00002039        0.00060345        0.00137062        0.00001059
     247         -0.436228        1.000000        0.00005159        0.00367949        0.00112369        0.00009576
     248         -0.435549        1.000000        0.00000726        0.00517815        0.00144324        0.00020178
     249         -0.435316        1.000000        0.00000001        0.00000031        0.00000061        0.00000087
     250         -0.434706        1.000000        0.00049945        0.44234259        0.06814715        0.00947533
     251         -0.434518        1.000000        0.00000004        0.00000874        0.00000184        0.00000354
     252         -0.434359        1.000000        0.00000549        0.00067772        0.00003412        0.00002546
     253         -0.434274        1.000000        0.00001887        0.00170458        0.00006301        0.00009839
     254         -0.433705        1.000000        0.00000002        0.00000519        0.00006156        0.00002033
     255         -0.432614        1.000000        0.00005150        0.03475749        0.29712696        0.02377341
     256         -0.432271        1.000000        0.00000850        0.00016272        0.00004920        0.00006123
     257         -0.431446        1.000000        0.00000023        0.00001252        0.00027279        0.00009802
     258         -0.429597        1.000000        0.00006381        0.00166760        0.02663656        0.01157131
     259         -0.427956        1.000000        0.00000073        0.00004859        0.00094860        0.00023599