# Projected DOS for atomic kind O at iteration step i = 0, E(Fermi) =    -0.103074 a.u.
#     MO Eigenvalue [a.u.]      Occupation                 s                py                pz                px
       1         -0.961067        1.000000        0.66503584        0.01761519        0.02510939        0.01086516
       2         -0.940785        1.000000        0.71195914        0.01188850        0.02168275        0.00638243
       3         -0.936348        1.000000        0.68537701        0.02647487        0.01081099        0.00003769
       4         -0.932961        1.000000        0.72725547        0.01177778        0.00230381        0.02088402
       5         -0.928229        1.000000        0.69942068        0.01237679        0.00862848        0.00112941
       6         -0.921308        1.000000        0.70176533        0.01470912        0.00768826        0.00763854
       7         -0.920098        1.000000        0.69694624        0.01616041        0.00627651        0.01956602
       8         -0.919981        1.000000        0.71764710        0.01876961        0.00314579        0.01498983
       9         -0.913005        1.000000        0.67807786        0.02231380        0.00952770        0.01050587
      10         -0.902871        1.000000        0.67435391        0.02918824        0.00787402        0.00749481
      11         -0.900716        1.000000        0.64454142        0.03327481        0.00010482        0.02326398
      12         -0.900407        1.000000        0.70383252        0.02268034        0.01001589        0.00779680
      13         -0.899331        1.000000        0.71124024        0.01310587        0.01176090        0.00495744
      14         -0.896760        1.000000        0.68119645        0.01021422        0.00395932        0.01464130
      15         -0.893698        1.000000        0.74664138        0.01391580        0.02131310        0.00049218
      16         -0.892624        1.000000        0.67821527        0.00294303        0.03208099        0.00271316
      17         -0.890238        1.000000        0.70027418        0.02174671        0.00226102        0.00294426
      18         -0.888187        1.000000        0.69261444        0.00858200        0.00754980        0.02323918
      19         -0.885899        1.000000        0.72058993        0.01273258        0.01967277        0.00850884
      20         -0.883689        1.000000        0.71671068        0.02338332        0.00096993        0.00102883
      21         -0.883101        1.000000        0.69022827        0.01737803        0.00185015        0.02436175
      22         -0.882067        1.000000        0.73233080        0.01211818        0.00918133        0.01051964
      23         -0.881036        1.000000        0.68798380        0.02626756        0.01041578        0.00159581
      24         -0.879886        1.000000        0.70925949        0.00334272        0.03910596        0.00088267
      25         -0.879720        1.000000        0.67149075        0.01235657        0.00925348        0.01562592
      26         -0.879296        1.000000        0.70348510        0.02768184        0.00183357        0.00086245
      27         -0.879025        1.000000        0.70308106        0.01651247        0.01355102        0.00085786
      28         -0.877297        1.000000        0.68431192        0.02288166        0.02102994        0.00072887
      29         -0.875586        1.000000        0.69098384        0.02824190        0.01242100        0.00909356
      30         -0.874524        1.000000        0.69732605        0.02476167        0.00256972        0.00658239
      31         -0.873183        1.000000        0.70292434        0.01891353        0.00514434        0.00552513
      32         -0.871478        1.000000        0.69007479        0.03385073        0.00610612        0.00212921
      33         -0.871368        1.000000        0.71379917        0.02004373        0.00432570        0.00551559
      34         -0.871057        1.000000        0.71352113        0.02575116        0.00942380        0.00170485
      35         -0.871019        1.000000        0.00196246        0.00005869        0.00003478        0.00006281
      36         -0.868091        1.000000        0.71459773        0.02035833        0.00384458        0.00539544
      37         -0.867740        1.000000        0.71278695        0.00559239        0.01676688        0.01641742
      38         -0.865986        1.000000        0.69810914        0.01632585        0.00180786        0.00301890
      39         -0.865030        1.000000        0.70154197        0.02981121        0.00289712        0.00217780
      40         -0.864281        1.000000        0.70695217        0.00459467        0.01320902        0.00516404
      41         -0.861880        1.000000        0.68738437        0.01172410        0.00540923        0.02483172
      42         -0.861592        1.000000        0.72773156        0.02049227        0.00072662        0.00038382
      43         -0.861356        1.000000        0.71110609        0.00118421        0.02265087        0.00237819
      44         -0.858881        1.000000        0.00000288        0.00000006        0.00000002        0.00000006
      45         -0.858679        1.000000        0.00003025        0.00000082        0.00000078        0.00000362
      46         -0.858496        1.000000        0.68527265        0.00973692        0.00333473        0.02236106
      47         -0.858323        1.000000        0.72661910        0.01591668        0.00701467        0.01128343
      48         -0.857986        1.000000        0.72290330        0.01875409        0.00936412        0.00732497
      49         -0.856911        1.000000        0.72950508        0.03219620        0.00209701        0.00439799
      50         -0.856438        1.000000        0.58993330        0.01630401        0.00339385        0.00067682
      51         -0.856377        1.000000        0.11960909        0.00333495        0.00070904        0.00013191
      52         -0.856293        1.000000        0.70113113        0.00396931        0.01188895        0.01332379
      53         -0.854739        1.000000        0.70275367        0.01294481        0.00395650        0.01911759
      54         -0.853825        1.000000        0.72698006        0.01165441        0.01440561        0.01265741
      55         -0.852602        1.000000        0.69652828        0.01715222        0.00430993        0.01331612
      56         -0.852350        1.000000        0.65222055        0.01823023        0.00106850        0.00531486
      57         -0.850774        1.000000        0.69990172        0.01264006        0.00552054        0.00164327
      58         -0.849986        1.000000        0.70223699        0.01960270        0.01100548        0.00976097
      59         -0.848616        1.000000        0.72075492        0.02040526        0.01430064        0.00386467
      60         -0.847341        1.000000        0.70692278        0.01895859        0.01504642        0.00070730
      61         -0.844407        1.000000        0.69039867        0.03467128        0.00083909        0.01315272
      62         -0.843337        1.000000        0.72961196        0.02973557        0.00543869        0.00145344
      63         -0.842612        1.000000        0.70006857        0.01680082        0.00389629        0.00732524
      64         -0.842311        1.000000        0.71427662        0.01828070        0.00304647        0.00385818
      65         -0.842286        1.000000        0.73371069        0.01807407        0.00662843        0.00923534
      66         -0.842162        1.000000        0.70721588        0.01543484        0.00657742        0.00525263
      67         -0.840325        1.000000        0.71416832        0.01003741        0.00339120        0.01302471
      68         -0.840237        1.000000        0.69775902        0.01846404        0.00358631        0.02247706
      69         -0.839648        1.000000        0.71987113        0.00989490        0.02306056        0.00691981
      70         -0.838809        1.000000        0.71142828        0.01940619        0.00504984        0.01206767
      71         -0.837593        1.000000        0.69296616        0.01817559        0.00257639        0.00496605
      72         -0.837466        1.000000        0.71929205        0.01819466        0.00412877        0.00116658
      73         -0.837414        1.000000        0.68808227        0.04184709        0.00697101        0.00065306
      74         -0.837080        1.000000        0.70811069        0.01449547        0.00468227        0.00754835
      75         -0.836986        1.000000        0.71570427        0.00961512        0.02570130        0.00804177
      76         -0.836010        1.000000        0.72894438        0.01923160        0.00177380        0.00304220
      77         -0.835030        1.000000        0.71073360        0.01173187        0.00935215        0.00777142
      78         -0.834218        1.000000        0.69428250        0.03831819        0.00582904        0.00084083
      79         -0.833373        1.000000        0.71331036        0.01140539        0.00526245        0.01308037
      80         -0.832834        1.000000        0.71612742        0.01975147        0.00125594        0.01711051
      81         -0.830950        1.000000        0.71663134        0.01105402        0.01581761        0.00859466
      82         -0.830452        1.000000        0.68563369        0.01662374        0.01398411        0.00167593
      83         -0.830126        1.000000        0.70763931        0.01216291        0.00430216        0.01017380
      84         -0.829727        1.000000        0.73727130        0.01751886        0.01874582        0.00468596
      85         -0.829196        1.000000        0.69688376        0.01344018        0.02218650        0.00145240
      86         -0.828335        1.000000        0.55195591        0.01841108        0.00241954        0.00825091
      87         -0.828178        1.000000        0.71801108        0.01134785        0.00553546        0.01394105
      88         -0.827785        1.000000        0.03809034        0.00088664        0.00023758        0.00028535
      89         -0.827513        1.000000        0.74073935        0.01992503        0.00463410        0.00896751
      90         -0.827431        1.000000        0.71770997        0.01562206        0.00865322        0.01423477
      91         -0.826731        1.000000        0.74452298        0.01630635        0.00492179        0.02271050
      92         -0.826326        1.000000        0.72622607        0.01802272        0.00211693        0.01420432
      93         -0.825557        1.000000        0.72620916        0.01499185        0.00454591        0.02385592
      94         -0.823160        1.000000        0.68264391        0.01512686        0.00857281        0.00766180
      95         -0.822880        1.000000        0.70527279        0.01168920        0.00456771        0.01818460
      96         -0.821791        1.000000        0.72358089        0.01346799        0.00401856        0.02113742
      97         -0.820935        1.000000        0.72064048        0.01406823        0.00271162        0.02129389
      98         -0.820266        1.000000        0.73378066        0.01188937        0.00368275        0.01884486
      99         -0.819497        1.000000        0.27427732        0.01287212        0.00229008        0.00263082
     100         -0.818536        1.000000        0.71922086        0.02587351        0.00068380        0.01123508
     101         -0.817212        1.000000        0.72150216        0.00915897        0.01035025        0.01840969
     102         -0.816737        1.000000        0.72826596        0.00612203        0.00305568        0.00538971
     103         -0.816440        1.000000        0.72508879        0.02811856        0.00182592        0.00797372
     104         -0.816071        1.000000        0.72178742        0.01466487        0.00671550        0.01262546
     105         -0.816043        1.000000        0.73412077        0.01574153        0.01562279        0.00341891
     106         -0.815731        1.000000        0.72418728        0.02908390        0.00195791        0.00816364
     107         -0.814198        1.000000        0.74203003        0.01397595        0.00534411        0.01104085
     108         -0.813401        1.000000        0.72463962        0.00836851        0.02491268        0.00513078
     109         -0.812439        1.000000        0.70567556        0.02423958        0.00204185        0.00243305
     110         -0.812407        1.000000        0.73401658        0.00763668        0.02261829        0.00844193
     111         -0.811198        1.000000        0.72345657        0.01782201        0.00784607        0.00825489
     112         -0.809464        1.000000        0.73976791        0.02043225        0.00527380        0.01831245
     113         -0.809309        1.000000        0.73780334        0.02188707        0.00513963        0.00610866
     114         -0.808888        1.000000        0.70107866        0.02806419        0.00132574        0.01920236
     115         -0.807194        1.000000        0.76487672        0.02447118        0.00759138        0.00346690
     116         -0.805412        1.000000        0.72915875        0.01151900        0.00240519        0.01614493
     117         -0.804325        1.000000        0.76678599        0.00725032        0.01423284        0.00712985
     118         -0.803287        1.000000        0.73777862        0.02600500        0.00179517        0.01595289
     119         -0.802997        1.000000        0.77769754        0.01372752        0.01851255        0.00692253
     120         -0.800560        1.000000        0.78597843        0.00257782        0.01233969        0.01587313
     121         -0.800502        1.000000        0.73667510        0.02191465        0.00227910        0.00565256
     122         -0.800449        1.000000        0.75082199        0.01508783        0.00725530        0.01217717
     123         -0.799213        1.000000        0.71204728        0.01000708        0.01280505        0.01361903
     124         -0.798220        1.000000        0.71165882        0.00690072        0.02820348        0.01110734
     125         -0.797711        1.000000        0.73516472        0.02896415        0.00444841        0.00690878
     126         -0.797446        1.000000        0.72874982        0.01619073        0.00784574        0.01118333
     127         -0.797383        1.000000        0.72029535        0.02548903        0.00150650        0.01300975
     128         -0.796904        1.000000        0.76820163        0.00704586        0.00809757        0.00876750
     129         -0.796543        1.000000        0.77578564        0.00373109        0.01684228        0.00830466
     130         -0.795711        1.000000        0.76294847        0.01672492        0.00980811        0.00842117
     131         -0.794693        1.000000        0.73172297        0.01890809        0.00783364        0.00728676
     132         -0.794445        1.000000        0.10169654        0.00626859        0.00301173        0.00162585
     133         -0.793060        1.000000        0.76543884        0.01663535        0.00403464        0.01468186
     134         -0.792121        1.000000        0.73414289        0.02483713        0.01026016        0.01064370
     135         -0.790871        1.000000        0.72814646        0.00886882        0.00342016        0.03179642
     136         -0.790453        1.000000        0.75569112        0.01657712        0.01025303        0.00607272
     137         -0.789773        1.000000        0.74372705        0.01735728        0.01742106        0.01294070
     138         -0.784623        1.000000        0.73097946        0.02140419        0.00760332        0.01429966
     139         -0.783701        1.000000        0.75393248        0.02062252        0.00215294        0.01193291
     140         -0.782456        1.000000        0.78651316        0.01780947        0.00655636        0.00471384
     141         -0.782346        1.000000        0.73452963        0.00983339        0.00437724        0.03345462
     142         -0.782225        1.000000        0.70748237        0.01807124        0.02432106        0.00250542
     143         -0.779748        1.000000        0.75167715        0.01609478        0.01585793        0.00231101
     144         -0.778020        1.000000        0.73749023        0.01407215        0.00743319        0.02483299
     145         -0.775667        1.000000        0.75536840        0.01390152        0.00333843        0.02872302
     146         -0.775574        1.000000        0.76179095        0.01125365        0.00891047        0.01670812
     147         -0.773485        1.000000        0.74724605        0.02411496        0.00359382        0.01034791
     148         -0.771682        1.000000        0.73186079        0.03186891        0.01028044        0.00156558
     149         -0.771171        1.000000        0.76961329        0.00672683        0.01413757        0.01093366
     150         -0.769329        1.000000        0.75552200        0.03347878        0.00388371        0.00295212
     151         -0.767853        1.000000        0.78952418        0.00145567        0.00709994        0.02648025
     152         -0.765905        1.000000        0.76344960        0.02878716        0.00593251        0.00839361
     153         -0.765812        1.000000        0.77599973        0.01921380        0.00281576        0.01129287
     154         -0.765500        1.000000        0.75616191        0.02364987        0.01211966        0.00627186
     155         -0.765214        1.000000        0.74115976        0.02905707        0.00082594        0.01147400
     156         -0.761186        1.000000        0.76933026        0.02567267        0.00760240        0.00248751
     157         -0.760871        1.000000        0.75384564        0.01176658        0.00342151        0.02220896
     158         -0.756637        1.000000        0.79990606        0.00645703        0.00590699        0.02547877
     159         -0.756121        1.000000        0.76267312        0.02545853        0.00197075        0.00738379
     160         -0.751854        1.000000        0.75954185        0.02528125        0.00395327        0.01585150
     161         -0.748250        1.000000        0.78330054        0.00184962        0.01318199        0.01023219
     162         -0.745177        1.000000        0.79088653        0.01687909        0.00541146        0.00844432
     163         -0.734215        1.000000        0.78530139        0.03407281        0.00831698        0.00456809
     164         -0.618945        1.000000        0.00003749        0.00002862        0.00001198        0.00001741
     165         -0.599992        1.000000        0.00009401        0.00010758        0.00024116        0.00008246
     166         -0.598668        1.000000        0.00000142        0.00000187        0.00000175        0.00000479
     167         -0.597503        1.000000        0.00003402        0.00005436        0.00005377        0.00012758
     168         -0.581225        1.000000        0.00020090        0.00080553        0.00078700        0.00042728
     169         -0.575713        1.000000        0.00064070        0.00039754        0.00084454        0.00010699
     170         -0.567339        1.000000        0.00046998        0.00162831        0.00237056        0.00080422
     171         -0.555455        1.000000        0.00313513        0.00858887        0.00035456        0.00520968
     172         -0.522448        1.000000        0.00064986        0.00086101        0.00148550        0.00111567
     173         -0.520034        1.000000        0.00081837        0.00104319        0.00188563        0.00177060
     174         -0.519170        1.000000        0.00057650        0.00075092        0.00040664        0.00217235
     175         -0.517987        1.000000        0.00042940        0.00055632        0.00053986        0.00161291
     176         -0.516897        1.000000        0.00017568        0.00025164        0.00028194        0.00055178
     177         -0.512456        1.000000        0.00101635        0.00108526        0.00263038        0.00166618
     178         -0.511791        1.000000        0.00053101        0.00207956        0.00146741        0.00151453
     179         -0.510606        1.000000        0.00042013        0.00107751        0.00038560        0.00204172
     180         -0.508554        1.000000        0.00074014        0.00127342        0.00059614        0.00526277
     181         -0.508046        1.000000        0.00078224        0.00102698        0.00048169        0.00504651
     182         -0.506790        1.000000        0.00057242        0.00059004        0.00073902        0.00352116
     183         -0.505732        1.000000        0.00198389        0.00181779        0.02222718        0.56184013
     184         -0.505178        1.000000        0.00118316        0.00256474        0.00180273        0.05689404
     185         -0.505063        1.000000        0.00067535        0.00106865        0.00098302        0.00400328
     186         -0.503896        1.000000        0.00108810        0.00160630        0.00132124        0.00610610
     187         -0.502061        1.000000        0.00066406        0.00117090        0.00114413        0.00297767
     188         -0.501992        1.000000        0.00059527        0.00097084        0.00104078        0.00308949
     189         -0.501662        1.000000        0.00079933        0.00128259        0.00115527        0.00411916
     190         -0.501441        1.000000        0.00064819        0.00105356        0.00063276        0.00469466
     191         -0.500970        1.000000        0.00062705        0.00093142        0.00097635        0.00354300
     192         -0.500745        1.000000        0.00062697        0.00111201        0.00090735        0.00353963
     193         -0.500383        1.000000        0.00074129        0.00107307        0.00119293        0.00321188
     194         -0.499849        1.000000        0.00063732        0.00111282        0.00083874        0.00414095
     195         -0.497890        1.000000        0.00029634        0.00119226        0.00123090        0.00229970
     196         -0.496796        1.000000        0.00160629        0.00077660        0.00398945        0.00404788
     197         -0.495462        1.000000        0.00032530        0.00059771        0.00048414        0.00182608
     198         -0.494778        1.000000        0.00081036        0.00336082        0.00264152        0.00570598
     199         -0.494166        1.000000        0.00022408        0.00077068        0.00054128        0.00199858
     200         -0.493796        1.000000        0.00072176        0.00631062        0.00315241        0.01563300
     201         -0.493231        1.000000        0.00021694        0.00110342        0.00065566        0.00270321
     202         -0.491572        1.000000        0.00016447        0.00026553        0.00021265        0.00075782
     203         -0.490268        1.000000        0.00690366        0.23965369        0.09312010        0.30740865
     204         -0.489176        1.000000        0.00172942        0.01095555        0.06877090        0.47480903
     205         -0.488612        1.000000        0.00071669        0.01047148        0.01801244        0.10833074
     206         -0.487197        1.000000        0.00052913        0.00509661        0.00306138        0.01106905
     207         -0.486649        1.000000        0.00036645        0.00396253        0.00189194        0.00904623
     208         -0.485649        1.000000        0.00044748        0.00361866        0.00158106        0.01135885
     209         -0.485331        1.000000        0.00408578        0.05803412        0.04506812        0.12364896
     210         -0.483614        1.000000        0.00127472        0.18131090        0.06856882        0.32257991
     211         -0.483410        1.000000        0.00668833        0.09465707        0.07236448        0.22668163
     212         -0.482700        1.000000        0.00333812        0.14976091        0.00934379        0.04395614
     213         -0.478242        1.000000        0.00002588        0.00019193        0.00009511        0.00059687
     214         -0.477434        1.000000        0.00011170        0.00036702        0.00093239        0.00354721
     215         -0.475689        1.000000        0.01169840        0.05488276        0.05574466        0.54863166
     216         -0.474753        1.000000        0.00295992        0.03748937        0.08137309        0.14766856
     217         -0.474382        1.000000        0.00354900        0.05235410        0.11800893        0.19006658
     218         -0.473250        1.000000        0.00004816        0.00123964        0.00176095        0.00482131
     219         -0.471955        1.000000        0.00199196        0.09632355        0.11208992        0.41984080
     220         -0.471530        1.000000        0.00003510        0.00027528        0.00045069        0.00047341
     221         -0.470943        1.000000        0.00102157        0.01308873        0.04930204        0.06102597
     222         -0.469712        1.000000        0.00542401        0.06305392        0.18204289        0.29892878
     223         -0.468309        1.000000        0.00007972        0.00036531        0.00028716        0.00076024
     224         -0.466898        1.000000        0.00501634        0.14074232        0.01629625        0.46191430
     225         -0.464317        1.000000        0.00214619        0.11809859        0.06443852        0.45992272
     226         -0.463119        1.000000        0.00961585        0.02942148        0.15834663        0.44751789
     227         -0.462194        1.000000        0.00612384        0.02292811        0.21055208        0.40908440
     228         -0.461396        1.000000        0.00333888        0.04416853        0.02194326        0.57478614
     229         -0.458335        1.000000        0.00004258        0.00015423        0.00070675        0.00047796
     230         -0.458070        1.000000        0.00156821        0.10538915        0.03887728        0.45707244
     231         -0.456943        1.000000        0.00032466        0.01800142        0.01825050        0.03075844
     232         -0.455401        1.000000        0.01334271        0.31447869        0.01930212        0.19885860
     233         -0.455281        1.000000        0.00977464        0.22931355        0.01388733        0.35828536
     234         -0.452180        1.000000        0.00255229        0.14729604        0.12799592        0.35968192
     235         -0.451609        1.000000        0.02466415        0.24675491        0.29157572        0.12968145
     236         -0.450077        1.000000        0.00691339        0.05395180        0.51585696        0.09366311
     237         -0.449705        1.000000        0.00283759        0.07141730        0.03729449        0.03825533
     238         -0.447990        1.000000        0.00466441        0.18787499        0.07760851        0.36861084
     239         -0.447753        1.000000        0.00136016        0.22040890        0.34597213        0.07830901
     240         -0.444803        1.000000        0.00446203        0.32203786        0.05236287        0.26852093
     241         -0.442143        1.000000        0.01075375        0.27735820        0.05812092        0.27730595
     242         -0.440745        1.000000        0.00406201        0.21148350        0.06981287        0.35940882
     243         -0.439992        1.000000        0.00055020        0.01334272        0.02006651        0.00984016
     244         -0.439655        1.000000        0.00274110        0.05550745        0.54061610        0.04468587
     245         -0.438857        1.000000        0.00109413        0.01758570        0.01224976        0.60554380
     246         -0.438725        1.000000        0.00190603        0.08333587        0.04552493        0.50893390
     247         -0.436228        1.000000        0.00094354        0.03723376        0.00351685        0.56941012
     248         -0.435549        1.000000        0.00226679        0.43576376        0.09807414        0.11119506
     249         -0.435316        1.000000        0.00101053        0.02156616        0.03728514        0.57333651
     250         -0.434706        1.000000        0.00053714        0.01738357        0.03044954        0.00972254
     251         -0.434518        1.000000        0.01093260        0.03919789        0.06074127        0.54269185
     252         -0.434359        1.000000        0.00221428        0.22735568        0.14255679        0.24135560
     253         -0.434274        1.000000        0.00439080        0.21276091        0.09683997        0.32163941
     254         -0.433705        1.000000        0.01073057        0.26453087        0.15140165        0.22389104
     255         -0.432614        1.000000        0.00143161        0.10641103        0.06159353        0.08899729
     256         -0.432271        1.000000        0.00543845        0.21675475        0.18602555        0.24597719
     257         -0.431446        1.000000        0.01864855        0.32633168        0.15652230        0.17060162
     258         -0.429597        1.000000        0.01296069        0.05944725        0.01678821        0.52848529
     259         -0.427956        1.000000        0.00509360        0.17952692        0.10945548        0.36922662