# Projected DOS for atomic kind I at iteration step i = 0, E(Fermi) =    -0.101588 a.u.
#     MO Eigenvalue [a.u.]      Occupation                 s                py                pz                px
       1         -0.961067        1.000000        0.00000066        0.00000535        0.00000019        0.00000721
       2         -0.940785        1.000000        0.00001367        0.00000602        0.00011136        0.00002907
       3         -0.936349        1.000000        0.00000109        0.00000296        0.00000708        0.00000046
       4         -0.932960        1.000000        0.00001368        0.00008374        0.00004354        0.00001338
       5         -0.928227        1.000000        0.00000138        0.00001107        0.00000482        0.00000546
       6         -0.921307        1.000000        0.00001440        0.00000109        0.00003345        0.00009889
       7         -0.920097        1.000000        0.00000019        0.00000364        0.00000215        0.00000929
       8         -0.919982        1.000000        0.00000504        0.00001483        0.00000664        0.00003188
       9         -0.913005        1.000000        0.00005493        0.00006502        0.00004848        0.00019089
      10         -0.902861        1.000000        0.00000844        0.00000042        0.00002884        0.00005223
      11         -0.900717        1.000000        0.00000127        0.00000124        0.00001008        0.00000530
      12         -0.900407        1.000000        0.00002226        0.00004672        0.00004727        0.00004689
      13         -0.899332        1.000000        0.00000289        0.00002223        0.00000693        0.00000849
      14         -0.897044        1.000000        0.00000282        0.00000339        0.00000332        0.00003122
      15         -0.893700        1.000000        0.00000033        0.00000179        0.00000189        0.00000217
      16         -0.892627        1.000000        0.00000629        0.00004376        0.00001128        0.00001344
      17         -0.890240        1.000000        0.00000561        0.00001432        0.00002149        0.00002157
      18         -0.888188        1.000000        0.00001624        0.00004950        0.00001431        0.00006499
      19         -0.885899        1.000000        0.00007753        0.00000292        0.00007255        0.00029910
      20         -0.883688        1.000000        0.00001079        0.00005065        0.00002501        0.00001596
      21         -0.883099        1.000000        0.00000083        0.00000283        0.00000258        0.00000192
      22         -0.882100        1.000000        0.00001566        0.00001555        0.00009317        0.00002254
      23         -0.881034        1.000000        0.00008943        0.00009579        0.00019147        0.00010440
      24         -0.879887        1.000000        0.00000141        0.00000135        0.00000422        0.00000472
      25         -0.879725        1.000000        0.00000617        0.00001006        0.00002786        0.00001653
      26         -0.879315        1.000000        0.00006801        0.00005401        0.00000114        0.00029210
      27         -0.879030        1.000000        0.00000475        0.00000553        0.00001072        0.00002678
      28         -0.877295        1.000000        0.00002177        0.00000270        0.00005466        0.00003212
      29         -0.875586        1.000000        0.00004137        0.00000637        0.00012086        0.00009583
      30         -0.874524        1.000000        0.00002755        0.00000270        0.00022061        0.00001155
      31         -0.873184        1.000000        0.00000961        0.00003759        0.00002371        0.00003245
      32         -0.871492        1.000000        0.00001660        0.00000144        0.00002764        0.00009422
      33         -0.871370        1.000000        0.00000084        0.00000993        0.00002531        0.00001704
      34         -0.871077        1.000000        0.00001746        0.00005081        0.00002389        0.00004557
      35         -0.871013        1.000000        0.00027401        0.00048312        0.00037594        0.00024884
      36         -0.868087        1.000000        0.00020109        0.00045328        0.00001208        0.00009239
      37         -0.867741        1.000000        0.00000283        0.00001042        0.00000408        0.00001958
      38         -0.865982        1.000000        0.00000579        0.00000340        0.00001555        0.00003822
      39         -0.864376        1.000000        0.00006778        0.00015459        0.00013400        0.00006037
      40         -0.864288        1.000000        0.00002050        0.00003163        0.00007383        0.00004201
      41         -0.861882        1.000000        0.00001196        0.00001748        0.00004899        0.00002542
      42         -0.861540        1.000000        0.00015844        0.00018698        0.00010629        0.00041000
      43         -0.861360        1.000000        0.00006112        0.00005976        0.00005497        0.00024807
      44         -0.858888        1.000000        0.00016048        0.00021978        0.00043505        0.00022388
      45         -0.858674        1.000000        0.00013376        0.00039456        0.00009348        0.00022163
      46         -0.858637        1.000000        0.00002236        0.00001010        0.00009918        0.00003948
      47         -0.858325        1.000000        0.00000448        0.00000728        0.00001360        0.00001594
      48         -0.858052        1.000000        0.00001060        0.00000897        0.00003290        0.00002553
      49         -0.856919        1.000000        0.00002216        0.00001752        0.00000873        0.00009177
      50         -0.856435        1.000000        0.00007711        0.00005419        0.00007561        0.00018438
      51         -0.856382        1.000000        0.00010672        0.00028561        0.00016877        0.00018747
      52         -0.856290        1.000000        0.00001923        0.00004408        0.00001656        0.00008633
      53         -0.854739        1.000000        0.00000227        0.00002242        0.00000110        0.00000910
      54         -0.853853        1.000000        0.00003102        0.00001955        0.00009271        0.00006320
      55         -0.852608        1.000000        0.00002361        0.00002363        0.00000329        0.00017444
      56         -0.852367        1.000000        0.00000387        0.00002770        0.00001955        0.00002625
      57         -0.851533        1.000000        0.00005475        0.00010121        0.00010348        0.00006197
      58         -0.849987        1.000000        0.00000237        0.00000955        0.00002454        0.00000470
      59         -0.848677        1.000000        0.00006253        0.00003690        0.00019691        0.00004624
      60         -0.847567        1.000000        0.00003846        0.00000122        0.00025882        0.00006895
      61         -0.844420        1.000000        0.00004536        0.00002174        0.00003431        0.00018257
      62         -0.844343        1.000000        0.00014255        0.00003982        0.00049746        0.00015451
      63         -0.843339        1.000000        0.00000773        0.00000062        0.00003588        0.00001111
      64         -0.842496        1.000000        0.00005820        0.00005823        0.00020645        0.00007518
      65         -0.842405        1.000000        0.00002656        0.00002670        0.00003934        0.00006107
      66         -0.842284        1.000000        0.00007382        0.00021422        0.00000718        0.00010429
      67         -0.841941        1.000000        0.00001569        0.00006900        0.00007695        0.00003376
      68         -0.840325        1.000000        0.00005278        0.00000265        0.00004781        0.00018603
      69         -0.839660        1.000000        0.00000724        0.00004137        0.00001414        0.00000521
      70         -0.838811        1.000000        0.00000438        0.00004428        0.00002439        0.00000543
      71         -0.837701        1.000000        0.00005541        0.00004179        0.00004007        0.00011989
      72         -0.837471        1.000000        0.00001837        0.00006554        0.00006128        0.00000188
      73         -0.837420        1.000000        0.00000613        0.00001371        0.00000791        0.00003208
      74         -0.837095        1.000000        0.00002449        0.00000252        0.00011767        0.00002958
      75         -0.836990        1.000000        0.00002108        0.00003180        0.00002129        0.00012080
      76         -0.836262        1.000000        0.00008299        0.00010228        0.00002054        0.00017143
      77         -0.835068        1.000000        0.00004780        0.00000903        0.00012706        0.00004707
      78         -0.834943        1.000000        0.00002204        0.00001241        0.00010438        0.00013479
      79         -0.834422        1.000000        0.00001914        0.00006675        0.00000320        0.00006960
      80         -0.832989        1.000000        0.00000281        0.00000240        0.00002436        0.00000722
      81         -0.830943        1.000000        0.00002202        0.00001233        0.00007556        0.00003532
      82         -0.830701        1.000000        0.00004214        0.00007835        0.00005638        0.00005160
      83         -0.830366        1.000000        0.00002912        0.00005217        0.00006609        0.00007017
      84         -0.829728        1.000000        0.00000221        0.00000638        0.00000763        0.00000757
      85         -0.829177        1.000000        0.00002377        0.00001065        0.00002714        0.00009394
      86         -0.828929        1.000000        0.00004570        0.00001305        0.00003984        0.00018168
      87         -0.828376        1.000000        0.00002672        0.00005868        0.00007371        0.00003758
      88         -0.827781        1.000000        0.00007088        0.00004293        0.00018376        0.00007543
      89         -0.827633        1.000000        0.00001123        0.00003955        0.00005290        0.00000545
      90         -0.827471        1.000000        0.00002193        0.00001088        0.00007436        0.00003021
      91         -0.827359        1.000000        0.00000907        0.00002020        0.00002072        0.00003152
      92         -0.825573        1.000000        0.00000216        0.00000681        0.00000080        0.00000560
      93         -0.823285        1.000000        0.00004966        0.00004348        0.00002652        0.00017182
      94         -0.823140        1.000000        0.00005456        0.00007375        0.00010759        0.00009308
      95         -0.821820        1.000000        0.00002129        0.00000744        0.00001855        0.00008272
      96         -0.821012        1.000000        0.00003414        0.00000353        0.00002291        0.00008932
      97         -0.820459        1.000000        0.00002829        0.00003340        0.00000997        0.00008815
      98         -0.819502        1.000000        0.00006531        0.00014003        0.00004783        0.00005798
      99         -0.819084        1.000000        0.00000496        0.00000787        0.00000363        0.00000981
     100         -0.818522        1.000000        0.00001007        0.00001548        0.00001794        0.00002432
     101         -0.817990        1.000000        0.00004252        0.00008042        0.00004868        0.00006707
     102         -0.816376        1.000000        0.00001318        0.00002350        0.00003832        0.00003776
     103         -0.815670        1.000000        0.00000542        0.00001633        0.00001693        0.00001057
     104         -0.815242        1.000000        0.00001927        0.00003263        0.00012317        0.00006643
     105         -0.814179        1.000000        0.00000564        0.00004286        0.00004216        0.00001287
     106         -0.813138        1.000000        0.00004477        0.00001187        0.00001416        0.00023232
     107         -0.813118        1.000000        0.00003326        0.00008713        0.00007972        0.00001216
     108         -0.811836        1.000000        0.00004608        0.00010015        0.00010721        0.00003068
     109         -0.811061        1.000000        0.00002315        0.00007217        0.00003564        0.00005851
     110         -0.810555        1.000000        0.00002533        0.00001447        0.00001161        0.00003124
     111         -0.809407        1.000000        0.00001685        0.00002790        0.00003104        0.00003883
     112         -0.809270        1.000000        0.00002823        0.00002419        0.00005567        0.00005537
     113         -0.808879        1.000000        0.00003293        0.00006303        0.00000330        0.00000885
     114         -0.807230        1.000000        0.00000568        0.00001145        0.00002520        0.00001753
     115         -0.806701        1.000000        0.00074268        0.00133441        0.00046808        0.00005173
     116         -0.805393        1.000000        0.00003333        0.00002555        0.00023169        0.00002370
     117         -0.804313        1.000000        0.00000413        0.00000831        0.00000637        0.00001314
     118         -0.804312        1.000000        0.00003301        0.00002111        0.00005994        0.00006716
     119         -0.803282        1.000000        0.00003493        0.00005156        0.00000486        0.00001933
     120         -0.802996        1.000000        0.00000078        0.00001102        0.00000206        0.00000514
     121         -0.801715        1.000000        0.00016770        0.00012081        0.00053034        0.00001206
     122         -0.800560        1.000000        0.00001310        0.00000229        0.00009147        0.00000596
     123         -0.800539        1.000000        0.00007457        0.00010442        0.00008744        0.00014847
     124         -0.799985        1.000000        0.00001117        0.00000849        0.00022861        0.00002205
     125         -0.798950        1.000000        0.00003885        0.00001126        0.00018039        0.00002265
     126         -0.797284        1.000000        0.00000492        0.00000944        0.00000555        0.00003977
     127         -0.797085        1.000000        0.00002665        0.00008071        0.00002803        0.00003549
     128         -0.796957        1.000000        0.00000842        0.00003375        0.00003233        0.00001264
     129         -0.796547        1.000000        0.00000088        0.00001694        0.00000427        0.00001112
     130         -0.796191        1.000000        0.00004099        0.00004554        0.00005757        0.00006270
     131         -0.795377        1.000000        0.00002468        0.00003912        0.00002395        0.00006606
     132         -0.794440        1.000000        0.00005339        0.00011079        0.00011024        0.00002432
     133         -0.793500        1.000000        0.00030976        0.00070732        0.00007165        0.00024455
     134         -0.792717        1.000000        0.00005297        0.00006023        0.00009508        0.00004249
     135         -0.790849        1.000000        0.00001996        0.00002237        0.00009644        0.00004239
     136         -0.790122        1.000000        0.00001576        0.00001405        0.00001012        0.00001898
     137         -0.789857        1.000000        0.00004741        0.00009383        0.00002173        0.00003620
     138         -0.787424        1.000000        0.00000329        0.00000944        0.00000330        0.00000985
     139         -0.783348        1.000000        0.00003137        0.00004484        0.00003392        0.00008237
     140         -0.783199        1.000000        0.00001285        0.00001392        0.00001201        0.00000511
     141         -0.782324        1.000000        0.00000571        0.00001214        0.00000647        0.00003732
     142         -0.781164        1.000000        0.00010790        0.00002665        0.00004461        0.00011790
     143         -0.781101        1.000000        0.00008755        0.00010156        0.00012853        0.00010408
     144         -0.780720        1.000000        0.00001195        0.00000641        0.00002466        0.00007121
     145         -0.780142        1.000000        0.00031563        0.00030018        0.00044321        0.00018480
     146         -0.778116        1.000000        0.00049495        0.00033510        0.00060607        0.00004357
     147         -0.776714        1.000000        0.00004738        0.00001238        0.00023040        0.00000053
     148         -0.775622        1.000000        0.00002632        0.00001031        0.00012161        0.00002130
     149         -0.775136        1.000000        0.00001976        0.00006403        0.00001548        0.00000387
     150         -0.771621        1.000000        0.00000892        0.00000278        0.00004081        0.00003574
     151         -0.771170        1.000000        0.00000800        0.00000627        0.00000559        0.00000404
     152         -0.767770        1.000000        0.00819095        0.00840598        0.00014456        0.00182436
     153         -0.765769        1.000000        0.00000160        0.00002396        0.00000433        0.00000330
     154         -0.765391        1.000000        0.00005880        0.00001631        0.00008311        0.00021247
     155         -0.765055        1.000000        0.00000017        0.00008148        0.00011912        0.00000144
     156         -0.761780        1.000000        0.00000537        0.00002195        0.00001232        0.00001002
     157         -0.760821        1.000000        0.00000313        0.00000977        0.00000847        0.00001205
     158         -0.758131        1.000000        0.00009155        0.00000068        0.00000464        0.00018790
     159         -0.757792        1.000000        0.00000455        0.00000680        0.00000514        0.00001030
     160         -0.757088        1.000000        0.00003575        0.00006167        0.00000099        0.00003332
     161         -0.747654        1.000000        0.00005798        0.00015783        0.00002336        0.00006715
     162         -0.746151        1.000000        0.00003735        0.00002829        0.00002985        0.00006998
     163         -0.722866        1.000000        0.00000174        0.00000095        0.00000127        0.00000159
     164         -0.618944        1.000000        0.00234360        0.00061100        0.00045616        0.00020362
     165         -0.599994        1.000000        0.00292530        0.00050150        0.00037358        0.00043359
     166         -0.598666        1.000000        0.00352586        0.00055217        0.00063401        0.00047490
     167         -0.597516        1.000000        0.00143451        0.00033213        0.00017814        0.00021054
     168         -0.581229        1.000000        0.00181719        0.00028063        0.00026489        0.00026550
     169         -0.575711        1.000000        0.00296555        0.00009368        0.00025617        0.00030563
     170         -0.567332        1.000000        0.00256437        0.00029540        0.00024126        0.00033426
     171         -0.555431        1.000000        0.94750245        0.01721960        0.00066306        0.00340640
     172         -0.523151        1.000000        0.81453396        0.00766471        0.00464046        0.00597811
     173         -0.519923        1.000000        0.83265503        0.00529367        0.00577351        0.00545829
     174         -0.519487        1.000000        0.84252819        0.00585478        0.00590414        0.00548345
     175         -0.517871        1.000000        0.83656814        0.00478782        0.00477959        0.00311861
     176         -0.514930        1.000000        0.82405352        0.00246074        0.00224839        0.00342872
     177         -0.512496        1.000000        0.75455790        0.00237049        0.00342188        0.00249661
     178         -0.511049        1.000000        0.67844962        0.00213930        0.00407844        0.00211445
     179         -0.509344        1.000000        0.85425037        0.00278557        0.00070125        0.00130608
     180         -0.508556        1.000000        0.89620717        0.00157940        0.00097164        0.00121446
     181         -0.508175        1.000000        0.94218673        0.00095192        0.00056645        0.00122747
     182         -0.507781        1.000000        0.80398168        0.00204721        0.00193421        0.00179833
     183         -0.506482        1.000000        0.82714778        0.00369118        0.00138572        0.00172436
     184         -0.506317        1.000000        0.90628308        0.00125834        0.00269278        0.00232129
     185         -0.505956        1.000000        0.86508482        0.00229929        0.00323991        0.00253337
     186         -0.505691        1.000000        0.03395694        0.00008536        0.00007394        0.00008077
     187         -0.504808        1.000000        0.90641096        0.00702770        0.00111902        0.00263252
     188         -0.502671        1.000000        0.90474660        0.00089770        0.00077818        0.00120374
     189         -0.502370        1.000000        0.87399674        0.00123898        0.00055328        0.00115837
     190         -0.501040        1.000000        0.87014253        0.00099422        0.00181848        0.00148554
     191         -0.500854        1.000000        0.88029418        0.00123022        0.00233795        0.00160957
     192         -0.500300        1.000000        0.85880947        0.00140822        0.00294724        0.00176560
     193         -0.500245        1.000000        0.93160587        0.00103158        0.00050905        0.00014880
     194         -0.498494        1.000000        0.94314440        0.00120023        0.00052978        0.00015828
     195         -0.497831        1.000000        0.89505786        0.00055635        0.00083425        0.00105376
     196         -0.497623        1.000000        0.83482659        0.00071725        0.00315640        0.00136239
     197         -0.496880        1.000000        0.95172327        0.00204806        0.00057859        0.00068976
     198         -0.495288        1.000000        0.94781294        0.00044936        0.00076055        0.00026782
     199         -0.494552        1.000000        0.88793368        0.00060967        0.00053942        0.00045189
     200         -0.494044        1.000000        0.95408128        0.00095054        0.00031055        0.00067603
     201         -0.491981        1.000000        0.96996306        0.00053716        0.00039391        0.00055222
     202         -0.491159        1.000000        0.93638413        0.00101989        0.00031466        0.00183725
     203         -0.490258        1.000000        0.02223379        0.00013114        0.00002405        0.00006334
     204         -0.489262        1.000000        0.42260538        0.00035524        0.00031465        0.00052812
     205         -0.488992        1.000000        0.34917688        0.00025829        0.00015059        0.00037461
     206         -0.487817        1.000000        0.67410962        0.00029200        0.00040172        0.00087247
     207         -0.487108        1.000000        0.93628285        0.00050716        0.00070028        0.00061840
     208         -0.485806        1.000000        0.63784318        0.00052489        0.00058086        0.00068784
     209         -0.485397        1.000000        0.90023222        0.00056682        0.00055186        0.00067255
     210         -0.483682        1.000000        0.09935645        0.00041620        0.00008803        0.00012090
     211         -0.483514        1.000000        0.18846592        0.00023443        0.00011850        0.00012991
     212         -0.482706        1.000000        0.64472735        0.00188560        0.00012303        0.00041812
     213         -0.478092        1.000000        0.11181660        0.00196669        0.00073520        0.00095974
     214         -0.477463        1.000000        0.07560552        0.00128230        0.00311464        0.00111017
     215         -0.475690        1.000000        0.00127917        0.00012726        0.00003446        0.00000629
     216         -0.474693        1.000000        0.05699180        0.00134541        0.00071749        0.00116865
     217         -0.474294        1.000000        0.06700724        0.00229679        0.00041056        0.00192286
     218         -0.473299        1.000000        0.15343157        0.00326287        0.00029421        0.00184502
     219         -0.471952        1.000000        0.02479488        0.00001935        0.00025509        0.00037773
     220         -0.471551        1.000000        0.12264360        0.00117374        0.00065029        0.00185797
     221         -0.471036        1.000000        0.29718634        0.00079682        0.00109380        0.00210382
     222         -0.469723        1.000000        0.05622274        0.00024935        0.00006530        0.00028541
     223         -0.468615        1.000000        0.13412758        0.00236622        0.00037400        0.00321687
     224         -0.466901        1.000000        0.01971758        0.00008567        0.00003595        0.00019576
     225         -0.464317        1.000000        0.00431784        0.00005800        0.00015801        0.00024372
     226         -0.463121        1.000000        0.00313587        0.00000638        0.00002365        0.00007833
     227         -0.462194        1.000000        0.00569469        0.00002570        0.00022765        0.00040863
     228         -0.461395        1.000000        0.00130581        0.00030547        0.00009873        0.00011804
     229         -0.458360        1.000000        0.00885870        0.00049011        0.00234120        0.00062040
     230         -0.458073        1.000000        0.00792327        0.00024093        0.00023119        0.00095388
     231         -0.456941        1.000000        0.02781015        0.00123469        0.00056623        0.00106767
     232         -0.455404        1.000000        0.15872295        0.00003641        0.00101175        0.00573393
     233         -0.455284        1.000000        0.05482622        0.00008176        0.00038964        0.00201977
     234         -0.452188        1.000000        0.00601085        0.00028115        0.00007017        0.00050195
     235         -0.451625        1.000000        0.00019585        0.00005263        0.00001614        0.00004278
     236         -0.450179        1.000000        0.00030409        0.00000860        0.00000563        0.00008184
     237         -0.449711        1.000000        0.01759942        0.00167207        0.00039225        0.00077316
     238         -0.448023        1.000000        0.00110491        0.00005519        0.00002400        0.00012390
     239         -0.447750        1.000000        0.00024463        0.00004473        0.00003875        0.00003460
     240         -0.444817        1.000000        0.00312440        0.00048592        0.00009094        0.00033519
     241         -0.442141        1.000000        0.00044982        0.00012857        0.00006993        0.00003778
     242         -0.440744        1.000000        0.00068168        0.00001948        0.00005075        0.00006741
     243         -0.439983        1.000000        0.00203109        0.00012493        0.00159357        0.00024437
     244         -0.439655        1.000000        0.00035607        0.00006736        0.00000943        0.00011477
     245         -0.438856        1.000000        0.00248970        0.00005513        0.00002603        0.00092249
     246         -0.438847        1.000000        0.01023979        0.00018897        0.00009544        0.00331713
     247         -0.436123        1.000000        0.03771899        0.00211200        0.00026582        0.00466996
     248         -0.435576        1.000000        0.00235309        0.00015245        0.00107785        0.00028929
     249         -0.435328        1.000000        0.00452746        0.00004763        0.00044452        0.00115337
     250         -0.434701        1.000000        0.00234845        0.00033652        0.00082912        0.00019871
     251         -0.434515        1.000000        0.00124701        0.00016054        0.00066340        0.00021351
     252         -0.434359        1.000000        0.03303605        0.00001390        0.00160975        0.00026598
     253         -0.434274        1.000000        0.01012705        0.00003984        0.00044731        0.00016524
     254         -0.433705        1.000000        0.00076769        0.00005035        0.00007593        0.00007825
     255         -0.432607        1.000000        0.00207896        0.00077530        0.00057020        0.00016161
     256         -0.432270        1.000000        0.00052850        0.00006076        0.00002299        0.00018190
     257         -0.431447        1.000000        0.00037618        0.00003532        0.00002333        0.00008507
     258         -0.429597        1.000000        0.00041498        0.00005422        0.00005193        0.00002917
     259         -0.427958        1.000000        0.00086703        0.00005852        0.00017939        0.00038840