# Projected DOS for atomic kind Pb at iteration step i = 0, E(Fermi) =    -0.103074 a.u.
#     MO Eigenvalue [a.u.]      Occupation                 s                py                pz                px
       1         -0.961067        1.000000        0.00000000        0.00000002        0.00000000        0.00000000
       2         -0.940785        1.000000        0.00000000        0.00000003        0.00000002        0.00000000
       3         -0.936348        1.000000        0.00000000        0.00000000        0.00000000        0.00000000
       4         -0.932961        1.000000        0.00000005        0.00000029        0.00000000        0.00000001
       5         -0.928229        1.000000        0.00000001        0.00000018        0.00000014        0.00000003
       6         -0.921308        1.000000        0.00000003        0.00000002        0.00000067        0.00000027
       7         -0.920098        1.000000        0.00000000        0.00000002        0.00000001        0.00000005
       8         -0.919981        1.000000        0.00000002        0.00000009        0.00000000        0.00000002
       9         -0.913005        1.000000        0.00000001        0.00000007        0.00000000        0.00000000
      10         -0.902871        1.000000        0.00000005        0.00000000        0.00000001        0.00000026
      11         -0.900716        1.000000        0.00000001        0.00000000        0.00000003        0.00000000
      12         -0.900407        1.000000        0.00000004        0.00000028        0.00000001        0.00000001
      13         -0.899331        1.000000        0.00000025        0.00000290        0.00000133        0.00000672
      14         -0.896760        1.000000        0.00000002        0.00000051        0.00000003        0.00000026
      15         -0.893698        1.000000        0.00000000        0.00000001        0.00000000        0.00000000
      16         -0.892624        1.000000        0.00000003        0.00000014        0.00000001        0.00000000
      17         -0.890238        1.000000        0.00000005        0.00000005        0.00000085        0.00000038
      18         -0.888187        1.000000        0.00000005        0.00000033        0.00000010        0.00000063
      19         -0.885899        1.000000        0.00000000        0.00000006        0.00000002        0.00000007
      20         -0.883689        1.000000        0.00000012        0.00000021        0.00000158        0.00000009
      21         -0.883101        1.000000        0.00000001        0.00000011        0.00000011        0.00000005
      22         -0.882067        1.000000        0.00000007        0.00000010        0.00000040        0.00000084
      23         -0.881036        1.000000        0.00000032        0.00000099        0.00000043        0.00000416
      24         -0.879886        1.000000        0.00000001        0.00000004        0.00000003        0.00000002
      25         -0.879720        1.000000        0.00000004        0.00000000        0.00000028        0.00000001
      26         -0.879296        1.000000        0.00000019        0.00000159        0.00000003        0.00000134
      27         -0.879025        1.000000        0.00000004        0.00000000        0.00000001        0.00000018
      28         -0.877297        1.000000        0.00000001        0.00000076        0.00000001        0.00000000
      29         -0.875586        1.000000        0.00000000        0.00000000        0.00000000        0.00000004
      30         -0.874524        1.000000        0.00000025        0.00000011        0.00000066        0.00000000
      31         -0.873183        1.000000        0.00000004        0.00000004        0.00000008        0.00000051
      32         -0.871478        1.000000        0.00000008        0.00000000        0.00000001        0.00000031
      33         -0.871368        1.000000        0.00000000        0.00000001        0.00000002        0.00000003
      34         -0.871057        1.000000        0.00000006        0.00000001        0.00000003        0.00000064
      35         -0.871019        1.000000        0.00000349        0.00002556        0.00005500        0.00001609
      36         -0.868091        1.000000        0.00000001        0.00000014        0.00000001        0.00000002
      37         -0.867740        1.000000        0.00000000        0.00000007        0.00000002        0.00000002
      38         -0.865986        1.000000        0.00000005        0.00000001        0.00000001        0.00000018
      39         -0.865030        1.000000        0.00000034        0.00000240        0.00000107        0.00000036
      40         -0.864281        1.000000        0.00000016        0.00000004        0.00000081        0.00000004
      41         -0.861880        1.000000        0.00000008        0.00000001        0.00000018        0.00000075
      42         -0.861592        1.000000        0.00000328        0.00001599        0.00004569        0.00001659
      43         -0.861356        1.000000        0.00000049        0.00000674        0.00000158        0.00000472
      44         -0.858881        1.000000        0.00000052        0.00000604        0.00000512        0.00000334
      45         -0.858679        1.000000        0.00000046        0.00000687        0.00000744        0.00000221
      46         -0.858496        1.000000        0.00000004        0.00000007        0.00000019        0.00000075
      47         -0.858323        1.000000        0.00000000        0.00000039        0.00000016        0.00000015
      48         -0.857986        1.000000        0.00000002        0.00000033        0.00000011        0.00000027
      49         -0.856911        1.000000        0.00000001        0.00000031        0.00000011        0.00000004
      50         -0.856438        1.000000        0.00000038        0.00000086        0.00000302        0.00000141
      51         -0.856377        1.000000        0.00000040        0.00000817        0.00000441        0.00000310
      52         -0.856293        1.000000        0.00000015        0.00000199        0.00000028        0.00000216
      53         -0.854739        1.000000        0.00000002        0.00000010        0.00000004        0.00000007
      54         -0.853825        1.000000        0.00000005        0.00000109        0.00000013        0.00000018
      55         -0.852602        1.000000        0.00000017        0.00000000        0.00000002        0.00000086
      56         -0.852350        1.000000        0.00000002        0.00000003        0.00000009        0.00000002
      57         -0.850774        1.000000        0.00000010        0.00000059        0.00000003        0.00000002
      58         -0.849986        1.000000        0.00000001        0.00000003        0.00000009        0.00000008
      59         -0.848616        1.000000        0.00000061        0.00000086        0.00000453        0.00000169
      60         -0.847341        1.000000        0.00000007        0.00000046        0.00000008        0.00000009
      61         -0.844407        1.000000        0.00000017        0.00000002        0.00000001        0.00000061
      62         -0.843337        1.000000        0.00000007        0.00000000        0.00000046        0.00000008
      63         -0.842612        1.000000        0.00000027        0.00000006        0.00000101        0.00000099
      64         -0.842311        1.000000        0.00000089        0.00000821        0.00001217        0.00000132
      65         -0.842286        1.000000        0.00000008        0.00000183        0.00000112        0.00000035
      66         -0.842162        1.000000        0.00000005        0.00000245        0.00000053        0.00000047
      67         -0.840325        1.000000        0.00000036        0.00000001        0.00000465        0.00000237
      68         -0.840237        1.000000        0.00000064        0.00000034        0.00000478        0.00000872
      69         -0.839648        1.000000        0.00000005        0.00000005        0.00000011        0.00000083
      70         -0.838809        1.000000        0.00000006        0.00000035        0.00000021        0.00000182
      71         -0.837593        1.000000        0.00000003        0.00000009        0.00000038        0.00000006
      72         -0.837466        1.000000        0.00000030        0.00000046        0.00000355        0.00000002
      73         -0.837414        1.000000        0.00000002        0.00000002        0.00000005        0.00000013
      74         -0.837080        1.000000        0.00000007        0.00000021        0.00000033        0.00000003
      75         -0.836986        1.000000        0.00000011        0.00000001        0.00000001        0.00000042
      76         -0.836010        1.000000        0.00000016        0.00000003        0.00000000        0.00000074
      77         -0.835030        1.000000        0.00000006        0.00000085        0.00000122        0.00000028
      78         -0.834218        1.000000        0.00000008        0.00000000        0.00000000        0.00000030
      79         -0.833373        1.000000        0.00000012        0.00000009        0.00000059        0.00000049
      80         -0.832834        1.000000        0.00000001        0.00000011        0.00000000        0.00000000
      81         -0.830950        1.000000        0.00000025        0.00000081        0.00000143        0.00000038
      82         -0.830452        1.000000        0.00000018        0.00000175        0.00000027        0.00000018
      83         -0.830126        1.000000        0.00000000        0.00000022        0.00000040        0.00000004
      84         -0.829727        1.000000        0.00000002        0.00000011        0.00000012        0.00000004
      85         -0.829196        1.000000        0.00000007        0.00000046        0.00000007        0.00000007
      86         -0.828335        1.000000        0.00000008        0.00000030        0.00000045        0.00000004
      87         -0.828178        1.000000        0.00000008        0.00000035        0.00000084        0.00000030
      88         -0.827785        1.000000        0.00000007        0.00000104        0.00000010        0.00000022
      89         -0.827513        1.000000        0.00000003        0.00000005        0.00000008        0.00000042
      90         -0.827431        1.000000        0.00000003        0.00000023        0.00000070        0.00000079
      91         -0.826731        1.000000        0.00000018        0.00000014        0.00000098        0.00000184
      92         -0.826326        1.000000        0.00000004        0.00000024        0.00000043        0.00000022
      93         -0.825557        1.000000        0.00000006        0.00000082        0.00000033        0.00000204
      94         -0.823160        1.000000        0.00000020        0.00000228        0.00000029        0.00000022
      95         -0.822880        1.000000        0.00000014        0.00000015        0.00000011        0.00000067
      96         -0.821791        1.000000        0.00000023        0.00000009        0.00000216        0.00000086
      97         -0.820935        1.000000        0.00000040        0.00000005        0.00000111        0.00000135
      98         -0.820266        1.000000        0.00000018        0.00000006        0.00000007        0.00000097
      99         -0.819497        1.000000        0.00000018        0.00000056        0.00000135        0.00000013
     100         -0.818536        1.000000        0.00000011        0.00000077        0.00000023        0.00000017
     101         -0.817212        1.000000        0.00000016        0.00000024        0.00000016        0.00000001
     102         -0.816737        1.000000        0.00000000        0.00000014        0.00000003        0.00000001
     103         -0.816440        1.000000        0.00000007        0.00000018        0.00000023        0.00000016
     104         -0.816071        1.000000        0.00000023        0.00000002        0.00000059        0.00000006
     105         -0.816043        1.000000        0.00000156        0.00001022        0.00000129        0.00000016
     106         -0.815731        1.000000        0.00000002        0.00000025        0.00000006        0.00000006
     107         -0.814198        1.000000        0.00000003        0.00000004        0.00000012        0.00000002
     108         -0.813401        1.000000        0.00000020        0.00000022        0.00000074        0.00000001
     109         -0.812439        1.000000        0.00000031        0.00000006        0.00000000        0.00000099
     110         -0.812407        1.000000        0.00000001        0.00000011        0.00000103        0.00000000
     111         -0.811198        1.000000        0.00000019        0.00000183        0.00000022        0.00000078
     112         -0.809464        1.000000        0.00000006        0.00000014        0.00000100        0.00000089
     113         -0.809309        1.000000        0.00000013        0.00000041        0.00000074        0.00000017
     114         -0.808888        1.000000        0.00000006        0.00000066        0.00000036        0.00000008
     115         -0.807194        1.000000        0.00000005        0.00000001        0.00000013        0.00000000
     116         -0.805412        1.000000        0.00000033        0.00000008        0.00000070        0.00000007
     117         -0.804325        1.000000        0.00000003        0.00000003        0.00000002        0.00000015
     118         -0.803287        1.000000        0.00000026        0.00000269        0.00000098        0.00000008
     119         -0.802997        1.000000        0.00000001        0.00000002        0.00000000        0.00000001
     120         -0.800560        1.000000        0.00000002        0.00000070        0.00000014        0.00000003
     121         -0.800502        1.000000        0.00000000        0.00000027        0.00000072        0.00000005
     122         -0.800449        1.000000        0.00000028        0.00000027        0.00000096        0.00000003
     123         -0.799213        1.000000        0.00000013        0.00000103        0.00000009        0.00000011
     124         -0.798220        1.000000        0.00000022        0.00000031        0.00000004        0.00000003
     125         -0.797711        1.000000        0.00000000        0.00000028        0.00000021        0.00000008
     126         -0.797446        1.000000        0.00000073        0.00000013        0.00000272        0.00000000
     127         -0.797383        1.000000        0.00000003        0.00000001        0.00000002        0.00000010
     128         -0.796904        1.000000        0.00000028        0.00000182        0.00000348        0.00000039
     129         -0.796543        1.000000        0.00000086        0.00000794        0.00001209        0.00000210
     130         -0.795711        1.000000        0.00000018        0.00000016        0.00000129        0.00000014
     131         -0.794693        1.000000        0.00000003        0.00000028        0.00000014        0.00000004
     132         -0.794445        1.000000        0.00000023        0.00000086        0.00000109        0.00000132
     133         -0.793060        1.000000        0.00000022        0.00000002        0.00000086        0.00000008
     134         -0.792121        1.000000        0.00000029        0.00000005        0.00000000        0.00000134
     135         -0.790871        1.000000        0.00000012        0.00000003        0.00000037        0.00000003
     136         -0.790453        1.000000        0.00000001        0.00000014        0.00000005        0.00000034
     137         -0.789773        1.000000        0.00000013        0.00000058        0.00000017        0.00000017
     138         -0.784623        1.000000        0.00000040        0.00000343        0.00000066        0.00000127
     139         -0.783701        1.000000        0.00000017        0.00000414        0.00000123        0.00000058
     140         -0.782456        1.000000        0.00000001        0.00000009        0.00000031        0.00000013
     141         -0.782346        1.000000        0.00000034        0.00000000        0.00000133        0.00000000
     142         -0.782225        1.000000        0.00000004        0.00000009        0.00000000        0.00000001
     143         -0.779748        1.000000        0.00000054        0.00000630        0.00000029        0.00000539
     144         -0.778020        1.000000        0.00000047        0.00000000        0.00000152        0.00000000
     145         -0.775667        1.000000        0.00000127        0.00000538        0.00000002        0.00000000
     146         -0.775574        1.000000        0.00000023        0.00000001        0.00000081        0.00000013
     147         -0.773485        1.000000        0.00000029        0.00000069        0.00000012        0.00000007
     148         -0.771682        1.000000        0.00000010        0.00000001        0.00000000        0.00000040
     149         -0.771171        1.000000        0.00000001        0.00000002        0.00000002        0.00000007
     150         -0.769329        1.000000        0.00000039        0.00000003        0.00000006        0.00000130
     151         -0.767853        1.000000        0.00000023        0.00000149        0.00000002        0.00000108
     152         -0.765905        1.000000        0.00000003        0.00000018        0.00000003        0.00000017
     153         -0.765812        1.000000        0.00000002        0.00000002        0.00000004        0.00000004
     154         -0.765500        1.000000        0.00000016        0.00000105        0.00000011        0.00000055
     155         -0.765214        1.000000        0.00000002        0.00000000        0.00000007        0.00000000
     156         -0.761186        1.000000        0.00000002        0.00000001        0.00000008        0.00000000
     157         -0.760871        1.000000        0.00000007        0.00000000        0.00000003        0.00000025
     158         -0.756637        1.000000        0.00000003        0.00000005        0.00000002        0.00000006
     159         -0.756121        1.000000        0.00000000        0.00000002        0.00000005        0.00000001
     160         -0.751854        1.000000        0.00000040        0.00000011        0.00000000        0.00000136
     161         -0.748250        1.000000        0.00000017        0.00000070        0.00000003        0.00000006
     162         -0.745177        1.000000        0.00000012        0.00000002        0.00000000        0.00000044
     163         -0.734215        1.000000        0.00000008        0.00000031        0.00000001        0.00000001
     164         -0.618945        1.000000        0.00005873        0.00004837        0.00011889        0.00005884
     165         -0.599992        1.000000        0.00008209        0.00006218        0.00005466        0.00001263
     166         -0.598668        1.000000        0.00009585        0.00008138        0.00006230        0.00002261
     167         -0.597503        1.000000        0.00001962        0.00002024        0.00002510        0.00000463
     168         -0.581225        1.000000        0.00003129        0.00001844        0.00002240        0.00000833
     169         -0.575713        1.000000        0.00005254        0.00004357        0.00000784        0.00000705
     170         -0.567339        1.000000        0.00017007        0.00007334        0.00007331        0.00004693
     171         -0.555455        1.000000        0.00235320        0.00070236        0.00001266        0.00220720
     172         -0.522448        1.000000        0.12629296        0.00089722        0.00043707        0.00042799
     173         -0.520034        1.000000        0.11061771        0.00329724        0.00312075        0.00018037
     174         -0.519170        1.000000        0.11302449        0.01130367        0.00114432        0.00176049
     175         -0.517987        1.000000        0.10360159        0.00876953        0.00333518        0.00277378
     176         -0.516897        1.000000        0.07070985        0.00718894        0.00831309        0.00070279
     177         -0.512456        1.000000        0.03718606        0.01960713        0.00639406        0.00265811
     178         -0.511791        1.000000        0.03265501        0.00799244        0.00216040        0.00141854
     179         -0.510606        1.000000        0.05109970        0.00267008        0.00443930        0.00138729
     180         -0.508554        1.000000        0.02845953        0.00600985        0.02033510        0.00268632
     181         -0.508046        1.000000        0.03983259        0.00440178        0.02045470        0.00253021
     182         -0.506790        1.000000        0.00810798        0.00282592        0.04400700        0.00083640
     183         -0.505732        1.000000        0.00003556        0.00019519        0.00061089        0.00078329
     184         -0.505178        1.000000        0.00069750        0.00252645        0.00677418        0.00802175
     185         -0.505063        1.000000        0.02399710        0.01135354        0.01237391        0.00244498
     186         -0.503896        1.000000        0.01655425        0.02074403        0.00492258        0.00635931
     187         -0.502061        1.000000        0.01422887        0.00466953        0.01236546        0.01602452
     188         -0.501992        1.000000        0.01750074        0.00253929        0.01525311        0.01655488
     189         -0.501662        1.000000        0.02668613        0.00595770        0.01868381        0.00643119
     190         -0.501441        1.000000        0.00384901        0.03509669        0.00223085        0.00334516
     191         -0.500970        1.000000        0.01381304        0.00547428        0.01585154        0.01090133
     192         -0.500745        1.000000        0.00336469        0.00519551        0.00640406        0.00692078
     193         -0.500383        1.000000        0.00185621        0.00643538        0.00178103        0.01742216
     194         -0.499849        1.000000        0.00295547        0.01828855        0.00573680        0.00488779
     195         -0.497890        1.000000        0.03970235        0.00321241        0.01888163        0.00288905
     196         -0.496796        1.000000        0.00268714        0.00005634        0.00728727        0.01744171
     197         -0.495462        1.000000        0.00357426        0.00723647        0.00623679        0.00970852
     198         -0.494778        1.000000        0.00491899        0.00180965        0.00565999        0.01480580
     199         -0.494166        1.000000        0.00300184        0.00613717        0.00176835        0.01124038
     200         -0.493796        1.000000        0.00102224        0.01445109        0.00538488        0.00063573
     201         -0.493231        1.000000        0.00220263        0.00829137        0.00172057        0.01676851
     202         -0.491572        1.000000        0.00164649        0.00096780        0.00083121        0.01330608
     203         -0.490268        1.000000        0.00045498        0.00008693        0.00003917        0.00015910
     204         -0.489176        1.000000        0.00047172        0.00049715        0.00064148        0.00078862
     205         -0.488612        1.000000        0.00372396        0.00283217        0.00384165        0.00747521
     206         -0.487197        1.000000        0.00595957        0.00083482        0.00235578        0.03120335
     207         -0.486649        1.000000        0.01537477        0.00116308        0.00295326        0.00918797
     208         -0.485649        1.000000        0.00750122        0.00037715        0.00293258        0.01600016
     209         -0.485331        1.000000        0.00485650        0.00006755        0.00199001        0.01254892
     210         -0.483614        1.000000        0.00031745        0.00098452        0.00002014        0.00076784
     211         -0.483410        1.000000        0.00022169        0.00118153        0.00035649        0.00527184
     212         -0.482700        1.000000        0.00002066        0.00026361        0.00000157        0.00001174
     213         -0.478242        1.000000        0.00192470        0.00022239        0.00115582        0.00075437
     214         -0.477434        1.000000        0.00209148        0.00187691        0.00039117        0.00029977
     215         -0.475689        1.000000        0.00004400        0.00000672        0.00004233        0.00000192
     216         -0.474753        1.000000        0.00095027        0.00051218        0.00088935        0.00021397
     217         -0.474382        1.000000        0.00075350        0.00036045        0.00053764        0.00014169
     218         -0.473250        1.000000        0.00358842        0.00024571        0.00415780        0.00020243
     219         -0.471955        1.000000        0.00038882        0.00000774        0.00060141        0.00011118
     220         -0.471530        1.000000        0.00077652        0.00120437        0.00279622        0.00011276
     221         -0.470943        1.000000        0.00324139        0.00113925        0.00431325        0.00002341
     222         -0.469712        1.000000        0.00081160        0.00049903        0.00075921        0.00001388
     223         -0.468309        1.000000        0.00507458        0.00021939        0.00361783        0.00009548
     224         -0.466898        1.000000        0.00010989        0.00001134        0.00011949        0.00000379
     225         -0.464317        1.000000        0.00021651        0.00014300        0.00002801        0.00001946
     226         -0.463119        1.000000        0.00001361        0.00000252        0.00000734        0.00000008
     227         -0.462194        1.000000        0.00049730        0.00000229        0.00021116        0.00000228
     228         -0.461396        1.000000        0.00018414        0.00001176        0.00001667        0.00002222
     229         -0.458335        1.000000        0.00026941        0.00003181        0.00000601        0.00005675
     230         -0.458070        1.000000        0.00094234        0.00000025        0.00001008        0.00031560
     231         -0.456943        1.000000        0.00153416        0.00005187        0.00090353        0.00004520
     232         -0.455401        1.000000        0.00004146        0.00006201        0.00000251        0.00000022
     233         -0.455281        1.000000        0.00004964        0.00003238        0.00000131        0.00000162
     234         -0.452180        1.000000        0.00039498        0.00006750        0.00000085        0.00001856
     235         -0.451609        1.000000        0.00002709        0.00000495        0.00000416        0.00000124
     236         -0.450077        1.000000        0.00000115        0.00000214        0.00000086        0.00000130
     237         -0.449705        1.000000        0.00184031        0.00005371        0.00061507        0.00000630
     238         -0.447990        1.000000        0.00002763        0.00000141        0.00000555        0.00001595
     239         -0.447753        1.000000        0.00001596        0.00000025        0.00000132        0.00000667
     240         -0.444803        1.000000        0.00032917        0.00001321        0.00000100        0.00003814
     241         -0.442143        1.000000        0.00004428        0.00000084        0.00000049        0.00001413
     242         -0.440745        1.000000        0.00002735        0.00000807        0.00000151        0.00000250
     243         -0.439992        1.000000        0.00000839        0.00000403        0.00000149        0.00000589
     244         -0.439655        1.000000        0.00002150        0.00000762        0.00000044        0.00000005
     245         -0.438857        1.000000        0.00011983        0.00001617        0.00000426        0.00000730
     246         -0.438725        1.000000        0.00136277        0.00027240        0.00001537        0.00001593
     247         -0.436228        1.000000        0.00120522        0.00000439        0.00040402        0.00021620
     248         -0.435549        1.000000        0.00050736        0.00000042        0.00000395        0.00004597
     249         -0.435316        1.000000        0.00089075        0.00000495        0.00000674        0.00021140
     250         -0.434706        1.000000        0.00045742        0.00000130        0.00001266        0.00005926
     251         -0.434518        1.000000        0.00031496        0.00000200        0.00007914        0.00000054
     252         -0.434359        1.000000        0.00005147        0.00001209        0.00000043        0.00000026
     253         -0.434274        1.000000        0.00004555        0.00000647        0.00000142        0.00000114
     254         -0.433705        1.000000        0.00017343        0.00000252        0.00001020        0.00000051
     255         -0.432614        1.000000        0.00044534        0.00000353        0.00000032        0.00006402
     256         -0.432271        1.000000        0.00000939        0.00000135        0.00000071        0.00002239
     257         -0.431446        1.000000        0.00016629        0.00000187        0.00000920        0.00000022
     258         -0.429597        1.000000        0.00011173        0.00000126        0.00001626        0.00000028
     259         -0.427956        1.000000        0.00038963        0.00000734        0.00001897        0.00000050