# Projected DOS for atomic kind C at iteration step i = 0, E(Fermi) =    -0.103074 a.u.
#     MO Eigenvalue [a.u.]      Occupation                 s                py                pz                px
       1         -0.961067        1.000000        0.00000000        0.00000000        0.00000000        0.00000000
       2         -0.940785        1.000000        0.00000000        0.00000000        0.00000000        0.00000000
       3         -0.936348        1.000000        0.00000000        0.00000000        0.00000000        0.00000000
       4         -0.932961        1.000000        0.00000000        0.00000000        0.00000000        0.00000000
       5         -0.928229        1.000000        0.00000000        0.00000000        0.00000000        0.00000000
       6         -0.921308        1.000000        0.00000000        0.00000000        0.00000000        0.00000000
       7         -0.920098        1.000000        0.00000000        0.00000000        0.00000000        0.00000000
       8         -0.919981        1.000000        0.00000000        0.00000000        0.00000000        0.00000000
       9         -0.913005        1.000000        0.00000141        0.00000121        0.00000022        0.00000092
      10         -0.902871        1.000000        0.00000003        0.00000000        0.00000001        0.00000004
      11         -0.900716        1.000000        0.00000000        0.00000000        0.00000000        0.00000001
      12         -0.900407        1.000000        0.00000686        0.00000050        0.00000029        0.00000735
      13         -0.899331        1.000000        0.00000000        0.00000000        0.00000000        0.00000000
      14         -0.896760        1.000000        0.00000000        0.00000000        0.00000000        0.00000001
      15         -0.893698        1.000000        0.00000001        0.00000000        0.00000000        0.00000001
      16         -0.892624        1.000000        0.00000057        0.00000043        0.00000049        0.00000061
      17         -0.890238        1.000000        0.00000003        0.00000000        0.00000001        0.00000002
      18         -0.888187        1.000000        0.00000000        0.00000000        0.00000000        0.00000000
      19         -0.885899        1.000000        0.00000000        0.00000000        0.00000000        0.00000000
      20         -0.883689        1.000000        0.00000051        0.00000005        0.00000023        0.00000028
      21         -0.883101        1.000000        0.00000001        0.00000001        0.00000001        0.00000000
      22         -0.882067        1.000000        0.00000000        0.00000000        0.00000000        0.00000000
      23         -0.881036        1.000000        0.00000001        0.00000001        0.00000001        0.00000001
      24         -0.879886        1.000000        0.00000452        0.00000001        0.00000020        0.00000339
      25         -0.879720        1.000000        0.00000001        0.00000000        0.00000002        0.00000001
      26         -0.879296        1.000000        0.00000001        0.00000000        0.00000000        0.00000001
      27         -0.879025        1.000000        0.00000272        0.00000010        0.00000018        0.00000301
      28         -0.877297        1.000000        0.00000000        0.00000000        0.00000000        0.00000001
      29         -0.875586        1.000000        0.00000000        0.00000000        0.00000000        0.00000000
      30         -0.874524        1.000000        0.00020321        0.00001226        0.00008644        0.00009956
      31         -0.873183        1.000000        0.00002805        0.00000015        0.00000265        0.00002906
      32         -0.871478        1.000000        0.00000000        0.00000001        0.00000001        0.00000001
      33         -0.871368        1.000000        0.00006897        0.00000012        0.00000415        0.00005882
      34         -0.871057        1.000000        0.00000000        0.00000000        0.00000000        0.00000001
      35         -0.871019        1.000000        0.06443466        0.00001274        0.00270762        0.04281967
      36         -0.868091        1.000000        0.00000006        0.00000000        0.00000002        0.00000007
      37         -0.867740        1.000000        0.00000000        0.00000000        0.00000000        0.00000000
      38         -0.865986        1.000000        0.00009130        0.00000003        0.00000176        0.00009662
      39         -0.865030        1.000000        0.00000000        0.00000000        0.00000001        0.00000000
      40         -0.864281        1.000000        0.00000001        0.00000001        0.00000000        0.00000000
      41         -0.861880        1.000000        0.00000004        0.00000000        0.00000000        0.00000007
      42         -0.861592        1.000000        0.00000018        0.00000026        0.00000001        0.00000020
      43         -0.861356        1.000000        0.00000059        0.00000042        0.00000272        0.00000078
      44         -0.858881        1.000000        0.05977000        0.00000137        0.00595855        0.03862087
      45         -0.858679        1.000000        0.05922320        0.00015798        0.00780508        0.03639810
      46         -0.858496        1.000000        0.00000053        0.00000000        0.00000001        0.00000025
      47         -0.858323        1.000000        0.00000022        0.00000001        0.00000007        0.00000007
      48         -0.857986        1.000000        0.00005368        0.00000001        0.00000197        0.00003220
      49         -0.856911        1.000000        0.00000148        0.00000001        0.00000006        0.00000142
      50         -0.856438        1.000000        0.01023828        0.00000912        0.00127087        0.00618956
      51         -0.856377        1.000000        0.05061235        0.00003519        0.00650100        0.03055305
      52         -0.856293        1.000000        0.00000014        0.00000000        0.00000002        0.00000009
      53         -0.854739        1.000000        0.00000090        0.00000328        0.00000095        0.00000211
      54         -0.853825        1.000000        0.00010808        0.00000021        0.00000375        0.00006215
      55         -0.852602        1.000000        0.00000257        0.00000012        0.00000083        0.00000145
      56         -0.852350        1.000000        0.00556661        0.00021232        0.00178310        0.00251688
      57         -0.850774        1.000000        0.00000003        0.00000000        0.00000000        0.00000002
      58         -0.849986        1.000000        0.00005801        0.00000035        0.00000434        0.00004846
      59         -0.848616        1.000000        0.00000296        0.00000017        0.00000321        0.00000173
      60         -0.847341        1.000000        0.00001997        0.00000164        0.00003205        0.00001221
      61         -0.844407        1.000000        0.00000005        0.00000024        0.00000032        0.00000101
      62         -0.843337        1.000000        0.00007327        0.00000191        0.00001993        0.00003451
      63         -0.842612        1.000000        0.00164220        0.00001036        0.00004195        0.00133687
      64         -0.842311        1.000000        0.00025469        0.00000170        0.00000639        0.00020667
      65         -0.842286        1.000000        0.00002006        0.00000010        0.00000076        0.00001635
      66         -0.842162        1.000000        0.00055122        0.00000394        0.00001516        0.00044407
      67         -0.840325        1.000000        0.00000316        0.00000010        0.00000086        0.00000158
      68         -0.840237        1.000000        0.00003029        0.00000602        0.00000031        0.00002045
      69         -0.839648        1.000000        0.00000222        0.00000022        0.00000004        0.00000162
      70         -0.838809        1.000000        0.00000027        0.00000001        0.00000007        0.00000022
      71         -0.837593        1.000000        0.00324525        0.00002787        0.00007320        0.00251208
      72         -0.837466        1.000000        0.00010705        0.00000225        0.00002856        0.00004812
      73         -0.837414        1.000000        0.00000174        0.00000304        0.00000514        0.00002753
      74         -0.837080        1.000000        0.00001696        0.00000105        0.00005730        0.00001381
      75         -0.836986        1.000000        0.00019860        0.00000163        0.00000657        0.00015289
      76         -0.836010        1.000000        0.00000001        0.00000009        0.00000014        0.00000012
      77         -0.835030        1.000000        0.00000326        0.00000476        0.00000192        0.00000130
      78         -0.834218        1.000000        0.00000387        0.00000570        0.00001660        0.00003900
      79         -0.833373        1.000000        0.00000001        0.00000000        0.00000004        0.00000007
      80         -0.832834        1.000000        0.00001098        0.00000667        0.00000003        0.00000522
      81         -0.830950        1.000000        0.00000242        0.00000129        0.00000276        0.00000251
      82         -0.830452        1.000000        0.00000832        0.00000004        0.00000007        0.00000699
      83         -0.830126        1.000000        0.00001269        0.00000008        0.00000001        0.00000880
      84         -0.829727        1.000000        0.00000023        0.00000025        0.00000031        0.00000023
      85         -0.829196        1.000000        0.00009142        0.00000039        0.00000016        0.00006367
      86         -0.828335        1.000000        0.01700394        0.00045164        0.00354944        0.00732561
      87         -0.828178        1.000000        0.00003458        0.00000029        0.00000004        0.00002385
      88         -0.827785        1.000000        0.06091508        0.00031083        0.00000179        0.04220567
      89         -0.827513        1.000000        0.00000125        0.00000001        0.00000001        0.00000088
      90         -0.827431        1.000000        0.00020332        0.00000519        0.00004253        0.00008761
      91         -0.826731        1.000000        0.00000613        0.00000057        0.00000023        0.00000317
      92         -0.826326        1.000000        0.00006214        0.00000029        0.00000000        0.00004196
      93         -0.825557        1.000000        0.00000040        0.00000002        0.00000009        0.00000018
      94         -0.823160        1.000000        0.00254075        0.00000769        0.00001812        0.00180314
      95         -0.822880        1.000000        0.00000346        0.00000024        0.00000005        0.00000245
      96         -0.821791        1.000000        0.00000036        0.00000004        0.00000007        0.00000012
      97         -0.820935        1.000000        0.00001206        0.00000035        0.00000236        0.00000493
      98         -0.820266        1.000000        0.00000002        0.00000013        0.00000001        0.00000001
      99         -0.819497        1.000000        0.04921544        0.00100856        0.00947996        0.02033184
     100         -0.818536        1.000000        0.00003312        0.00000066        0.00000629        0.00001356
     101         -0.817212        1.000000        0.00000027        0.00000001        0.00000013        0.00000029
     102         -0.816737        1.000000        0.00000141        0.00000002        0.00000015        0.00000075
     103         -0.816440        1.000000        0.00091622        0.00001739        0.00016892        0.00037077
     104         -0.816071        1.000000        0.00000078        0.00000172        0.00000385        0.00000055
     105         -0.816043        1.000000        0.00000002        0.00000004        0.00000021        0.00000024
     106         -0.815731        1.000000        0.00022955        0.00000433        0.00004188        0.00009245
     107         -0.814198        1.000000        0.00000179        0.00000378        0.00000866        0.00000116
     108         -0.813401        1.000000        0.00000071        0.00000122        0.00000282        0.00000041
     109         -0.812439        1.000000        0.00000013        0.00000148        0.00000096        0.00000200
     110         -0.812407        1.000000        0.00000043        0.00000034        0.00000100        0.00000018
     111         -0.811198        1.000000        0.00004947        0.00000045        0.00002426        0.00001110
     112         -0.809464        1.000000        0.00001608        0.00000004        0.00000129        0.00000934
     113         -0.809309        1.000000        0.00000334        0.00000142        0.00005374        0.00000004
     114         -0.808888        1.000000        0.00000164        0.00000000        0.00000012        0.00000096
     115         -0.807194        1.000000        0.00000013        0.00000005        0.00000130        0.00000007
     116         -0.805412        1.000000        0.00000001        0.00000030        0.00000015        0.00000001
     117         -0.804325        1.000000        0.00105260        0.00000003        0.00006289        0.00060795
     118         -0.803287        1.000000        0.00000142        0.00000000        0.00000009        0.00000081
     119         -0.802997        1.000000        0.00000002        0.00000045        0.00000009        0.00000003
     120         -0.800560        1.000000        0.00000097        0.00000001        0.00000014        0.00000038
     121         -0.800502        1.000000        0.00000009        0.00000013        0.00000022        0.00000055
     122         -0.800449        1.000000        0.00000000        0.00000000        0.00000000        0.00000001
     123         -0.799213        1.000000        0.00000599        0.00000816        0.00001638        0.00002740
     124         -0.798220        1.000000        0.00000000        0.00000058        0.00000051        0.00000036
     125         -0.797711        1.000000        0.00000001        0.00000005        0.00000007        0.00000002
     126         -0.797446        1.000000        0.00000001        0.00000002        0.00000000        0.00000003
     127         -0.797383        1.000000        0.00006941        0.00000001        0.00000379        0.00003732
     128         -0.796904        1.000000        0.00000014        0.00000035        0.00000088        0.00000072
     129         -0.796543        1.000000        0.00000116        0.00000003        0.00000017        0.00000039
     130         -0.795711        1.000000        0.00000016        0.00000125        0.00000227        0.00000014
     131         -0.794693        1.000000        0.00000712        0.00000000        0.00000037        0.00000383
     132         -0.794445        1.000000        0.07276871        0.00000284        0.00373441        0.03848535
     133         -0.793060        1.000000        0.00000079        0.00000234        0.00000565        0.00000003
     134         -0.792121        1.000000        0.00000000        0.00000000        0.00000000        0.00000003
     135         -0.790871        1.000000        0.00001053        0.00000008        0.00000130        0.00000395
     136         -0.790453        1.000000        0.00000001        0.00000000        0.00000001        0.00000000
     137         -0.789773        1.000000        0.00000000        0.00000008        0.00000004        0.00000002
     138         -0.784623        1.000000        0.00000586        0.00000344        0.00004442        0.00000821
     139         -0.783701        1.000000        0.00000205        0.00000002        0.00000001        0.00000080
     140         -0.782456        1.000000        0.00000000        0.00000001        0.00000001        0.00000002
     141         -0.782346        1.000000        0.00000001        0.00000000        0.00000000        0.00000000
     142         -0.782225        1.000000        0.00000000        0.00000000        0.00000000        0.00000000
     143         -0.779748        1.000000        0.00000000        0.00000000        0.00000000        0.00000000
     144         -0.778020        1.000000        0.00000001        0.00000001        0.00000000        0.00000000
     145         -0.775667        1.000000        0.00000001        0.00000000        0.00000000        0.00000001
     146         -0.775574        1.000000        0.00000469        0.00000005        0.00000055        0.00000152
     147         -0.773485        1.000000        0.00000000        0.00000002        0.00000002        0.00000001
     148         -0.771682        1.000000        0.00000194        0.00000390        0.00000382        0.00000921
     149         -0.771171        1.000000        0.00127509        0.00000109        0.00008545        0.00054040
     150         -0.769329        1.000000        0.00000003        0.00000000        0.00000002        0.00000001
     151         -0.767853        1.000000        0.00000318        0.00000000        0.00000052        0.00000095
     152         -0.765905        1.000000        0.00000000        0.00000051        0.00000331        0.00000163
     153         -0.765812        1.000000        0.00000000        0.00000018        0.00000069        0.00000042
     154         -0.765500        1.000000        0.00000000        0.00000335        0.00003196        0.00001100
     155         -0.765214        1.000000        0.00000004        0.00000000        0.00000001        0.00000009
     156         -0.761186        1.000000        0.00000000        0.00000000        0.00000000        0.00000000
     157         -0.760871        1.000000        0.00000002        0.00000011        0.00000001        0.00000012
     158         -0.756637        1.000000        0.00000170        0.00000001        0.00000001        0.00000058
     159         -0.756121        1.000000        0.00000006        0.00000011        0.00000013        0.00000021
     160         -0.751854        1.000000        0.00000000        0.00000010        0.00000002        0.00000002
     161         -0.748250        1.000000        0.00154834        0.00001250        0.00002230        0.00052352
     162         -0.745177        1.000000        0.00000101        0.00000003        0.00000002        0.00000031
     163         -0.734215        1.000000        0.00000000        0.00000000        0.00000000        0.00000001
     164         -0.618945        1.000000        0.43349269        0.00003939        0.00007745        0.00138146
     165         -0.599992        1.000000        0.43095350        0.00000222        0.00012853        0.00035100
     166         -0.598668        1.000000        0.43305880        0.00000394        0.00010119        0.00064492
     167         -0.597503        1.000000        0.43770239        0.00007334        0.00025676        0.00046757
     168         -0.581225        1.000000        0.42991625        0.00015765        0.00052058        0.00314561
     169         -0.575713        1.000000        0.43898741        0.00003158        0.00001854        0.00297345
     170         -0.567339        1.000000        0.42041849        0.00000045        0.00057538        0.00530557
     171         -0.555455        1.000000        0.00068691        0.00000557        0.00020889        0.00004068
     172         -0.522448        1.000000        0.00044956        0.00091407        0.00017477        0.00027830
     173         -0.520034        1.000000        0.00023378        0.00024876        0.00058908        0.00021724
     174         -0.519170        1.000000        0.00153822        0.00044770        0.00026144        0.00033060
     175         -0.517987        1.000000        0.00070088        0.00044103        0.00142149        0.00070096
     176         -0.516897        1.000000        0.00073618        0.00301551        0.00047827        0.00034741
     177         -0.512456        1.000000        0.00030204        0.00035381        0.00047791        0.00020272
     178         -0.511791        1.000000        0.00011994        0.00142746        0.01452128        0.00132242
     179         -0.510606        1.000000        0.00081377        0.01161722        0.00055202        0.00055117
     180         -0.508554        1.000000        0.00007456        0.00208543        0.00208626        0.00042222
     181         -0.508046        1.000000        0.00004203        0.00120241        0.00022432        0.00013974
     182         -0.506790        1.000000        0.00033185        0.00229724        0.00065490        0.00036859
     183         -0.505732        1.000000        0.00001397        0.00004945        0.00002163        0.00000746
     184         -0.505178        1.000000        0.00018654        0.00034532        0.00026416        0.00006724
     185         -0.505063        1.000000        0.00062643        0.00810852        0.00022577        0.00014625
     186         -0.503896        1.000000        0.00009241        0.00115841        0.00103976        0.00031435
     187         -0.502061        1.000000        0.00030880        0.00098425        0.00085205        0.00018302
     188         -0.501992        1.000000        0.00015819        0.00160910        0.00121632        0.00026366
     189         -0.501662        1.000000        0.00018247        0.00056684        0.00091411        0.00023723
     190         -0.501441        1.000000        0.00015358        0.00004356        0.00101640        0.00031630
     191         -0.500970        1.000000        0.00018324        0.00027261        0.00064135        0.00019636
     192         -0.500745        1.000000        0.00007409        0.00181613        0.00198152        0.00033568
     193         -0.500383        1.000000        0.00031553        0.00044857        0.00050069        0.00016609
     194         -0.499849        1.000000        0.00012493        0.00042530        0.00028309        0.00015877
     195         -0.497890        1.000000        0.00054356        0.00137241        0.00480171        0.00040216
     196         -0.496796        1.000000        0.00002992        0.00052539        0.00018362        0.00006219
     197         -0.495462        1.000000        0.00014493        0.00013237        0.00082326        0.00006512
     198         -0.494778        1.000000        0.00020777        0.00114808        0.00129215        0.00004723
     199         -0.494166        1.000000        0.00022402        0.00046859        0.00058734        0.00017518
     200         -0.493796        1.000000        0.00020036        0.00173785        0.00173115        0.00006547
     201         -0.493231        1.000000        0.00025368        0.00093182        0.00024853        0.00017434
     202         -0.491572        1.000000        0.00001092        0.00045448        0.00017974        0.00010901
     203         -0.490268        1.000000        0.00000122        0.00000475        0.00001280        0.00000075
     204         -0.489176        1.000000        0.00003813        0.00070100        0.00412183        0.00002672
     205         -0.488612        1.000000        0.00018144        0.00391832        0.01797051        0.00005756
     206         -0.487197        1.000000        0.00028706        0.00151666        0.00306628        0.00011158
     207         -0.486649        1.000000        0.00013662        0.00083053        0.00081752        0.00002897
     208         -0.485649        1.000000        0.00002527        0.00006011        0.00139591        0.00031362
     209         -0.485331        1.000000        0.00009436        0.00025771        0.00230694        0.00004153
     210         -0.483614        1.000000        0.00003367        0.00017750        0.00023856        0.00000662
     211         -0.483410        1.000000        0.00024555        0.00139685        0.00528267        0.00002169
     212         -0.482700        1.000000        0.00000259        0.00002396        0.00003940        0.00001227
     213         -0.478242        1.000000        0.00005104        0.01200091        0.03514013        0.00751439
     214         -0.477434        1.000000        0.00007620        0.01464124        0.03569887        0.00662758
     215         -0.475689        1.000000        0.00000001        0.00000646        0.00001207        0.00000215
     216         -0.474753        1.000000        0.00009307        0.02299065        0.00921787        0.00213240
     217         -0.474382        1.000000        0.00003443        0.02050507        0.00424235        0.00088690
     218         -0.473250        1.000000        0.00017673        0.04069442        0.00770881        0.00415989
     219         -0.471955        1.000000        0.00000215        0.00026483        0.00009576        0.00004182
     220         -0.471530        1.000000        0.00004935        0.01196768        0.03863873        0.00864961
     221         -0.470943        1.000000        0.00023941        0.03643005        0.00696493        0.00238126
     222         -0.469712        1.000000        0.00002263        0.00602982        0.00201974        0.00038511
     223         -0.468309        1.000000        0.00000733        0.04801722        0.00909033        0.00295527
     224         -0.466898        1.000000        0.00001801        0.00088773        0.00007623        0.00004619
     225         -0.464317        1.000000        0.00000019        0.00000457        0.00000086        0.00000133
     226         -0.463119        1.000000        0.00000017        0.00009361        0.00000171        0.00000036
     227         -0.462194        1.000000        0.00000023        0.00001356        0.00000040        0.00000220
     228         -0.461396        1.000000        0.00000043        0.00026624        0.00003959        0.00000016
     229         -0.458335        1.000000        0.00008959        0.02594191        0.03614735        0.00004715
     230         -0.458070        1.000000        0.00000199        0.00363633        0.00004028        0.00006762
     231         -0.456943        1.000000        0.00008919        0.06200870        0.00002202        0.00236618
     232         -0.455401        1.000000        0.00000075        0.00000134        0.00000098        0.00000029
     233         -0.455281        1.000000        0.00000007        0.00001225        0.00000084        0.00000138
     234         -0.452180        1.000000        0.00000018        0.00000467        0.00000018        0.00000055
     235         -0.451609        1.000000        0.00000001        0.00000008        0.00000030        0.00000014
     236         -0.450077        1.000000        0.00000001        0.00000020        0.00000282        0.00000118
     237         -0.449705        1.000000        0.00007238        0.00212738        0.04331233        0.01728533
     238         -0.447990        1.000000        0.00000272        0.00006557        0.00003832        0.00001646
     239         -0.447753        1.000000        0.00000375        0.00010769        0.00024573        0.00000991
     240         -0.444803        1.000000        0.00000034        0.00000398        0.00000269        0.00000121
     241         -0.442143        1.000000        0.00001385        0.00028056        0.00404761        0.00011630
     242         -0.440745        1.000000        0.00000013        0.00000047        0.00000325        0.00000037
     243         -0.439992        1.000000        0.00001504        0.04406347        0.03067154        0.00001461
     244         -0.439655        1.000000        0.00000060        0.00000699        0.00000015        0.00000527
     245         -0.438857        1.000000        0.00000037        0.00001843        0.00000561        0.00000197
     246         -0.438725        1.000000        0.00000279        0.00008726        0.00018303        0.00000867
     247         -0.436228        1.000000        0.00002559        0.00060698        0.00013223        0.00012049
     248         -0.435549        1.000000        0.00000029        0.00080422        0.00026853        0.00001779
     249         -0.435316        1.000000        0.00000022        0.00000077        0.00000060        0.00000048
     250         -0.434706        1.000000        0.00006737        0.06549062        0.01028277        0.00058215
     251         -0.434518        1.000000        0.00000014        0.00000150        0.00000031        0.00000228
     252         -0.434359        1.000000        0.00000397        0.00011143        0.00000676        0.00001668
     253         -0.434274        1.000000        0.00001473        0.00028579        0.00001264        0.00008082
     254         -0.433705        1.000000        0.00000098        0.00000010        0.00000338        0.00000616
     255         -0.432614        1.000000        0.00000294        0.00554387        0.04764285        0.00343265
     256         -0.432271        1.000000        0.00000614        0.00003364        0.00001498        0.00003395
     257         -0.431446        1.000000        0.00000065        0.00000074        0.00002517        0.00002693
     258         -0.429597        1.000000        0.00002320        0.00011411        0.00337566        0.00244986
     259         -0.427956        1.000000        0.00000247        0.00001074        0.00011699        0.00007594