# Projected DOS for atomic kind C at iteration step i = 0, E(Fermi) =    -0.101588 a.u.
#     MO Eigenvalue [a.u.]      Occupation                 s                py                pz                px
       1         -0.961067        1.000000        0.00000000        0.00000000        0.00000000        0.00000000
       2         -0.940785        1.000000        0.00000000        0.00000000        0.00000000        0.00000000
       3         -0.936349        1.000000        0.00000000        0.00000000        0.00000000        0.00000000
       4         -0.932960        1.000000        0.00000000        0.00000000        0.00000000        0.00000000
       5         -0.928227        1.000000        0.00000000        0.00000000        0.00000000        0.00000000
       6         -0.921307        1.000000        0.00000000        0.00000000        0.00000000        0.00000000
       7         -0.920097        1.000000        0.00000000        0.00000000        0.00000000        0.00000000
       8         -0.919982        1.000000        0.00000000        0.00000000        0.00000000        0.00000000
       9         -0.913005        1.000000        0.00000141        0.00000121        0.00000022        0.00000092
      10         -0.902861        1.000000        0.00000003        0.00000000        0.00000001        0.00000004
      11         -0.900717        1.000000        0.00000000        0.00000000        0.00000000        0.00000001
      12         -0.900407        1.000000        0.00000686        0.00000050        0.00000029        0.00000735
      13         -0.899332        1.000000        0.00000000        0.00000000        0.00000000        0.00000000
      14         -0.897044        1.000000        0.00000000        0.00000000        0.00000000        0.00000001
      15         -0.893700        1.000000        0.00000001        0.00000000        0.00000000        0.00000001
      16         -0.892627        1.000000        0.00000057        0.00000043        0.00000049        0.00000061
      17         -0.890240        1.000000        0.00000003        0.00000000        0.00000001        0.00000002
      18         -0.888188        1.000000        0.00000000        0.00000000        0.00000000        0.00000000
      19         -0.885899        1.000000        0.00000000        0.00000000        0.00000000        0.00000000
      20         -0.883688        1.000000        0.00000051        0.00000005        0.00000023        0.00000028
      21         -0.883099        1.000000        0.00000001        0.00000001        0.00000001        0.00000000
      22         -0.882100        1.000000        0.00000000        0.00000000        0.00000000        0.00000000
      23         -0.881034        1.000000        0.00000001        0.00000001        0.00000001        0.00000001
      24         -0.879887        1.000000        0.00000452        0.00000002        0.00000020        0.00000339
      25         -0.879725        1.000000        0.00000001        0.00000000        0.00000002        0.00000001
      26         -0.879315        1.000000        0.00000001        0.00000000        0.00000000        0.00000001
      27         -0.879030        1.000000        0.00000272        0.00000010        0.00000017        0.00000301
      28         -0.877295        1.000000        0.00000000        0.00000000        0.00000000        0.00000001
      29         -0.875586        1.000000        0.00000000        0.00000000        0.00000000        0.00000000
      30         -0.874524        1.000000        0.00020333        0.00001227        0.00008650        0.00009961
      31         -0.873184        1.000000        0.00002773        0.00000014        0.00000263        0.00002873
      32         -0.871492        1.000000        0.00000000        0.00000001        0.00000001        0.00000001
      33         -0.871370        1.000000        0.00006854        0.00000012        0.00000414        0.00005866
      34         -0.871077        1.000000        0.00000000        0.00000000        0.00000000        0.00000001
      35         -0.871013        1.000000        0.06443845        0.00001276        0.00270778        0.04282064
      36         -0.868087        1.000000        0.00000006        0.00000000        0.00000002        0.00000007
      37         -0.867741        1.000000        0.00000000        0.00000000        0.00000000        0.00000000
      38         -0.865982        1.000000        0.00009136        0.00000003        0.00000176        0.00009668
      39         -0.864376        1.000000        0.00000000        0.00000000        0.00000001        0.00000000
      40         -0.864288        1.000000        0.00000001        0.00000001        0.00000000        0.00000000
      41         -0.861882        1.000000        0.00000004        0.00000000        0.00000000        0.00000007
      42         -0.861540        1.000000        0.00000018        0.00000026        0.00000001        0.00000020
      43         -0.861360        1.000000        0.00000060        0.00000042        0.00000272        0.00000078
      44         -0.858888        1.000000        0.05976738        0.00000124        0.00595668        0.03862372
      45         -0.858674        1.000000        0.05922399        0.00015815        0.00780553        0.03639221
      46         -0.858637        1.000000        0.00000487        0.00000000        0.00000040        0.00000269
      47         -0.858325        1.000000        0.00000022        0.00000001        0.00000007        0.00000007
      48         -0.858052        1.000000        0.00005409        0.00000000        0.00000201        0.00003231
      49         -0.856919        1.000000        0.00000149        0.00000001        0.00000006        0.00000143
      50         -0.856435        1.000000        0.01521688        0.00001297        0.00190080        0.00919738
      51         -0.856382        1.000000        0.04562886        0.00003131        0.00587066        0.02754414
      52         -0.856290        1.000000        0.00000012        0.00000000        0.00000002        0.00000007
      53         -0.854739        1.000000        0.00000091        0.00000328        0.00000095        0.00000212
      54         -0.853853        1.000000        0.00010627        0.00000028        0.00000366        0.00006140
      55         -0.852608        1.000000        0.00000283        0.00000013        0.00000091        0.00000157
      56         -0.852367        1.000000        0.00555674        0.00021179        0.00178086        0.00251252
      57         -0.851533        1.000000        0.00000002        0.00000000        0.00000000        0.00000002
      58         -0.849987        1.000000        0.00005878        0.00000037        0.00000431        0.00004914
      59         -0.848677        1.000000        0.00000405        0.00000024        0.00000441        0.00000237
      60         -0.847567        1.000000        0.00001979        0.00000155        0.00003040        0.00001207
      61         -0.844420        1.000000        0.00000005        0.00000024        0.00000033        0.00000105
      62         -0.844343        1.000000        0.00026770        0.00000965        0.00000491        0.00021345
      63         -0.843339        1.000000        0.00007283        0.00000189        0.00001984        0.00003429
      64         -0.842496        1.000000        0.00003671        0.00000017        0.00000104        0.00003001
      65         -0.842405        1.000000        0.00146359        0.00000555        0.00003845        0.00119572
      66         -0.842284        1.000000        0.00016170        0.00000060        0.00000409        0.00013225
      67         -0.841941        1.000000        0.00047145        0.00000235        0.00001446        0.00037933
      68         -0.840325        1.000000        0.00000311        0.00000010        0.00000085        0.00000155
      69         -0.839660        1.000000        0.00000002        0.00000000        0.00000000        0.00000001
      70         -0.838811        1.000000        0.00000027        0.00000001        0.00000007        0.00000023
      71         -0.837701        1.000000        0.00337294        0.00003212        0.00007517        0.00261005
      72         -0.837471        1.000000        0.00010400        0.00000215        0.00002785        0.00004680
      73         -0.837420        1.000000        0.00000186        0.00000303        0.00000507        0.00002793
      74         -0.837095        1.000000        0.00001333        0.00000108        0.00005837        0.00001107
      75         -0.836990        1.000000        0.00016578        0.00000142        0.00000536        0.00012756
      76         -0.836262        1.000000        0.00000002        0.00000009        0.00000027        0.00000017
      77         -0.835068        1.000000        0.00000211        0.00000287        0.00000148        0.00000091
      78         -0.834943        1.000000        0.00000120        0.00000190        0.00000080        0.00000081
      79         -0.834422        1.000000        0.00000380        0.00000541        0.00001668        0.00003883
      80         -0.832989        1.000000        0.00003050        0.00000876        0.00000076        0.00001403
      81         -0.830943        1.000000        0.00000322        0.00000131        0.00000273        0.00000307
      82         -0.830701        1.000000        0.00001252        0.00000009        0.00000001        0.00000889
      83         -0.830366        1.000000        0.00000864        0.00000004        0.00000008        0.00000714
      84         -0.829728        1.000000        0.00000030        0.00000025        0.00000030        0.00000028
      85         -0.829177        1.000000        0.00007789        0.00000039        0.00000021        0.00005414
      86         -0.828929        1.000000        0.00005377        0.00000039        0.00000002        0.00003704
      87         -0.828376        1.000000        0.01694260        0.00044870        0.00354271        0.00729982
      88         -0.827781        1.000000        0.06104372        0.00031094        0.00000184        0.04229712
      89         -0.827633        1.000000        0.00000146        0.00000001        0.00000001        0.00000103
      90         -0.827471        1.000000        0.00001370        0.00000052        0.00000182        0.00000616
      91         -0.827359        1.000000        0.00018050        0.00000461        0.00003778        0.00007768
      92         -0.825573        1.000000        0.00000042        0.00000003        0.00000009        0.00000019
      93         -0.823285        1.000000        0.00000998        0.00000037        0.00000011        0.00000708
      94         -0.823140        1.000000        0.00247080        0.00000761        0.00001758        0.00175109
      95         -0.821820        1.000000        0.00000012        0.00000006        0.00000002        0.00000003
      96         -0.821012        1.000000        0.00001165        0.00000034        0.00000228        0.00000474
      97         -0.820459        1.000000        0.00000002        0.00000014        0.00000001        0.00000001
      98         -0.819502        1.000000        0.04937779        0.00101215        0.00951019        0.02039966
      99         -0.819084        1.000000        0.00000292        0.00000005        0.00000044        0.00000137
     100         -0.818522        1.000000        0.00003716        0.00000074        0.00000706        0.00001520
     101         -0.817990        1.000000        0.00000091        0.00000000        0.00000021        0.00000086
     102         -0.816376        1.000000        0.00076672        0.00001453        0.00014119        0.00031014
     103         -0.815670        1.000000        0.00027913        0.00000525        0.00005087        0.00011235
     104         -0.815242        1.000000        0.00000128        0.00000306        0.00000685        0.00000090
     105         -0.814179        1.000000        0.00000137        0.00000299        0.00000685        0.00000090
     106         -0.813138        1.000000        0.00000013        0.00000149        0.00000093        0.00000194
     107         -0.813118        1.000000        0.00000031        0.00000051        0.00000117        0.00000018
     108         -0.811836        1.000000        0.00000132        0.00000052        0.00000202        0.00000047
     109         -0.811061        1.000000        0.00004743        0.00000028        0.00002337        0.00001149
     110         -0.810555        1.000000        0.00000204        0.00000001        0.00000004        0.00000117
     111         -0.809407        1.000000        0.00001599        0.00000004        0.00000131        0.00000922
     112         -0.809270        1.000000        0.00000414        0.00000137        0.00005283        0.00000010
     113         -0.808879        1.000000        0.00000203        0.00000000        0.00000015        0.00000119
     114         -0.807230        1.000000        0.00000013        0.00000005        0.00000134        0.00000006
     115         -0.806701        1.000000        0.00000000        0.00000027        0.00000052        0.00000037
     116         -0.805393        1.000000        0.00000001        0.00000026        0.00000015        0.00000002
     117         -0.804313        1.000000        0.00105286        0.00000003        0.00006289        0.00060807
     118         -0.804312        1.000000        0.00000081        0.00000005        0.00000011        0.00000052
     119         -0.803282        1.000000        0.00000148        0.00000000        0.00000009        0.00000084
     120         -0.802996        1.000000        0.00000002        0.00000045        0.00000009        0.00000003
     121         -0.801715        1.000000        0.00000000        0.00000001        0.00000000        0.00000001
     122         -0.800560        1.000000        0.00000096        0.00000001        0.00000014        0.00000037
     123         -0.800539        1.000000        0.00000000        0.00000001        0.00000002        0.00000005
     124         -0.799985        1.000000        0.00000000        0.00000034        0.00000029        0.00000017
     125         -0.798950        1.000000        0.00000001        0.00000001        0.00000000        0.00000002
     126         -0.797284        1.000000        0.00007484        0.00000001        0.00000406        0.00004023
     127         -0.797085        1.000000        0.00000089        0.00000117        0.00000485        0.00000456
     128         -0.796957        1.000000        0.00000008        0.00000013        0.00000030        0.00000037
     129         -0.796547        1.000000        0.00000117        0.00000003        0.00000017        0.00000040
     130         -0.796191        1.000000        0.00000252        0.00000333        0.00001549        0.00001499
     131         -0.795377        1.000000        0.00000177        0.00000408        0.00001046        0.00000895
     132         -0.794440        1.000000        0.07277711        0.00000284        0.00373461        0.03849093
     133         -0.793500        1.000000        0.00000014        0.00000005        0.00000015        0.00000005
     134         -0.792717        1.000000        0.00000088        0.00000286        0.00000419        0.00000181
     135         -0.790849        1.000000        0.00001048        0.00000008        0.00000129        0.00000393
     136         -0.790122        1.000000        0.00000053        0.00000000        0.00000002        0.00000024
     137         -0.789857        1.000000        0.00000007        0.00000000        0.00000000        0.00000003
     138         -0.787424        1.000000        0.00000000        0.00000000        0.00000003        0.00000000
     139         -0.783348        1.000000        0.00000431        0.00000368        0.00003668        0.00000558
     140         -0.783199        1.000000        0.00000069        0.00000070        0.00000588        0.00000082
     141         -0.782324        1.000000        0.00000015        0.00000039        0.00000034        0.00000084
     142         -0.781164        1.000000        0.00000160        0.00000001        0.00000001        0.00000061
     143         -0.781101        1.000000        0.00000001        0.00000001        0.00000000        0.00000000
     144         -0.780720        1.000000        0.00000133        0.00000354        0.00000310        0.00000744
     145         -0.780142        1.000000        0.00000000        0.00000002        0.00000001        0.00000001
     146         -0.778116        1.000000        0.00000000        0.00000003        0.00000000        0.00000000
     147         -0.776714        1.000000        0.00000001        0.00000000        0.00000001        0.00000004
     148         -0.775622        1.000000        0.00000471        0.00000005        0.00000056        0.00000152
     149         -0.775136        1.000000        0.00000000        0.00000002        0.00000000        0.00000002
     150         -0.771621        1.000000        0.00000003        0.00000000        0.00000001        0.00000005
     151         -0.771170        1.000000        0.00127480        0.00000109        0.00008543        0.00054031
     152         -0.767770        1.000000        0.00000321        0.00000000        0.00000051        0.00000098
     153         -0.765769        1.000000        0.00000000        0.00000010        0.00000003        0.00000014
     154         -0.765391        1.000000        0.00000000        0.00000000        0.00000001        0.00000000
     155         -0.765055        1.000000        0.00000001        0.00000014        0.00000000        0.00000003
     156         -0.761780        1.000000        0.00000001        0.00000446        0.00002938        0.00001164
     157         -0.760821        1.000000        0.00000000        0.00000000        0.00000000        0.00000000
     158         -0.758131        1.000000        0.00000001        0.00000001        0.00000004        0.00000012
     159         -0.757792        1.000000        0.00000002        0.00000005        0.00000006        0.00000009
     160         -0.757088        1.000000        0.00000000        0.00000000        0.00000006        0.00000005
     161         -0.747654        1.000000        0.00154092        0.00001261        0.00002228        0.00051696
     162         -0.746151        1.000000        0.00000105        0.00000003        0.00000002        0.00000033
     163         -0.722866        1.000000        0.00000027        0.00000000        0.00000001        0.00000008
     164         -0.618944        1.000000        0.43349482        0.00003947        0.00007744        0.00138177
     165         -0.599994        1.000000        0.43094416        0.00000225        0.00012847        0.00035024
     166         -0.598666        1.000000        0.43308397        0.00000401        0.00010148        0.00064482
     167         -0.597516        1.000000        0.43770294        0.00007347        0.00025858        0.00046812
     168         -0.581229        1.000000        0.42989244        0.00015781        0.00052075        0.00314596
     169         -0.575711        1.000000        0.43900453        0.00003161        0.00001839        0.00297010
     170         -0.567332        1.000000        0.42041315        0.00000046        0.00057548        0.00530568
     171         -0.555431        1.000000        0.00069154        0.00000546        0.00020806        0.00004040
     172         -0.523151        1.000000        0.00037969        0.00107750        0.00036330        0.00027549
     173         -0.519923        1.000000        0.00082064        0.00035995        0.00063056        0.00019953
     174         -0.519487        1.000000        0.00084329        0.00012496        0.00027058        0.00010723
     175         -0.517871        1.000000        0.00077148        0.00020317        0.00099894        0.00084196
     176         -0.514930        1.000000        0.00055956        0.00436567        0.00050259        0.00054481
     177         -0.512496        1.000000        0.00054732        0.00364815        0.00554145        0.00040506
     178         -0.511049        1.000000        0.00057410        0.00110731        0.01092488        0.00164884
     179         -0.509344        1.000000        0.00020634        0.00374856        0.00116763        0.00028679
     180         -0.508556        1.000000        0.00052297        0.00151880        0.00021445        0.00021311
     181         -0.508175        1.000000        0.00007989        0.00045145        0.00018129        0.00006057
     182         -0.507781        1.000000        0.00013654        0.00731683        0.00017818        0.00002144
     183         -0.506482        1.000000        0.00016382        0.00499061        0.00077315        0.00016878
     184         -0.506317        1.000000        0.00019691        0.00038261        0.00029919        0.00022187
     185         -0.505956        1.000000        0.00027468        0.00185787        0.00031346        0.00021557
     186         -0.505691        1.000000        0.00000409        0.00010369        0.00002516        0.00000406
     187         -0.504808        1.000000        0.00017490        0.00074538        0.00044488        0.00004824
     188         -0.502671        1.000000        0.00008005        0.00044065        0.00211457        0.00053564
     189         -0.502370        1.000000        0.00048609        0.00277113        0.00169239        0.00053687
     190         -0.501040        1.000000        0.00018303        0.00262522        0.00098606        0.00011224
     191         -0.500854        1.000000        0.00017509        0.00160413        0.00058257        0.00009190
     192         -0.500300        1.000000        0.00010451        0.00126603        0.00172808        0.00028126
     193         -0.500245        1.000000        0.00025170        0.00012872        0.00034745        0.00024412
     194         -0.498494        1.000000        0.00019569        0.00056393        0.00042848        0.00012068
     195         -0.497831        1.000000        0.00033380        0.00048454        0.00239770        0.00010058
     196         -0.497623        1.000000        0.00055605        0.00110102        0.00383952        0.00045166
     197         -0.496880        1.000000        0.00022529        0.00026130        0.00070059        0.00021250
     198         -0.495288        1.000000        0.00002221        0.00045787        0.00017600        0.00003021
     199         -0.494552        1.000000        0.00012167        0.00118004        0.00118354        0.00002259
     200         -0.494044        1.000000        0.00008004        0.00067995        0.00039952        0.00010177
     201         -0.491981        1.000000        0.00003452        0.00030086        0.00043964        0.00005055
     202         -0.491159        1.000000        0.00029527        0.00062450        0.00087112        0.00005844
     203         -0.490258        1.000000        0.00000467        0.00000976        0.00000241        0.00000066
     204         -0.489262        1.000000        0.00002715        0.00152549        0.00852939        0.00004272
     205         -0.488992        1.000000        0.00001616        0.00063242        0.00309290        0.00001104
     206         -0.487817        1.000000        0.00044596        0.00444577        0.01076792        0.00010995
     207         -0.487108        1.000000        0.00008226        0.00033939        0.00024389        0.00003025
     208         -0.485806        1.000000        0.00016247        0.00019817        0.00462563        0.00003728
     209         -0.485397        1.000000        0.00001881        0.00016334        0.00191244        0.00040644
     210         -0.483682        1.000000        0.00007502        0.00053096        0.00086253        0.00001162
     211         -0.483514        1.000000        0.00018290        0.00128215        0.00415772        0.00001643
     212         -0.482706        1.000000        0.00000252        0.00002400        0.00004105        0.00001250
     213         -0.478092        1.000000        0.00006593        0.01077997        0.03559510        0.00775774
     214         -0.477463        1.000000        0.00007179        0.01416801        0.03610647        0.00674168
     215         -0.475690        1.000000        0.00000001        0.00000369        0.00001112        0.00000218
     216         -0.474693        1.000000        0.00008442        0.01484220        0.00656853        0.00159112
     217         -0.474294        1.000000        0.00004998        0.02837424        0.00676688        0.00144280
     218         -0.473299        1.000000        0.00016368        0.04182847        0.00701627        0.00385499
     219         -0.471952        1.000000        0.00000218        0.00023744        0.00009457        0.00003917
     220         -0.471551        1.000000        0.00005546        0.01008920        0.04015985        0.00912518
     221         -0.471036        1.000000        0.00022969        0.03739452        0.00723290        0.00238731
     222         -0.469723        1.000000        0.00001777        0.00527518        0.00184588        0.00032960
     223         -0.468615        1.000000        0.00000347        0.05050985        0.00795403        0.00256618
     224         -0.466901        1.000000        0.00001715        0.00083469        0.00006989        0.00004248
     225         -0.464317        1.000000        0.00000019        0.00000462        0.00000092        0.00000134
     226         -0.463121        1.000000        0.00000018        0.00009177        0.00000163        0.00000032
     227         -0.462194        1.000000        0.00000023        0.00001365        0.00000041        0.00000222
     228         -0.461395        1.000000        0.00000043        0.00026679        0.00003991        0.00000015
     229         -0.458360        1.000000        0.00009051        0.02594289        0.03616534        0.00004640
     230         -0.458073        1.000000        0.00000186        0.00349143        0.00003946        0.00006447
     231         -0.456941        1.000000        0.00008847        0.06213733        0.00002025        0.00236172
     232         -0.455404        1.000000        0.00000075        0.00000131        0.00000100        0.00000028
     233         -0.455284        1.000000        0.00000007        0.00001230        0.00000083        0.00000139
     234         -0.452188        1.000000        0.00000015        0.00000417        0.00000017        0.00000047
     235         -0.451625        1.000000        0.00000001        0.00000010        0.00000027        0.00000013
     236         -0.450179        1.000000        0.00000001        0.00000017        0.00000178        0.00000077
     237         -0.449711        1.000000        0.00007257        0.00211605        0.04332258        0.01728683
     238         -0.448023        1.000000        0.00000291        0.00005982        0.00003078        0.00001725
     239         -0.447750        1.000000        0.00000369        0.00011423        0.00025284        0.00000933
     240         -0.444817        1.000000        0.00000028        0.00000337        0.00000231        0.00000103
     241         -0.442141        1.000000        0.00001395        0.00027973        0.00404445        0.00011586
     242         -0.440744        1.000000        0.00000013        0.00000045        0.00000323        0.00000037
     243         -0.439983        1.000000        0.00001513        0.04406387        0.03065191        0.00001439
     244         -0.439655        1.000000        0.00000060        0.00000700        0.00000015        0.00000528
     245         -0.438856        1.000000        0.00000040        0.00000721        0.00002248        0.00000094
     246         -0.438847        1.000000        0.00000246        0.00010561        0.00017140        0.00000842
     247         -0.436123        1.000000        0.00002691        0.00065448        0.00014713        0.00012669
     248         -0.435576        1.000000        0.00000043        0.00072704        0.00024742        0.00001753
     249         -0.435328        1.000000        0.00000022        0.00000080        0.00000059        0.00000050
     250         -0.434701        1.000000        0.00006742        0.06549420        0.01030928        0.00058493
     251         -0.434515        1.000000        0.00000014        0.00000156        0.00000032        0.00000231
     252         -0.434359        1.000000        0.00000397        0.00011894        0.00000766        0.00001670
     253         -0.434274        1.000000        0.00001480        0.00030223        0.00001438        0.00008108
     254         -0.433705        1.000000        0.00000097        0.00000010        0.00000337        0.00000616
     255         -0.432607        1.000000        0.00000288        0.00555765        0.04761624        0.00342728
     256         -0.432270        1.000000        0.00000615        0.00003416        0.00001455        0.00003398
     257         -0.431447        1.000000        0.00000065        0.00000073        0.00002512        0.00002686
     258         -0.429597        1.000000        0.00002317        0.00011433        0.00337614        0.00244941
     259         -0.427958        1.000000        0.00000248        0.00001079        0.00011751        0.00007633