# Projected DOS for atomic kind H at iteration step i = 0, E(Fermi) =    -0.103074 a.u.
#     MO Eigenvalue [a.u.]      Occupation                 s
       1         -0.961067        1.000000        0.28136098
       2         -0.940785        1.000000        0.24792699
       3         -0.936348        1.000000        0.27728785
       4         -0.932961        1.000000        0.23762419
       5         -0.928229        1.000000        0.27842117
       6         -0.921308        1.000000        0.26804989
       7         -0.920098        1.000000        0.26103547
       8         -0.919981        1.000000        0.24538918
       9         -0.913005        1.000000        0.27919844
      10         -0.902871        1.000000        0.28099808
      11         -0.900716        1.000000        0.29879702
      12         -0.900407        1.000000        0.25541134
      13         -0.899331        1.000000        0.25888381
      14         -0.896760        1.000000        0.28994723
      15         -0.893698        1.000000        0.21763117
      16         -0.892624        1.000000        0.28396042
      17         -0.890238        1.000000        0.27270911
      18         -0.888187        1.000000        0.26786867
      19         -0.885899        1.000000        0.23804362
      20         -0.883689        1.000000        0.25779505
      21         -0.883101        1.000000        0.26617330
      22         -0.882067        1.000000        0.23570172
      23         -0.881036        1.000000        0.27324951
      24         -0.879886        1.000000        0.24734093
      25         -0.879720        1.000000        0.29121245
      26         -0.879296        1.000000        0.26572844
      27         -0.879025        1.000000        0.26590236
      28         -0.877297        1.000000        0.27093540
      29         -0.875586        1.000000        0.25899522
      30         -0.874524        1.000000        0.26561456
      31         -0.873183        1.000000        0.26687955
      32         -0.871478        1.000000        0.26769921
      33         -0.871368        1.000000        0.25526623
      34         -0.871057        1.000000        0.24946096
      35         -0.871019        1.000000        0.27778179
      36         -0.868091        1.000000        0.25504311
      37         -0.867740        1.000000        0.24839947
      38         -0.865986        1.000000        0.27921512
      39         -0.865030        1.000000        0.26303362
      40         -0.864281        1.000000        0.26991155
      41         -0.861880        1.000000        0.27054509
      42         -0.861592        1.000000        0.24971942
      43         -0.861356        1.000000        0.26222932
      44         -0.858881        1.000000        0.28173253
      45         -0.858679        1.000000        0.28162720
      46         -0.858496        1.000000        0.27912908
      47         -0.858323        1.000000        0.23912183
      48         -0.857986        1.000000        0.24103977
      49         -0.856911        1.000000        0.23164525
      50         -0.856438        1.000000        0.26928140
      51         -0.856377        1.000000        0.27933327
      52         -0.856293        1.000000        0.26951441
      53         -0.854739        1.000000        0.26116758
      54         -0.853825        1.000000        0.23304093
      55         -0.852602        1.000000        0.26843565
      56         -0.852350        1.000000        0.25670531
      57         -0.850774        1.000000        0.28005854
      58         -0.849986        1.000000        0.25652033
      59         -0.848616        1.000000        0.24028401
      60         -0.847341        1.000000        0.25757387
      61         -0.844407        1.000000        0.26065235
      62         -0.843337        1.000000        0.23287704
      63         -0.842612        1.000000        0.25181408
      64         -0.842311        1.000000        0.25707122
      65         -0.842286        1.000000        0.23171497
      66         -0.842162        1.000000        0.25866340
      67         -0.840325        1.000000        0.25904682
      68         -0.840237        1.000000        0.25669772
      69         -0.839648        1.000000        0.24014931
      70         -0.838809        1.000000        0.25196414
      71         -0.837593        1.000000        0.24388332
      72         -0.837466        1.000000        0.25591107
      73         -0.837414        1.000000        0.26231930
      74         -0.837080        1.000000        0.26454957
      75         -0.836986        1.000000        0.23846848
      76         -0.836010        1.000000        0.24669506
      77         -0.835030        1.000000        0.26015354
      78         -0.834218        1.000000        0.26050302
      79         -0.833373        1.000000        0.25665955
      80         -0.832834        1.000000        0.24552458
      81         -0.830950        1.000000        0.24773044
      82         -0.830452        1.000000        0.28176013
      83         -0.830126        1.000000        0.26541573
      84         -0.829727        1.000000        0.22175222
      85         -0.829196        1.000000        0.26491973
      86         -0.828335        1.000000        0.24554504
      87         -0.828178        1.000000        0.25045085
      88         -0.827785        1.000000        0.28042013
      89         -0.827513        1.000000        0.22560926
      90         -0.827431        1.000000        0.24162658
      91         -0.826731        1.000000        0.21128110
      92         -0.826326        1.000000        0.23871560
      93         -0.825557        1.000000        0.23037499
      94         -0.823160        1.000000        0.25658520
      95         -0.822880        1.000000        0.25996224
      96         -0.821791        1.000000        0.23761738
      97         -0.820935        1.000000        0.24102203
      98         -0.820266        1.000000        0.23161912
      99         -0.819497        1.000000        0.23774429
     100         -0.818536        1.000000        0.24260298
     101         -0.817212        1.000000        0.24041961
     102         -0.816737        1.000000        0.25712619
     103         -0.816440        1.000000        0.22834086
     104         -0.816071        1.000000        0.24383902
     105         -0.816043        1.000000        0.22688611
     106         -0.815731        1.000000        0.23443065
     107         -0.814198        1.000000        0.22745535
     108         -0.813401        1.000000        0.23671952
     109         -0.812439        1.000000        0.26530906
     110         -0.812407        1.000000        0.22711719
     111         -0.811198        1.000000        0.24215437
     112         -0.809464        1.000000        0.21592608
     113         -0.809309        1.000000        0.22878982
     114         -0.808888        1.000000        0.25020116
     115         -0.807194        1.000000        0.19953022
     116         -0.805412        1.000000        0.24042973
     117         -0.804325        1.000000        0.19397249
     118         -0.803287        1.000000        0.21833827
     119         -0.802997        1.000000        0.18312011
     120         -0.800560        1.000000        0.18310895
     121         -0.800502        1.000000        0.23328776
     122         -0.800449        1.000000        0.21434770
     123         -0.799213        1.000000        0.25107348
     124         -0.798220        1.000000        0.24180751
     125         -0.797711        1.000000        0.22446046
     126         -0.797446        1.000000        0.23540693
     127         -0.797383        1.000000        0.23901650
     128         -0.796904        1.000000        0.20771745
     129         -0.796543        1.000000        0.19527032
     130         -0.795711        1.000000        0.20192206
     131         -0.794693        1.000000        0.23413436
     132         -0.794445        1.000000        0.25099168
     133         -0.793060        1.000000        0.19896973
     134         -0.792121        1.000000        0.21957990
     135         -0.790871        1.000000        0.22750101
     136         -0.790453        1.000000        0.21136016
     137         -0.789773        1.000000        0.20781673
     138         -0.784623        1.000000        0.22517736
     139         -0.783701        1.000000        0.21097571
     140         -0.782456        1.000000        0.18435459
     141         -0.782346        1.000000        0.21748275
     142         -0.782225        1.000000        0.24759932
     143         -0.779748        1.000000        0.21396562
     144         -0.778020        1.000000        0.21569358
     145         -0.775667        1.000000        0.19679872
     146         -0.775574        1.000000        0.20112269
     147         -0.773485        1.000000        0.21455673
     148         -0.771682        1.000000        0.22426144
     149         -0.771171        1.000000        0.18878761
     150         -0.769329        1.000000        0.20379779
     151         -0.767853        1.000000        0.15686802
     152         -0.765905        1.000000        0.19337512
     153         -0.765812        1.000000        0.19063755
     154         -0.765500        1.000000        0.20159901
     155         -0.765214        1.000000        0.21744145
     156         -0.761186        1.000000        0.19487608
     157         -0.760871        1.000000        0.20852756
     158         -0.756637        1.000000        0.16220764
     159         -0.756121        1.000000        0.20249068
     160         -0.751854        1.000000        0.19507862
     161         -0.748250        1.000000        0.18020194
     162         -0.745177        1.000000        0.17822181
     163         -0.734215        1.000000        0.16769901
     164         -0.618945        1.000000        0.34598054
     165         -0.599992        1.000000        0.33809658
     166         -0.598668        1.000000        0.33852782
     167         -0.597503        1.000000        0.33926104
     168         -0.581225        1.000000        0.35555530
     169         -0.575713        1.000000        0.35249469
     170         -0.567339        1.000000        0.36474618
     171         -0.555455        1.000000        0.00554233
     172         -0.522448        1.000000        0.00818609
     173         -0.520034        1.000000        0.00546566
     174         -0.519170        1.000000        0.00993851
     175         -0.517987        1.000000        0.01631785
     176         -0.516897        1.000000        0.02429793
     177         -0.512456        1.000000        0.00736388
     178         -0.511791        1.000000        0.11603849
     179         -0.510606        1.000000        0.09051353
     180         -0.508554        1.000000        0.03953772
     181         -0.508046        1.000000        0.02113100
     182         -0.506790        1.000000        0.02718265
     183         -0.505732        1.000000        0.32408961
     184         -0.505178        1.000000        0.03867702
     185         -0.505063        1.000000        0.06081734
     186         -0.503896        1.000000        0.02415378
     187         -0.502061        1.000000        0.01701798
     188         -0.501992        1.000000        0.02168594
     189         -0.501662        1.000000        0.01553384
     190         -0.501441        1.000000        0.01218438
     191         -0.500970        1.000000        0.01145427
     192         -0.500745        1.000000        0.03475392
     193         -0.500383        1.000000        0.01196818
     194         -0.499849        1.000000        0.01075695
     195         -0.497890        1.000000        0.04311719
     196         -0.496796        1.000000        0.01311586
     197         -0.495462        1.000000        0.00424470
     198         -0.494778        1.000000        0.02634593
     199         -0.494166        1.000000        0.00968435
     200         -0.493796        1.000000        0.03895609
     201         -0.493231        1.000000        0.01063011
     202         -0.491572        1.000000        0.00410879
     203         -0.490268        1.000000        0.33866351
     204         -0.489176        1.000000        0.32030777
     205         -0.488612        1.000000        0.16506887
     206         -0.487197        1.000000        0.03607556
     207         -0.486649        1.000000        0.01858651
     208         -0.485649        1.000000        0.02035054
     209         -0.485331        1.000000        0.13567355
     210         -0.483614        1.000000        0.32713716
     211         -0.483410        1.000000        0.23983577
     212         -0.482700        1.000000        0.14601012
     213         -0.478242        1.000000        0.29094140
     214         -0.477434        1.000000        0.29854252
     215         -0.475689        1.000000        0.32701642
     216         -0.474753        1.000000        0.30793838
     217         -0.474382        1.000000        0.32265782
     218         -0.473250        1.000000        0.26430178
     219         -0.471955        1.000000        0.33944238
     220         -0.471530        1.000000        0.27735942
     221         -0.470943        1.000000        0.21446016
     222         -0.469712        1.000000        0.32131119
     223         -0.468309        1.000000        0.26283808
     224         -0.466898        1.000000        0.34612448
     225         -0.464317        1.000000        0.35021209
     226         -0.463119        1.000000        0.35114334
     227         -0.462194        1.000000        0.34419781
     228         -0.461396        1.000000        0.35081378
     229         -0.458335        1.000000        0.33642849
     230         -0.458070        1.000000        0.35223408
     231         -0.456943        1.000000        0.32631610
     232         -0.455401        1.000000        0.28708432
     233         -0.455281        1.000000        0.33245601
     234         -0.452180        1.000000        0.35484287
     235         -0.451609        1.000000        0.30699376
     236         -0.450077        1.000000        0.32922075
     237         -0.449705        1.000000        0.31909252
     238         -0.447990        1.000000        0.35907198
     239         -0.447753        1.000000        0.35007857
     240         -0.444803        1.000000        0.34770660
     241         -0.442143        1.000000        0.33971842
     242         -0.440745        1.000000        0.35435345
     243         -0.439992        1.000000        0.31627131
     244         -0.439655        1.000000        0.35583103
     245         -0.438857        1.000000        0.36235611
     246         -0.438725        1.000000        0.33760986
     247         -0.436228        1.000000        0.33874786
     248         -0.435549        1.000000        0.34054679
     249         -0.435316        1.000000        0.35945269
     250         -0.434706        1.000000        0.34080327
     251         -0.434518        1.000000        0.34375332
     252         -0.434359        1.000000        0.35066416
     253         -0.434274        1.000000        0.35122208
     254         -0.433705        1.000000        0.34818981
     255         -0.432614        1.000000        0.32514266
     256         -0.432271        1.000000        0.34459857
     257         -0.431446        1.000000        0.32676246
     258         -0.429597        1.000000        0.33573512
     259         -0.427956        1.000000        0.33335494
     260         -0.427131        1.000000        0.34217222
     261         -0.425891        1.000000        0.34718575
     262         -0.425433        1.000000        0.32865116
     263         -0.425317        1.000000        0.32857704
     264         -0.424786        1.000000        0.34820070
     265         -0.424669        1.000000        0.35747863
     266         -0.424482        1.000000        0.36380043
     267         -0.422784        1.000000        0.34858581
     268         -0.422423        1.000000        0.35050110
     269         -0.422060        1.000000        0.34039024
     270         -0.421282        1.000000        0.34615161
     271         -0.421182        1.000000        0.35676657
     272         -0.418857        1.000000        0.34002594
     273         -0.418612        1.000000        0.35012272
     274         -0.417702        1.000000        0.34560844
     275         -0.417170        1.000000        0.34927744
     276         -0.416744        1.000000        0.34778871
     277         -0.414962        1.000000        0.34137667
     278         -0.413522        1.000000        0.34946618
     279         -0.412797        1.000000        0.34288454
     280         -0.412382        1.000000        0.35142782
     281         -0.412222        1.000000        0.34955966
     282         -0.411663        1.000000        0.33710219
     283         -0.411279        1.000000        0.34355702
     284         -0.411068        1.000000        0.34479937
     285         -0.410558        1.000000        0.33994585
     286         -0.409528        1.000000        0.33357984
     287         -0.408940        1.000000        0.31873008
     288         -0.407237        1.000000        0.33673301
     289         -0.406460        1.000000        0.33276188
     290         -0.405409        1.000000        0.34370570
     291         -0.404779        1.000000        0.35424326
     292         -0.404343        1.000000        0.32428547
     293         -0.404097        1.000000        0.33872894
     294         -0.403983        1.000000        0.34251309
     295         -0.403392        1.000000        0.31980402
     296         -0.402915        1.000000        0.31895276
     297         -0.402868        1.000000        0.34356067
     298         -0.402095        1.000000        0.33358503
     299         -0.400812        1.000000        0.33623428
     300         -0.400798        1.000000        0.34660013
     301         -0.399845        1.000000        0.33647494
     302         -0.399702        1.000000        0.34193703
     303         -0.399591        1.000000        0.18867435
     304         -0.398376        1.000000        0.34673250
     305         -0.397994        1.000000        0.33602881
     306         -0.397362        1.000000        0.33466886
     307         -0.397122        1.000000        0.31091037
     308         -0.396201        1.000000        0.34377421
     309         -0.395968        1.000000        0.33902672
     310         -0.395889        1.000000        0.33659169
     311         -0.395568        1.000000        0.33033309
     312         -0.395286        1.000000        0.34185746
     313         -0.395253        1.000000        0.32595222
     314         -0.394807        1.000000        0.32869387
     315         -0.394076        1.000000        0.32291046
     316         -0.393748        1.000000        0.33675543
     317         -0.393379        1.000000        0.34748350
     318         -0.393098        1.000000        0.34363034
     319         -0.392691        1.000000        0.33614159
     320         -0.391823        1.000000        0.33558138
     321         -0.391722        1.000000        0.33485877
     322         -0.391581        1.000000        0.21150112
     323         -0.390774        1.000000        0.34764173
     324         -0.390596        1.000000        0.32348128
     325         -0.390368        1.000000        0.28563250
     326         -0.390225        1.000000        0.33070419
     327         -0.389629        1.000000        0.33839573
     328         -0.388956        1.000000        0.31198257
     329         -0.388731        1.000000        0.31501769
     330         -0.388488        1.000000        0.25606771
     331         -0.387504        1.000000        0.34404510
     332         -0.386847        1.000000        0.31102057
     333         -0.386708        1.000000        0.32746004
     334         -0.385839        1.000000        0.11733918
     335         -0.385393        1.000000        0.18289777
     336         -0.385012        1.000000        0.20225683
     337         -0.384259        1.000000        0.22277281
     338         -0.383894        1.000000        0.30960186
     339         -0.383323        1.000000        0.22959243
     340         -0.383218        1.000000        0.20495781
     341         -0.382847        1.000000        0.24609039
     342         -0.382230        1.000000        0.22837820
     343         -0.381869        1.000000        0.30394537
     344         -0.381811        1.000000        0.32484993
     345         -0.381479        1.000000        0.28815960
     346         -0.381006        1.000000        0.26388168
     347         -0.380594        1.000000        0.29584579
     348         -0.380428        1.000000        0.31861410
     349         -0.380277        1.000000        0.31380137
     350         -0.380205        1.000000        0.28819107
     351         -0.379613        1.000000        0.23224184
     352         -0.379305        1.000000        0.29719259
     353         -0.379019        1.000000        0.26052632
     354         -0.378403        1.000000        0.25439390
     355         -0.377710        1.000000        0.21205987
     356         -0.377583        1.000000        0.09831476
     357         -0.374943        1.000000        0.08476611
     358         -0.374436        1.000000        0.35543652
     359         -0.374192        1.000000        0.33562846
     360         -0.373950        1.000000        0.32464870
     361         -0.373623        1.000000        0.33396220
     362         -0.373560        1.000000        0.32103037
     363         -0.372992        1.000000        0.33494307
     364         -0.372373        1.000000        0.32164389
     365         -0.371754        1.000000        0.32268594
     366         -0.371244        1.000000        0.33951383
     367         -0.371073        1.000000        0.06314408
     368         -0.370873        1.000000        0.33299975
     369         -0.370319        1.000000        0.33775710
     370         -0.366291        1.000000        0.33957358
     371         -0.366049        1.000000        0.35565993
     372         -0.365180        1.000000        0.33350668
     373         -0.364062        1.000000        0.33127947
     374         -0.361383        1.000000        0.19539357
     375         -0.361311        1.000000        0.34563211
     376         -0.361028        1.000000        0.36046559
     377         -0.360279        1.000000        0.32795264
     378         -0.359666        1.000000        0.33700775
     379         -0.357173        1.000000        0.33393766
     380         -0.356621        1.000000        0.33416587
     381         -0.356116        1.000000        0.19622244
     382         -0.354095        1.000000        0.34607328
     383         -0.352593        1.000000        0.31999419
     384         -0.349849        1.000000        0.36708804
     385         -0.348961        1.000000        0.33695364
     386         -0.347653        1.000000        0.19411987
     387         -0.345825        1.000000        0.32875587
     388         -0.344363        1.000000        0.34300423
     389         -0.339693        1.000000        0.33136464
     390         -0.338115        1.000000        0.31905841
     391         -0.336101        1.000000        0.42554028
     392         -0.334431        1.000000        0.33307614
     393         -0.332793        1.000000        0.41919845
     394         -0.328416        1.000000        0.16599506
     395         -0.327007        1.000000        0.15881679
     396         -0.324643        1.000000        0.10944098
     397         -0.321921        1.000000        0.14455473
     398         -0.321769        1.000000        0.13406329
     399         -0.318150        1.000000        0.16875440
     400         -0.317140        1.000000        0.24322465
     401         -0.315448        1.000000        0.17092793
     402         -0.314603        1.000000        0.11700069
     403         -0.314289        1.000000        0.41954336
     404         -0.313454        1.000000        0.41980114
     405         -0.312793        1.000000        0.25744523
     406         -0.312768        1.000000        0.30830669
     407         -0.312486        1.000000        0.37629671
     408         -0.312442        1.000000        0.19549582
     409         -0.312042        1.000000        0.42010639
     410         -0.310747        1.000000        0.41812779
     411         -0.308355        1.000000        0.13024947
     412         -0.307916        1.000000        0.13820192
     413         -0.307247        1.000000        0.17621750
     414         -0.306268        1.000000        0.30476530
     415         -0.302712        1.000000        0.14579331
     416         -0.302355        1.000000        0.41515201
     417         -0.302070        1.000000        0.11643315
     418         -0.300413        1.000000        0.18833268
     419         -0.299870        1.000000        0.28545446
     420         -0.298999        1.000000        0.16812642
     421         -0.297846        1.000000        0.16218232
     422         -0.296267        1.000000        0.28243758
     423         -0.296154        1.000000        0.25913158
     424         -0.295854        1.000000        0.17122875
     425         -0.295768        1.000000        0.33421398
     426         -0.292245        1.000000        0.15634441
     427         -0.291147        1.000000        0.23842573
     428         -0.290576        1.000000        0.12274747
     429         -0.290178        1.000000        0.16700076
     430         -0.289020        1.000000        0.12645823
     431         -0.288822        1.000000        0.16064611
     432         -0.288787        1.000000        0.40360222
     433         -0.288008        1.000000        0.11963936
     434         -0.287883        1.000000        0.15662805
     435         -0.284617        1.000000        0.15200018
     436         -0.284288        1.000000        0.12604024
     437         -0.281690        1.000000        0.10587367
     438         -0.281308        1.000000        0.13316161
     439         -0.280611        1.000000        0.13027428
     440         -0.280171        1.000000        0.09905197
     441         -0.278644        1.000000        0.14180084
     442         -0.278172        1.000000        0.14845149
     443         -0.278076        1.000000        0.14401976
     444         -0.276383        1.000000        0.14919198
     445         -0.275844        1.000000        0.14137054
     446         -0.275154        1.000000        0.14669268
     447         -0.274024        1.000000        0.11366635
     448         -0.271480        1.000000        0.10712364
     449         -0.270823        1.000000        0.11945715
     450         -0.270188        1.000000        0.10134480
     451         -0.269768        1.000000        0.12811293
     452         -0.269695        1.000000        0.08576247
     453         -0.268456        1.000000        0.11619542
     454         -0.268408        1.000000        0.10520159
     455         -0.267639        1.000000        0.09633589
     456         -0.267010        1.000000        0.10215158
     457         -0.266631        1.000000        0.08846901
     458         -0.264884        1.000000        0.13535081
     459         -0.264436        1.000000        0.07913583
     460         -0.263044        1.000000        0.13720791
     461         -0.262787        1.000000        0.10861189
     462         -0.261873        1.000000        0.12216284
     463         -0.261208        1.000000        0.11494282
     464         -0.258938        1.000000        0.10901687
     465         -0.258230        1.000000        0.13842732
     466         -0.257426        1.000000        0.13097316
     467         -0.255180        1.000000        0.10434267
     468         -0.254530        1.000000        0.11143965
     469         -0.254255        1.000000        0.08723942
     470         -0.253185        1.000000        0.09671024
     471         -0.253010        1.000000        0.10525686
     472         -0.252556        1.000000        0.09619799
     473         -0.251413        1.000000        0.12715510
     474         -0.249601        1.000000        0.12039391
     475         -0.247655        1.000000        0.03067616
     476         -0.247307        1.000000        0.10958423
     477         -0.247187        1.000000        0.11512321
     478         -0.245551        1.000000        0.10561686
     479         -0.244887        1.000000        0.13065089
     480         -0.244765        1.000000        0.10165081
     481         -0.244252        1.000000        0.10428434
     482         -0.243777        1.000000        0.09385621
     483         -0.243297        1.000000        0.08837862
     484         -0.243097        1.000000        0.09017641
     485         -0.242021        1.000000        0.02880271
     486         -0.241857        1.000000        0.02454998
     487         -0.241330        1.000000        0.10087529
     488         -0.240940        1.000000        0.08194737
     489         -0.240154        1.000000        0.07244753