# Projected DOS for atomic kind O at iteration step i = 0, E(Fermi) =    -0.101588 a.u.
#     MO Eigenvalue [a.u.]      Occupation                 s                py                pz                px
       1         -0.961067        1.000000        0.66503542        0.01761517        0.02510944        0.01086515
       2         -0.940785        1.000000        0.71195927        0.01188843        0.02168283        0.00638247
       3         -0.936349        1.000000        0.68537278        0.02647591        0.01081150        0.00003770
       4         -0.932960        1.000000        0.72725632        0.01177774        0.00230374        0.02088394
       5         -0.928227        1.000000        0.69942357        0.01237714        0.00862908        0.00112986
       6         -0.921307        1.000000        0.70176518        0.01470901        0.00768825        0.00763850
       7         -0.920097        1.000000        0.69694484        0.01616071        0.00627647        0.01956590
       8         -0.919982        1.000000        0.71764800        0.01876915        0.00314582        0.01498997
       9         -0.913005        1.000000        0.67807749        0.02231408        0.00952773        0.01050590
      10         -0.902861        1.000000        0.67434841        0.02918459        0.00787471        0.00749376
      11         -0.900717        1.000000        0.64454342        0.03327717        0.00010483        0.02326474
      12         -0.900407        1.000000        0.70382991        0.02267921        0.01001729        0.00779646
      13         -0.899332        1.000000        0.71124038        0.01310581        0.01176102        0.00495752
      14         -0.897044        1.000000        0.68112478        0.01026447        0.00386247        0.01441853
      15         -0.893700        1.000000        0.74663660        0.01391540        0.02131153        0.00049277
      16         -0.892627        1.000000        0.67821957        0.00294415        0.03207956        0.00271331
      17         -0.890240        1.000000        0.70027456        0.02174711        0.00226101        0.00294749
      18         -0.888188        1.000000        0.69261718        0.00858184        0.00754910        0.02323907
      19         -0.885899        1.000000        0.72059017        0.01273259        0.01967277        0.00850891
      20         -0.883688        1.000000        0.71671064        0.02338364        0.00096952        0.00102885
      21         -0.883099        1.000000        0.69022890        0.01737812        0.00185017        0.02436227
      22         -0.882100        1.000000        0.73232174        0.01211222        0.00916994        0.01052248
      23         -0.881034        1.000000        0.68798209        0.02626777        0.01041731        0.00159563
      24         -0.879887        1.000000        0.70922878        0.00337782        0.03903865        0.00088322
      25         -0.879725        1.000000        0.67149357        0.01235369        0.00925303        0.01562465
      26         -0.879315        1.000000        0.70346315        0.02767895        0.00183651        0.00087878
      27         -0.879030        1.000000        0.70307819        0.01647626        0.01361836        0.00085829
      28         -0.877295        1.000000        0.68431103        0.02288280        0.02103031        0.00072865
      29         -0.875586        1.000000        0.69098400        0.02824191        0.01242099        0.00909355
      30         -0.874524        1.000000        0.69732540        0.02476090        0.00256963        0.00658240
      31         -0.873184        1.000000        0.70304731        0.01895539        0.00510947        0.00555840
      32         -0.871492        1.000000        0.69006833        0.03384375        0.00610506        0.00212979
      33         -0.871370        1.000000        0.71366763        0.02000100        0.00436038        0.00548284
      34         -0.871077        1.000000        0.71351420        0.02575219        0.00942374        0.00170307
      35         -0.871013        1.000000        0.00195623        0.00005848        0.00003477        0.00006279
      36         -0.868087        1.000000        0.71460306        0.02035843        0.00384461        0.00539475
      37         -0.867741        1.000000        0.71278837        0.00559429        0.01676296        0.01641373
      38         -0.865982        1.000000        0.69810669        0.01632532        0.00180841        0.00301953
      39         -0.864376        1.000000        0.70188896        0.03066484        0.00257790        0.00233151
      40         -0.864288        1.000000        0.70686405        0.00460378        0.01318759        0.00519636
      41         -0.861882        1.000000        0.68736229        0.01172094        0.00540781        0.02483142
      42         -0.861540        1.000000        0.72779929        0.02055243        0.00072665        0.00037041
      43         -0.861360        1.000000        0.71110817        0.00118439        0.02265114        0.00237736
      44         -0.858888        1.000000        0.00000358        0.00000007        0.00000002        0.00000008
      45         -0.858674        1.000000        0.00007857        0.00000151        0.00000104        0.00000518
      46         -0.858637        1.000000        0.68506453        0.00973293        0.00343780        0.02209377
      47         -0.858325        1.000000        0.72662654        0.01591888        0.00701457        0.01127190
      48         -0.858052        1.000000        0.72221854        0.01862643        0.00928144        0.00758874
      49         -0.856919        1.000000        0.72951518        0.03221198        0.00209599        0.00440869
      50         -0.856435        1.000000        0.53203670        0.01469949        0.00305883        0.00061146
      51         -0.856382        1.000000        0.17752768        0.00494420        0.00104420        0.00019675
      52         -0.856290        1.000000        0.70113631        0.00396484        0.01189324        0.01331645
      53         -0.854739        1.000000        0.70275400        0.01294536        0.00395626        0.01911728
      54         -0.853853        1.000000        0.72686429        0.01196836        0.01417958        0.01254852
      55         -0.852608        1.000000        0.69653734        0.01714643        0.00430986        0.01332520
      56         -0.852367        1.000000        0.65226862        0.01822000        0.00106614        0.00534000
      57         -0.851533        1.000000        0.69975522        0.01256098        0.00530768        0.00224203
      58         -0.849987        1.000000        0.70223748        0.01959606        0.01101043        0.00977598
      59         -0.848677        1.000000        0.72011534        0.02015472        0.01417343        0.00385662
      60         -0.847567        1.000000        0.70795897        0.01905265        0.01513287        0.00083853
      61         -0.844420        1.000000        0.69039637        0.03466981        0.00084083        0.01314575
      62         -0.844343        1.000000        0.69199837        0.01811977        0.00297229        0.02327615
      63         -0.843339        1.000000        0.72961274        0.02973802        0.00543743        0.00145343
      64         -0.842496        1.000000        0.73500763        0.01811140        0.00706055        0.00973471
      65         -0.842405        1.000000        0.70381998        0.01799321        0.00333635        0.00808045
      66         -0.842284        1.000000        0.71464752        0.01910431        0.00179668        0.00295301
      67         -0.841941        1.000000        0.70652405        0.01453524        0.00815296        0.00560145
      68         -0.840325        1.000000        0.71417674        0.01003560        0.00339000        0.01302536
      69         -0.839660        1.000000        0.72033119        0.00965039        0.02357017        0.00653903
      70         -0.838811        1.000000        0.71140828        0.01940813        0.00504884        0.01206219
      71         -0.837701        1.000000        0.69354066        0.01833382        0.00216851        0.00387999
      72         -0.837471        1.000000        0.71925912        0.01823241        0.00413149        0.00117982
      73         -0.837420        1.000000        0.68815517        0.04174061        0.00695192        0.00066257
      74         -0.837095        1.000000        0.70797149        0.01450834        0.00446575        0.00753437
      75         -0.836990        1.000000        0.71601798        0.00949041        0.02611713        0.00807030
      76         -0.836262        1.000000        0.72673665        0.01895174        0.00203366        0.00347997
      77         -0.835068        1.000000        0.70959381        0.01272227        0.00782824        0.00949767
      78         -0.834943        1.000000        0.70955574        0.01315158        0.00786162        0.01035078
      79         -0.834422        1.000000        0.69453291        0.03765136        0.00582377        0.00102212
      80         -0.832989        1.000000        0.71595315        0.01959843        0.00120248        0.01719278
      81         -0.830943        1.000000        0.71664003        0.01107469        0.01563419        0.00861553
      82         -0.830701        1.000000        0.70705177        0.01135851        0.00471430        0.01082704
      83         -0.830366        1.000000        0.68601755        0.01650721        0.01415132        0.00166612
      84         -0.829728        1.000000        0.73725204        0.01751213        0.01871976        0.00469584
      85         -0.829177        1.000000        0.70616636        0.01219790        0.01798902        0.00433991
      86         -0.828929        1.000000        0.71349779        0.01217693        0.00947046        0.00881223
      87         -0.828376        1.000000        0.55249831        0.01862541        0.00247335        0.00795743
      88         -0.827781        1.000000        0.03667354        0.00085906        0.00024968        0.00025833
      89         -0.827633        1.000000        0.74077115        0.01998823        0.00471225        0.00886280
      90         -0.827471        1.000000        0.74763204        0.01568137        0.00552479        0.02176074
      91         -0.827359        1.000000        0.71930709        0.01576459        0.00852109        0.01433130
      92         -0.825573        1.000000        0.72604888        0.01492752        0.00451026        0.02384401
      93         -0.823285        1.000000        0.70348761        0.01172278        0.00462755        0.01833013
      94         -0.823140        1.000000        0.68367953        0.01513346        0.00857827        0.00772556
      95         -0.821820        1.000000        0.72279139        0.01363060        0.00373750        0.02077151
      96         -0.821012        1.000000        0.72143089        0.01393310        0.00294365        0.02174232
      97         -0.820459        1.000000        0.73738612        0.01217585        0.00374382        0.01774538
      98         -0.819502        1.000000        0.27271653        0.01283087        0.00229880        0.00259588
      99         -0.819084        1.000000        0.71573592        0.00774686        0.00247967        0.00493355
     100         -0.818522        1.000000        0.71917223        0.02572663        0.00070870        0.01116542
     101         -0.817990        1.000000        0.72009015        0.00929485        0.01019811        0.01803888
     102         -0.816376        1.000000        0.72509935        0.02796533        0.00190901        0.00856008
     103         -0.815670        1.000000        0.72539661        0.02934613        0.00199108        0.00756853
     104         -0.815242        1.000000        0.73026412        0.01488500        0.00515715        0.01158097
     105         -0.814179        1.000000        0.74470765        0.01288941        0.00612241        0.01246290
     106         -0.813138        1.000000        0.70624462        0.02369161        0.00202498        0.00275178
     107         -0.813118        1.000000        0.72114104        0.00466914        0.03534317        0.00192620
     108         -0.811836        1.000000        0.72539574        0.01331308        0.01239816        0.01032305
     109         -0.811061        1.000000        0.72478590        0.01806713        0.00757870        0.00815742
     110         -0.810555        1.000000        0.72677274        0.01697257        0.00276650        0.01224100
     111         -0.809407        1.000000        0.73925600        0.02090938        0.00527968        0.01786449
     112         -0.809270        1.000000        0.73782639        0.02196652        0.00518802        0.00613106
     113         -0.808879        1.000000        0.70212570        0.02771511        0.00143640        0.01929900
     114         -0.807230        1.000000        0.76486236        0.02447620        0.00759716        0.00345292
     115         -0.806701        1.000000        0.70698375        0.01036562        0.02224830        0.00737505
     116         -0.805393        1.000000        0.73066796        0.01259991        0.00254611        0.01434932
     117         -0.804313        1.000000        0.76675647        0.00726479        0.01422210        0.00713487
     118         -0.804312        1.000000        0.73602070        0.02171107        0.00287489        0.00661068
     119         -0.803282        1.000000        0.73780878        0.02600922        0.00179781        0.01594319
     120         -0.802996        1.000000        0.77769468        0.01372604        0.01851342        0.00692315
     121         -0.801715        1.000000        0.72348954        0.01569109        0.00819063        0.01048791
     122         -0.800560        1.000000        0.78599017        0.00257766        0.01234088        0.01587106
     123         -0.800539        1.000000        0.74185451        0.02253120        0.00834659        0.01371465
     124         -0.799985        1.000000        0.71587716        0.01067149        0.02318899        0.01027042
     125         -0.798950        1.000000        0.75856839        0.01802585        0.00872755        0.00869184
     126         -0.797284        1.000000        0.72030179        0.02552383        0.00148054        0.01314549
     127         -0.797085        1.000000        0.75457662        0.01178914        0.00841979        0.00897793
     128         -0.796957        1.000000        0.74051544        0.02391029        0.00540129        0.00806929
     129         -0.796547        1.000000        0.77581767        0.00371687        0.01685065        0.00830290
     130         -0.796191        1.000000        0.73914880        0.01159071        0.00926003        0.01187373
     131         -0.795377        1.000000        0.74632197        0.01627506        0.01130094        0.00906043
     132         -0.794440        1.000000        0.10161595        0.00626557        0.00301059        0.00162711
     133         -0.793500        1.000000        0.76641817        0.01472367        0.00400175        0.02214551
     134         -0.792717        1.000000        0.76159620        0.01542334        0.00455692        0.01572570
     135         -0.790849        1.000000        0.72816345        0.00887391        0.00342124        0.03178622
     136         -0.790122        1.000000        0.73516148        0.01821197        0.00806031        0.00634063
     137         -0.789857        1.000000        0.75434835        0.01667088        0.00890091        0.00934634
     138         -0.787424        1.000000        0.76708530        0.02901185        0.00522566        0.00586581
     139         -0.783348        1.000000        0.72586893        0.02039523        0.01070474        0.01269370
     140         -0.783199        1.000000        0.71199923        0.01852618        0.02210802        0.00411711
     141         -0.782324        1.000000        0.77972248        0.01919908        0.00701536        0.00421133
     142         -0.781164        1.000000        0.75601207        0.02111274        0.00229491        0.01416930
     143         -0.781101        1.000000        0.73795763        0.01164869        0.00617250        0.02796149
     144         -0.780720        1.000000        0.74397503        0.02982019        0.00960879        0.00270333
     145         -0.780142        1.000000        0.75299505        0.01719490        0.01620351        0.00701838
     146         -0.778116        1.000000        0.75749300        0.01844892        0.01517381        0.00690833
     147         -0.776714        1.000000        0.73283335        0.01811356        0.00262939        0.02188154
     148         -0.775622        1.000000        0.76183040        0.01125591        0.00890877        0.01670428
     149         -0.775136        1.000000        0.75508127        0.02509070        0.00701265        0.00843382
     150         -0.771621        1.000000        0.74135598        0.01973787        0.00239271        0.02462738
     151         -0.771170        1.000000        0.76961586        0.00672608        0.01413745        0.01093344
     152         -0.767770        1.000000        0.78949022        0.00143896        0.00710467        0.02649144
     153         -0.765769        1.000000        0.77778285        0.01797341        0.00231482        0.01167301
     154         -0.765391        1.000000        0.75276153        0.03366047        0.00407403        0.00283623
     155         -0.765055        1.000000        0.75454501        0.01758380        0.00419604        0.01765470
     156         -0.761780        1.000000        0.75215364        0.02196959        0.01361116        0.00647313
     157         -0.760821        1.000000        0.76907022        0.02583403        0.00746920        0.00242404
     158         -0.758131        1.000000        0.76601434        0.01923435        0.00314278        0.01987983
     159         -0.757792        1.000000        0.76404825        0.02515529        0.00183428        0.00733542
     160         -0.757088        1.000000        0.79760541        0.02856611        0.00441612        0.00818733
     161         -0.747654        1.000000        0.78285962        0.00184461        0.01320893        0.01025422
     162         -0.746151        1.000000        0.78436890        0.01842211        0.00423019        0.00738575
     163         -0.722866        1.000000        0.78620093        0.00626476        0.00801521        0.03116960
     164         -0.618944        1.000000        0.00003747        0.00002862        0.00001198        0.00001742
     165         -0.599994        1.000000        0.00009396        0.00010753        0.00024107        0.00008244
     166         -0.598666        1.000000        0.00000138        0.00000191        0.00000178        0.00000484
     167         -0.597516        1.000000        0.00003284        0.00005462        0.00005377        0.00012841
     168         -0.581229        1.000000        0.00020089        0.00080543        0.00078692        0.00042726
     169         -0.575711        1.000000        0.00064555        0.00039677        0.00084426        0.00010678
     170         -0.567332        1.000000        0.00046890        0.00162979        0.00237306        0.00080400
     171         -0.555431        1.000000        0.00313950        0.00858939        0.00035189        0.00521014
     172         -0.523151        1.000000        0.00048254        0.00047787        0.00062048        0.00111014
     173         -0.519923        1.000000        0.00088139        0.00091347        0.00084605        0.00344062
     174         -0.519487        1.000000        0.00087595        0.00094897        0.00091471        0.00272811
     175         -0.517871        1.000000        0.00032388        0.00047421        0.00045432        0.00085541
     176         -0.514930        1.000000        0.00019697        0.00028487        0.00018168        0.00081271
     177         -0.512496        1.000000        0.00071631        0.00160745        0.00095496        0.00230791
     178         -0.511049        1.000000        0.00050380        0.00193975        0.00149307        0.00181274
     179         -0.509344        1.000000        0.00096856        0.00158962        0.00063271        0.00570551
     180         -0.508556        1.000000        0.00058769        0.00071401        0.00096924        0.00210132
     181         -0.508175        1.000000        0.00121095        0.00152141        0.00343515        0.00237811
     182         -0.507781        1.000000        0.00085509        0.00124973        0.00176243        0.00275156
     183         -0.506482        1.000000        0.00066881        0.00138979        0.00082923        0.00900226
     184         -0.506317        1.000000        0.00070284        0.00087821        0.00118311        0.00819935
     185         -0.505956        1.000000        0.00074736        0.00096055        0.00096092        0.00437151
     186         -0.505691        1.000000        0.00219108        0.00145101        0.02297553        0.59353093
     187         -0.504808        1.000000        0.00102046        0.00249498        0.00068135        0.01754156
     188         -0.502671        1.000000        0.00050876        0.00080260        0.00053662        0.00226377
     189         -0.502370        1.000000        0.00048928        0.00105395        0.00051987        0.00301001
     190         -0.501040        1.000000        0.00047449        0.00079235        0.00100069        0.00264891
     191         -0.500854        1.000000        0.00057136        0.00094580        0.00089539        0.00479795
     192         -0.500300        1.000000        0.00085635        0.00120469        0.00186475        0.00346489
     193         -0.500245        1.000000        0.00063044        0.00122956        0.00071034        0.00500654
     194         -0.498494        1.000000        0.00064591        0.00118533        0.00097342        0.00396578
     195         -0.497831        1.000000        0.00054393        0.00140349        0.00138886        0.00300958
     196         -0.497623        1.000000        0.00051780        0.00107782        0.00177318        0.00232414
     197         -0.496880        1.000000        0.00029671        0.00040125        0.00038369        0.00122688
     198         -0.495288        1.000000        0.00139740        0.00133161        0.00303415        0.00391311
     199         -0.494552        1.000000        0.00084491        0.00708027        0.00357633        0.01766465
     200         -0.494044        1.000000        0.00025566        0.00053925        0.00044715        0.00122564
     201         -0.491981        1.000000        0.00018099        0.00064706        0.00042753        0.00163053
     202         -0.491159        1.000000        0.00028418        0.00378870        0.00196547        0.00625800
     203         -0.490258        1.000000        0.00683509        0.23736877        0.09225881        0.30447074
     204         -0.489262        1.000000        0.00116693        0.01128862        0.03535698        0.22941104
     205         -0.488992        1.000000        0.00089344        0.00226314        0.04558476        0.33497436
     206         -0.487817        1.000000        0.00060341        0.00928136        0.00660422        0.02198727
     207         -0.487108        1.000000        0.00050311        0.00347142        0.00167032        0.00917778
     208         -0.485806        1.000000        0.00306765        0.04537499        0.03431002        0.09288843
     209         -0.485397        1.000000        0.00045272        0.00379194        0.00171038        0.01209346
     210         -0.483682        1.000000        0.00293857        0.16928153        0.07476013        0.31690112
     211         -0.483514        1.000000        0.00614902        0.12351957        0.07895539        0.26967534
     212         -0.482706        1.000000        0.00333632        0.14967517        0.00934453        0.04394288
     213         -0.478092        1.000000        0.00002581        0.00021915        0.00011090        0.00068995
     214         -0.477463        1.000000        0.00011417        0.00037493        0.00094273        0.00363028
     215         -0.475690        1.000000        0.01171411        0.05490431        0.05578190        0.54876847
     216         -0.474693        1.000000        0.00419041        0.05504932        0.12053285        0.21267090
     217         -0.474294        1.000000        0.00232660        0.03462830        0.07827283        0.12505295
     218         -0.473299        1.000000        0.00005217        0.00123477        0.00196533        0.00471018
     219         -0.471952        1.000000        0.00199122        0.09633632        0.11218803        0.41987765
     220         -0.471551        1.000000        0.00003692        0.00028818        0.00048597        0.00050462
     221         -0.471036        1.000000        0.00090919        0.01200673        0.04502382        0.05488056
     222         -0.469723        1.000000        0.00552924        0.06406722        0.18652522        0.30489661
     223         -0.468615        1.000000        0.00007237        0.00032997        0.00029252        0.00073849
     224         -0.466901        1.000000        0.00502287        0.14097518        0.01630145        0.46243104
     225         -0.464317        1.000000        0.00214374        0.11808473        0.06438011        0.45996289
     226         -0.463121        1.000000        0.00961635        0.02942192        0.15835290        0.44753406
     227         -0.462194        1.000000        0.00612533        0.02294211        0.21056512        0.40902520
     228         -0.461395        1.000000        0.00333885        0.04418242        0.02193258        0.57479139
     229         -0.458360        1.000000        0.00004130        0.00015320        0.00070382        0.00042539
     230         -0.458073        1.000000        0.00157211        0.10564886        0.03895900        0.45834387
     231         -0.456941        1.000000        0.00032144        0.01778005        0.01817172        0.02983178
     232         -0.455404        1.000000        0.01330313        0.31360524        0.01927953        0.20055447
     233         -0.455284        1.000000        0.00981667        0.23030304        0.01393260        0.35651740
     234         -0.452188        1.000000        0.00255278        0.14807114        0.12783622        0.35925164
     235         -0.451625        1.000000        0.02407310        0.24097041        0.29781370        0.12911146
     236         -0.450179        1.000000        0.00743087        0.05988485        0.51092725        0.09289299
     237         -0.449711        1.000000        0.00283650        0.07149106        0.03730378        0.03825192
     238         -0.448023        1.000000        0.00476130        0.18567670        0.06832809        0.37982872
     239         -0.447750        1.000000        0.00124780        0.22302665        0.35514472        0.06680453
     240         -0.444817        1.000000        0.00446121        0.32164765        0.05253032        0.26904472
     241         -0.442141        1.000000        0.01075581        0.27738150        0.05813183        0.27730082
     242         -0.440744        1.000000        0.00406270        0.21144295        0.06990386        0.35936298
     243         -0.439983        1.000000        0.00055561        0.01332491        0.02004509        0.01002790
     244         -0.439655        1.000000        0.00274114        0.05553260        0.54054156        0.04473357
     245         -0.438856        1.000000        0.00130022        0.03132193        0.01985052        0.58576059
     246         -0.438847        1.000000        0.00170830        0.06928427        0.03789605        0.53049950
     247         -0.436123        1.000000        0.00092965        0.03799997        0.00364691        0.56667271
     248         -0.435576        1.000000        0.00226884        0.43518477        0.09778293        0.11267764
     249         -0.435328        1.000000        0.00100750        0.02162848        0.03726788        0.57335909
     250         -0.434701        1.000000        0.00053702        0.01704463        0.03041573        0.00983854
     251         -0.434515        1.000000        0.01093922        0.03919672        0.06075097        0.54266464
     252         -0.434359        1.000000        0.00221148        0.22735649        0.14260344        0.24122313
     253         -0.434274        1.000000        0.00439191        0.21269606        0.09676183        0.32166716
     254         -0.433705        1.000000        0.01072738        0.26450704        0.15140830        0.22390924
     255         -0.432607        1.000000        0.00143594        0.10644421        0.06165657        0.08893267
     256         -0.432270        1.000000        0.00543945        0.21676861        0.18603254        0.24596423
     257         -0.431447        1.000000        0.01865131        0.32635020        0.15651871        0.17058698
     258         -0.429597        1.000000        0.01296070        0.05944496        0.01678981        0.52848684
     259         -0.427958        1.000000        0.00509225        0.17953939        0.10945395        0.36921888