 DBCSR| CPU Multiplication driver                                           XSMM
 DBCSR| Multrec recursion limit                                              512
 DBCSR| Multiplication stack size                                           1000
 DBCSR| Maximum elements for images                                    UNLIMITED
 DBCSR| Multiplicative factor virtual images                                   1
 DBCSR| Use multiplication densification                                       T
 DBCSR| Multiplication size stacks                                             3
 DBCSR| Use memory pool for CPU allocation                                     F
 DBCSR| Number of 3D layers                                               SINGLE
 DBCSR| Use MPI memory allocation                                              F
 DBCSR| Use RMA algorithm                                                      F
 DBCSR| Use Communication thread                                               T
 DBCSR| Communication thread load                                             87
 DBCSR| MPI: My node id                                                        0
 DBCSR| MPI: Number of nodes                                                  24
 DBCSR| OMP: Current number of threads                                         1
 DBCSR| OMP: Max number of threads                                             1
 DBCSR| Split modifier for TAS multiplication algorithm                  1.0E+00


  **** **** ******  **  PROGRAM STARTED AT               2023-12-04 01:33:35.554
 ***** ** ***  *** **   PROGRAM STARTED ON              pe87.int.triton.aalto.fi
 **    ****   ******    PROGRAM STARTED BY                               huangj4
 ***** **    ** ** **   PROGRAM PROCESS ID                                 31895
  **** **  *******  **  PROGRAM STARTED IN /scratch/phys/sin/Jie/Github/cp2kTest
                                           /ab_energy/Cluster_444

 CP2K| version string:                                          CP2K version 8.2
 CP2K| source code revision number:                                  git:310b7ab
 CP2K| cp2kflags: omp libint fftw3 libxc parallel mpi3 scalapack xsmm           
 CP2K| is freely available from                            https://www.cp2k.org/
 CP2K| Program compiled at                          Thu May 12 10:08:29 UTC 2022
 CP2K| Program compiled on                                          80d7174ae3e8
 CP2K| Program compiled for                            linux-centos7-haswell-gcc
 CP2K| Data directory path    /share/apps/spack/envs/fgci-centos7-haswell/softwa
 CP2K| Input file name                                calEnergy_MAPbI3_Water.inp

 GLOBAL| Force Environment number                                              1
 GLOBAL| Basis set file name                                        BASIS_MOLOPT
 GLOBAL| Potential file name                                      GTH_POTENTIALS
 GLOBAL| MM Potential file name                                     MM_POTENTIAL
 GLOBAL| Coordinate file name                         ./relaxed_MAPbI3_Water.xyz
 GLOBAL| Method name                                                        CP2K
 GLOBAL| Project name                                                  calEnergy
 GLOBAL| Run type                                                   ENERGY_FORCE
 GLOBAL| FFT library                                                       FFTW3
 GLOBAL| Diagonalization library                                       ScaLAPACK
 GLOBAL| Orthonormality check for eigenvectors                          DISABLED
 GLOBAL| Matrix multiplication library                                    SCALAP
 GLOBAL| All-to-all communication in single precision                          F
 GLOBAL| FFTs using library dependent lengths                                  F
 GLOBAL| Grid backend                                                       AUTO
 GLOBAL| Global print level                                                  LOW
 GLOBAL| MPI I/O enabled                                                       T
 GLOBAL| Total number of message passing processes                            24
 GLOBAL| Number of threads for this process                                    1
 GLOBAL| This output is from process                                           0
 GLOBAL| CPU model name                Intel(R) Xeon(R) CPU E5-2680 v4 @ 2.40GHz
 GLOBAL| CPUID                                                              1002

 MEMORY| system memory details [Kb]
 MEMORY|                        rank 0           min           max       average
 MEMORY| MemTotal            131936832     131936832     131936832     131936832
 MEMORY| MemFree             120195352     120195352     120195352     120195352
 MEMORY| Buffers                306524        306524        306524        306524
 MEMORY| Cached                2826548       2826548       2826548       2826548
 MEMORY| Slab                  3874756       3874756       3874756       3874756
 MEMORY| SReclaimable           255192        255192        255192        255192
 MEMORY| MemLikelyFree       123583616     123583616     123583616     123583616


 GENERATE|  Preliminary Number of Bonds generated:                             0
 GENERATE|  Achieved consistency in connectivity generation.

 *******************************************************************************
 *******************************************************************************
 **                                                                           **
 **     #####                         ##              ##                      **
 **    ##   ##            ##          ##              ##                      **
 **   ##     ##                       ##            ######                    **
 **   ##     ##  ##   ##  ##   #####  ##  ##   ####   ##    #####    #####    **
 **   ##     ##  ##   ##  ##  ##      ## ##   ##      ##   ##   ##  ##   ##   **
 **   ##  ## ##  ##   ##  ##  ##      ####     ###    ##   ######   ######    **
 **    ##  ###   ##   ##  ##  ##      ## ##      ##   ##   ##       ##        **
 **     #######   #####   ##   #####  ##  ##  ####    ##    #####   ##        **
 **           ##                                                    ##        **
 **                                                                           **
 **                                                ... make the atoms dance   **
 **                                                                           **
 **            Copyright (C) by CP2K developers group (2000-2021)             **
 **                      J. Chem. Phys. 152, 194103 (2020)                    **
 **                                                                           **
 *******************************************************************************


 TOTAL NUMBERS AND MAXIMUM NUMBERS

  Total number of            - Atomic kinds:                                   6
                             - Atoms:                                       3625
                             - Shell sets:                                  3625
                             - Shells:                                      4982
                             - Primitive Cartesian functions:              24767
                             - Cartesian basis functions:                   7696
                             - Spherical basis functions:                   7696

  Maximum angular momentum of- Orbital basis functions:                        1
                             - Local part of the GTH pseudopotential:          2
                             - Non-local part of the GTH pseudopotential:      4


 SCF PARAMETERS         Density guess:                                    ATOMIC
                        --------------------------------------------------------
                        max_scf:                                            1000
                        max_scf_history:                                       0
                        max_diis:                                              4
                        --------------------------------------------------------
                        eps_scf:                                        1.00E-06
                        eps_scf_history:                                0.00E+00
                        eps_diis:                                       1.00E-01
                        eps_eigval:                                     1.00E-05
                        --------------------------------------------------------
                        level_shift [a.u.]:                                 0.00
                        --------------------------------------------------------
                        No outer SCF

 Spin 1

 Number of electrons:                                                       5140
 Number of occupied orbitals:                                               5140
 Number of molecular orbitals:                                              5140

 Spin 2

 Number of electrons:                                                       5139
 Number of occupied orbitals:                                               5139
 Number of molecular orbitals:                                              5139

 Number of orbital functions:                                               7696
 Number of independent orbital functions:                                   7696

 Extrapolation method: initial_guess


 SCF WAVEFUNCTION OPTIMIZATION

  ----------------------------------- OT ---------------------------------------
  Minimizer      : DIIS                : direct inversion
                                         in the iterative subspace
                                         using   7 DIIS vectors
                                         safer DIIS on
  Preconditioner : FULL_KINETIC        : inversion of T + eS
  Precond_solver : DEFAULT
  stepsize       :    0.15000000                  energy_gap     :    0.20000000
  eps_taylor     :   0.10000E-15                  max_taylor     :             4
  ----------------------------------- OT ---------------------------------------

  Step     Update method      Time    Convergence         Total energy    Change
  ------------------------------------------------------------------------------
     1 OT DIIS     0.15E+00   57.7     0.00274101    -19067.5027628357 -1.91E+04
     2 OT DIIS     0.15E+00   83.7     0.00251656    -19150.3883393075 -8.29E+01
     3 OT DIIS     0.15E+00   78.1     0.00233333    -19229.9980266943 -7.96E+01
     4 OT DIIS     0.15E+00   78.1     0.00175386    -19465.7168777838 -2.36E+02
     5 OT DIIS     0.15E+00   78.1     0.00144916    -19560.2111551060 -9.45E+01
     6 OT DIIS     0.15E+00   78.2     0.00130711    -19612.9784156539 -5.28E+01
     7 OT DIIS     0.15E+00   78.3     0.00097846    -19697.7050505524 -8.47E+01
     8 OT DIIS     0.15E+00   78.3     0.00075750    -19744.2536988559 -4.65E+01
     9 OT DIIS     0.15E+00   78.3     0.00064343    -19766.5963974731 -2.23E+01
    10 OT DIIS     0.15E+00   78.2     0.00047325    -19795.6060817586 -2.90E+01
    11 OT DIIS     0.15E+00   78.4     0.00042940    -19802.5210510845 -6.91E+00
    12 OT DIIS     0.15E+00   78.3     0.00035354    -19812.3151921399 -9.79E+00
    13 OT DIIS     0.15E+00   78.2     0.00027618    -19820.0881260349 -7.77E+00
    14 OT DIIS     0.15E+00   78.3     0.00027979    -19820.4550691312 -3.67E-01
    15 OT DIIS     0.15E+00   78.3     0.00022382    -19825.0771656883 -4.62E+00
    16 OT DIIS     0.15E+00   78.2     0.00017743    -19829.4430639289 -4.37E+00
    17 OT DIIS     0.15E+00   78.2     0.00017238    -19829.8979204788 -4.55E-01
    18 OT DIIS     0.15E+00   78.4     0.00016100    -19831.8626980252 -1.96E+00
    19 OT DIIS     0.15E+00   78.3     0.00013302    -19833.5677124141 -1.71E+00
    20 OT DIIS     0.15E+00   78.3     0.00012393    -19834.3658079543 -7.98E-01
    21 OT DIIS     0.15E+00   78.3     0.00011786    -19834.9387815531 -5.73E-01
    22 OT SD       0.15E+00   78.5     0.00009699    -19836.9000125901 -1.96E+00
    23 OT DIIS     0.15E+00   78.3     0.00009458    -19837.0101949844 -1.10E-01
    24 OT DIIS     0.15E+00   78.3     0.00007228    -19838.9898465886 -1.98E+00
    25 OT DIIS     0.15E+00   78.3     0.00007349    -19839.1466801411 -1.57E-01
    26 OT SD       0.15E+00   78.4     0.00007183    -19839.2629062264 -1.16E-01
    27 OT DIIS     0.15E+00   78.4     0.00007027    -19839.3234431247 -6.05E-02
    28 OT DIIS     0.15E+00   78.3     0.00005648    -19840.4278166786 -1.10E+00
    29 OT DIIS     0.15E+00   78.4     0.00005605    -19840.5095743429 -8.18E-02
    30 OT DIIS     0.15E+00   78.4     0.00005548    -19840.5598432514 -5.03E-02
    31 OT DIIS     0.15E+00   78.4     0.00004995    -19841.1240863398 -5.64E-01
    32 OT DIIS     0.15E+00   78.3     0.00004801    -19841.3024024431 -1.78E-01
    33 OT DIIS     0.15E+00   78.3     0.00004472    -19841.5911295386 -2.89E-01
    34 OT DIIS     0.15E+00   78.4     0.00004299    -19841.7213260013 -1.30E-01
    35 OT DIIS     0.15E+00   78.3     0.00004075    -19841.9550348152 -2.34E-01
    36 OT DIIS     0.15E+00   78.3     0.00003865    -19842.1083666001 -1.53E-01
    37 OT DIIS     0.15E+00   78.4     0.00003986    -19842.1543422066 -4.60E-02
    38 OT DIIS     0.15E+00   78.4     0.00003412    -19842.4879698103 -3.34E-01
    39 OT DIIS     0.15E+00   78.2     0.00003562    -19842.4699893721  1.80E-02
    40 OT DIIS     0.15E+00   78.5     0.00003265    -19842.6509914293 -1.81E-01
    41 OT DIIS     0.15E+00   78.5     0.00003144    -19842.7359930108 -8.50E-02
    42 OT SD       0.15E+00   78.4     0.00002968    -19842.8306158947 -9.46E-02
    43 OT DIIS     0.15E+00   78.3     0.00002932    -19842.8410035639 -1.04E-02
    44 OT SD       0.15E+00   78.4     0.00002549    -19843.1282892014 -2.87E-01
    45 OT DIIS     0.15E+00   78.3     0.00002518    -19843.1359506373 -7.66E-03
    46 OT SD       0.15E+00   78.4     0.00002154    -19843.3948056561 -2.59E-01
    47 OT DIIS     0.15E+00   78.3     0.00002121    -19843.4002650356 -5.46E-03
    48 OT DIIS     0.15E+00   78.4     0.00001858    -19843.5362084155 -1.36E-01
    49 OT DIIS     0.15E+00   78.3     0.00001804    -19843.5667292333 -3.05E-02
    50 OT SD       0.15E+00   78.3     0.00001602    -19843.6632631618 -9.65E-02
    51 OT DIIS     0.15E+00   78.3     0.00001581    -19843.6662874617 -3.02E-03
    52 OT DIIS     0.15E+00   78.5     0.00001367    -19843.7746795742 -1.08E-01
    53 OT DIIS     0.15E+00   78.4     0.00001391    -19843.7732223699  1.46E-03
    54 OT DIIS     0.15E+00   78.4     0.00001356    -19843.7838487744 -1.06E-02
    55 OT DIIS     0.15E+00   78.4     0.00001312    -19843.8005522597 -1.67E-02
    56 OT DIIS     0.15E+00   78.4     0.00001277    -19843.8125159249 -1.20E-02
    57 OT DIIS     0.15E+00   78.4     0.00001154    -19843.8668990131 -5.44E-02
    58 OT DIIS     0.15E+00   78.4     0.00001100    -19843.8808489060 -1.39E-02
    59 OT DIIS     0.15E+00   78.4     0.00001065    -19843.8968507813 -1.60E-02
    60 OT DIIS     0.15E+00   78.3     0.00001009    -19843.9214466951 -2.46E-02
    61 OT SD       0.15E+00   78.4     0.00000977    -19843.9344717268 -1.30E-02
    62 OT DIIS     0.15E+00   78.2     0.00000962    -19843.9355950065 -1.12E-03
    63 OT SD       0.15E+00   78.4     0.00000857    -19843.9722250169 -3.66E-02
    64 OT DIIS     0.15E+00   78.3     0.00000843    -19843.9730884292 -8.63E-04
    65 OT DIIS     0.15E+00   78.4     0.00000760    -19843.9945431907 -2.15E-02
    66 OT DIIS     0.15E+00   78.3     0.00000718    -19844.0065767183 -1.20E-02
    67 OT DIIS     0.15E+00   78.3     0.00000671    -19844.0203400957 -1.38E-02
    68 OT DIIS     0.15E+00   78.3     0.00000662    -19844.0310249056 -1.07E-02
    69 OT DIIS     0.15E+00   78.4     0.00000626    -19844.0391569388 -8.13E-03
    70 OT DIIS     0.15E+00   78.3     0.00000616    -19844.0463363949 -7.18E-03
    71 OT DIIS     0.15E+00   78.4     0.00000582    -19844.0545525168 -8.22E-03
    72 OT SD       0.15E+00   78.5     0.00000579    -19844.0664253546 -1.19E-02
    73 OT DIIS     0.15E+00   78.3     0.00000570    -19844.0668194666 -3.94E-04
    74 OT DIIS     0.15E+00   78.3     0.00000538    -19844.0741505962 -7.33E-03
    75 OT DIIS     0.15E+00   78.3     0.00000504    -19844.0831256112 -8.98E-03
    76 OT DIIS     0.15E+00   78.5     0.00000489    -19844.0884498271 -5.32E-03
    77 OT DIIS     0.15E+00   78.4     0.00000476    -19844.0954749878 -7.03E-03
    78 OT DIIS     0.15E+00   78.2     0.00000491    -19844.0974182494 -1.94E-03
    79 OT DIIS     0.15E+00   78.3     0.00000437    -19844.1073302279 -9.91E-03
    80 OT DIIS     0.15E+00   78.3     0.00000429    -19844.1102798040 -2.95E-03
    81 OT DIIS     0.15E+00   78.3     0.00000431    -19844.1150375207 -4.76E-03
    82 OT DIIS     0.15E+00   78.3     0.00000397    -19844.1202813420 -5.24E-03
    83 OT DIIS     0.15E+00   78.4     0.00000386    -19844.1261601766 -5.88E-03
    84 OT DIIS     0.15E+00   78.5     0.00000377    -19844.1298406861 -3.68E-03
    85 OT DIIS     0.15E+00   78.4     0.00000375    -19844.1302747674 -4.34E-04
    86 OT DIIS     0.15E+00   78.4     0.00000363    -19844.1359397670 -5.66E-03
    87 OT DIIS     0.15E+00   78.4     0.00000348    -19844.1387949504 -2.86E-03
    88 OT DIIS     0.15E+00   78.4     0.00000339    -19844.1417047331 -2.91E-03
    89 OT DIIS     0.15E+00   78.3     0.00000330    -19844.1468443297 -5.14E-03
    90 OT DIIS     0.15E+00   78.4     0.00000326    -19844.1491721519 -2.33E-03
    91 OT SD       0.15E+00   78.4     0.00000320    -19844.1523185283 -3.15E-03
    92 OT DIIS     0.15E+00  118.8     0.00000319    -19844.1524399094 -1.21E-04
    93 OT DIIS     0.15E+00  114.4     0.00000310    -19844.1585551909 -6.12E-03
    94 OT DIIS     0.15E+00  132.9     0.00000309    -19844.1594003511 -8.45E-04
    95 OT DIIS     0.15E+00  117.7     0.00000305    -19844.1632025205 -3.80E-03
    96 OT DIIS     0.15E+00   78.2     0.00000301    -19844.1650464108 -1.84E-03
    97 OT DIIS     0.15E+00   78.2     0.00000300    -19844.1663364598 -1.29E-03
    98 OT DIIS     0.15E+00   78.2     0.00000297    -19844.1698817590 -3.55E-03
    99 OT DIIS     0.15E+00   78.1     0.00000295    -19844.1717797437 -1.90E-03
   100 OT SD       0.15E+00   78.2     0.00000295    -19844.1719976094 -2.18E-04
   101 OT DIIS     0.15E+00   78.1     0.00000295    -19844.1721008299 -1.03E-04
   102 OT DIIS     0.15E+00   78.1     0.00000290    -19844.1767077993 -4.61E-03
   103 OT DIIS     0.15E+00   78.1     0.00000289    -19844.1774318721 -7.24E-04
   104 OT DIIS     0.15E+00   78.3     0.00000291    -19844.1782179484 -7.86E-04
   105 OT SD       0.15E+00   78.1     0.00000286    -19844.1809557134 -2.74E-03
   106 OT DIIS     0.15E+00   78.1     0.00000286    -19844.1810529263 -9.72E-05
   107 OT SD       0.15E+00   78.1     0.00000284    -19844.1851490380 -4.10E-03
   108 OT DIIS     0.15E+00   78.2     0.00000284    -19844.1852445941 -9.56E-05
   109 OT DIIS     0.15E+00   78.0     0.00000289    -19844.1865238689 -1.28E-03
   110 OT DIIS     0.15E+00   78.1     0.00000289    -19844.1865173805  6.49E-06
   111 OT SD       0.15E+00   78.2     0.00000286    -19844.1907671916 -4.25E-03
   112 OT DIIS     0.15E+00   78.1     0.00000285    -19844.1908640069 -9.68E-05
   113 OT DIIS     0.15E+00   78.0     0.00000281    -19844.1917811579 -9.17E-04
   114 OT DIIS     0.15E+00   78.2     0.00000280    -19844.1933169878 -1.54E-03
   115 OT DIIS     0.15E+00   78.2     0.00000280    -19844.1939481015 -6.31E-04
   116 OT DIIS     0.15E+00   78.1     0.00000280    -19844.1943143342 -3.66E-04
   117 OT SD       0.15E+00   78.1     0.00000277    -19844.2018148494 -7.50E-03
   118 OT DIIS     0.15E+00   78.2     0.00000276    -19844.2019055689 -9.07E-05
   119 OT DIIS     0.15E+00   78.2     0.00000272    -19844.2082378192 -6.33E-03
   120 OT DIIS     0.15E+00   78.1     0.00000274    -19844.2088060981 -5.68E-04
   121 OT DIIS     0.15E+00   78.1     0.00000272    -19844.2094637371 -6.58E-04
   122 OT DIIS     0.15E+00   78.1     0.00000271    -19844.2100101179 -5.46E-04
   123 OT DIIS     0.15E+00   78.3     0.00000269    -19844.2135365701 -3.53E-03
   124 OT SD       0.15E+00   78.2     0.00000268    -19844.2161241775 -2.59E-03
   125 OT DIIS     0.15E+00   78.1     0.00000267    -19844.2162094261 -8.52E-05
   126 OT DIIS     0.15E+00   78.1     0.00000277    -19844.2213023659 -5.09E-03
   127 OT SD       0.15E+00   78.2     0.00000260    -19844.2231088692 -1.81E-03
   128 OT DIIS     0.15E+00   78.1     0.00000259    -19844.2231888985 -8.00E-05
   129 OT DIIS     0.15E+00   78.1     0.00000252    -19844.2304619062 -7.27E-03
   130 OT DIIS     0.15E+00   78.2     0.00000250    -19844.2310453166 -5.83E-04
   131 OT SD       0.15E+00   78.2     0.00000242    -19844.2372312942 -6.19E-03
   132 OT DIIS     0.15E+00  120.4     0.00000241    -19844.2373008898 -6.96E-05
   133 OT SD       0.15E+00  122.3     0.00000239    -19844.2442388405 -6.94E-03
   134 OT DIIS     0.15E+00  125.5     0.00000237    -19844.2443062115 -6.74E-05
   135 OT SD       0.15E+00  112.2     0.00000226    -19844.2470442972 -2.74E-03
   136 OT DIIS     0.15E+00   78.5     0.00000225    -19844.2471045541 -6.03E-05
   137 OT DIIS     0.15E+00   78.4     0.00000219    -19844.2508873066 -3.78E-03
   138 OT SD       0.15E+00   78.4     0.00000218    -19844.2514158177 -5.29E-04
   139 OT DIIS     0.15E+00   78.5     0.00000217    -19844.2514721136 -5.63E-05
   140 OT DIIS     0.15E+00   78.5     0.00000214    -19844.2553886161 -3.92E-03
   141 OT SD       0.15E+00   78.4     0.00000231    -19844.2552804129  1.08E-04
   142 OT SD       0.15E+00   78.7     0.00000228    -19844.2553433705 -6.30E-05
   143 OT DIIS     0.15E+00   78.4     0.00000226    -19844.2554048353 -6.15E-05
   144 OT DIIS     0.15E+00   78.3     0.00000209    -19844.2589687946 -3.56E-03
   145 OT DIIS     0.15E+00   78.3     0.00000208    -19844.2590561643 -8.74E-05
   146 OT DIIS     0.15E+00   78.4     0.00000207    -19844.2599654323 -9.09E-04
   147 OT DIIS     0.15E+00   78.5     0.00000206    -19844.2605307502 -5.65E-04
   148 OT SD       0.15E+00   78.4     0.00000205    -19844.2610980379 -5.67E-04
   149 OT DIIS     0.15E+00   78.3     0.00000205    -19844.2611479334 -4.99E-05
   150 OT DIIS     0.15E+00   78.5     0.00000202    -19844.2652619892 -4.11E-03
   151 OT DIIS     0.15E+00   78.6     0.00000203    -19844.2652916169 -2.96E-05
   152 OT SD       0.15E+00   78.5     0.00000202    -19844.2653115725 -2.00E-05
   153 OT DIIS     0.15E+00   78.4     0.00000202    -19844.2653601861 -4.86E-05
   154 OT SD       0.15E+00   78.5     0.00000200    -19844.2681649808 -2.80E-03
   155 OT DIIS     0.15E+00   78.4     0.00000200    -19844.2682123614 -4.74E-05
   156 OT DIIS     0.15E+00   78.3     0.00000199    -19844.2697375457 -1.53E-03
   157 OT DIIS     0.15E+00   78.4     0.00000199    -19844.2704103065 -6.73E-04
   158 OT SD       0.15E+00   78.4     0.00000199    -19844.2705419652 -1.32E-04
   159 OT DIIS     0.15E+00   78.4     0.00000199    -19844.2705889064 -4.69E-05
   160 OT SD       0.15E+00   78.4     0.00000200    -19844.2722262108 -1.64E-03
   161 OT SD       0.15E+00   78.4     0.00000199    -19844.2722734571 -4.72E-05
   162 OT SD       0.15E+00   78.4     0.00000199    -19844.2723205903 -4.71E-05
   163 OT SD       0.15E+00   78.5     0.00000199    -19844.2723676412 -4.71E-05
   164 OT SD       0.15E+00   78.4     0.00000199    -19844.2724146318 -4.70E-05
   165 OT SD       0.15E+00   78.5     0.00000199    -19844.2724615780 -4.69E-05
   166 OT SD       0.15E+00   78.4     0.00000199    -19844.2725084918 -4.69E-05
   167 OT SD       0.15E+00   78.4     0.00000199    -19844.2725553821 -4.69E-05
   168 OT SD       0.15E+00   78.5     0.00000199    -19844.2726022561 -4.69E-05
   169 OT SD       0.15E+00   78.5     0.00000199    -19844.2726491191 -4.69E-05
   170 OT SD       0.15E+00   78.5     0.00000199    -19844.2726959756 -4.69E-05
   171 OT SD       0.15E+00   78.5     0.00000199    -19844.2727428291 -4.69E-05
   172 OT SD       0.15E+00   78.5     0.00000199    -19844.2727896824 -4.69E-05
   173 OT SD       0.15E+00   78.4     0.00000199    -19844.2728365381 -4.69E-05
   174 OT SD       0.15E+00   78.4     0.00000199    -19844.2728833981 -4.69E-05
   175 OT SD       0.15E+00   78.5     0.00000199    -19844.2729302640 -4.69E-05
   176 OT SD       0.15E+00   78.4     0.00000199    -19844.2729771374 -4.69E-05
   177 OT SD       0.15E+00   78.5     0.00000199    -19844.2730240194 -4.69E-05
   178 OT SD       0.15E+00   78.4     0.00000199    -19844.2730709112 -4.69E-05
   179 OT SD       0.15E+00   78.4     0.00000199    -19844.2731178137 -4.69E-05
   180 OT SD       0.15E+00   78.5     0.00000199    -19844.2731647277 -4.69E-05
   181 OT SD       0.15E+00   78.4     0.00000199    -19844.2732116540 -4.69E-05
   182 OT SD       0.15E+00   78.5     0.00000199    -19844.2732585932 -4.69E-05
   183 OT SD       0.15E+00   78.4     0.00000199    -19844.2733055459 -4.70E-05
   184 OT SD       0.15E+00   78.4     0.00000199    -19844.2733525126 -4.70E-05
   185 OT SD       0.15E+00   78.4     0.00000199    -19844.2733994939 -4.70E-05
   186 OT SD       0.15E+00   78.5     0.00000199    -19844.2734464901 -4.70E-05
   187 OT SD       0.15E+00   78.5     0.00000199    -19844.2734935018 -4.70E-05
   188 OT SD       0.15E+00   78.5     0.00000199    -19844.2735405292 -4.70E-05
   189 OT SD       0.15E+00   78.5     0.00000199    -19844.2735875727 -4.70E-05
   190 OT SD       0.15E+00   78.6     0.00000199    -19844.2736346327 -4.71E-05
   191 OT SD       0.15E+00   78.6     0.00000199    -19844.2736817095 -4.71E-05
   192 OT SD       0.15E+00   78.7     0.00000199    -19844.2737288033 -4.71E-05
   193 OT SD       0.15E+00   78.8     0.00000199    -19844.2737759145 -4.71E-05
   194 OT SD       0.15E+00   78.5     0.00000199    -19844.2738230433 -4.71E-05
   195 OT SD       0.15E+00   78.4     0.00000199    -19844.2738701900 -4.71E-05
   196 OT SD       0.15E+00   78.5     0.00000199    -19844.2739173549 -4.72E-05
   197 OT SD       0.15E+00   78.5     0.00000199    -19844.2739645381 -4.72E-05
   198 OT SD       0.15E+00   78.4     0.00000199    -19844.2740117399 -4.72E-05
   199 OT SD       0.15E+00   78.5     0.00000200    -19844.2740589605 -4.72E-05
   200 OT SD       0.15E+00   78.4     0.00000200    -19844.2741062001 -4.72E-05
   201 OT SD       0.15E+00   78.3     0.00000200    -19844.2741534590 -4.73E-05
   202 OT SD       0.15E+00   78.3     0.00000200    -19844.2742007374 -4.73E-05
   203 OT SD       0.15E+00   78.3     0.00000200    -19844.2742480354 -4.73E-05
   204 OT SD       0.15E+00   78.2     0.00000200    -19844.2742953533 -4.73E-05
   205 OT SD       0.15E+00   78.3     0.00000200    -19844.2743426912 -4.73E-05
   206 OT SD       0.15E+00   78.3     0.00000200    -19844.2743900494 -4.74E-05
   207 OT SD       0.15E+00   78.3     0.00000200    -19844.2744374280 -4.74E-05
   208 OT SD       0.15E+00   78.4     0.00000200    -19844.2744848272 -4.74E-05
   209 OT SD       0.15E+00   78.3     0.00000200    -19844.2745322471 -4.74E-05
   210 OT SD       0.15E+00   78.4     0.00000200    -19844.2745796881 -4.74E-05
   211 OT SD       0.15E+00   78.3     0.00000200    -19844.2746271502 -4.75E-05
   212 OT SD       0.15E+00   78.3     0.00000200    -19844.2746746336 -4.75E-05
   213 OT SD       0.15E+00   78.2     0.00000200    -19844.2747221385 -4.75E-05
   214 OT SD       0.15E+00   78.3     0.00000200    -19844.2747696651 -4.75E-05
   215 OT SD       0.15E+00   78.2     0.00000200    -19844.2748172136 -4.75E-05
   216 OT SD       0.15E+00   78.5     0.00000200    -19844.2748647840 -4.76E-05
   217 OT SD       0.15E+00   78.2     0.00000200    -19844.2749123766 -4.76E-05
   218 OT SD       0.15E+00   78.3     0.00000200    -19844.2749599916 -4.76E-05
   219 OT SD       0.15E+00   78.2     0.00000200    -19844.2750076290 -4.76E-05
   220 OT SD       0.15E+00   78.3     0.00000200    -19844.2750552892 -4.77E-05
   221 OT SD       0.15E+00   78.2     0.00000200    -19844.2751029721 -4.77E-05
   222 OT SD       0.15E+00   78.2     0.00000201    -19844.2751506781 -4.77E-05
   223 OT SD       0.15E+00   78.2     0.00000201    -19844.2751984072 -4.77E-05
   224 OT SD       0.15E+00   78.3     0.00000201    -19844.2752461596 -4.78E-05
   225 OT SD       0.15E+00   78.2     0.00000201    -19844.2752939355 -4.78E-05
   226 OT SD       0.15E+00   78.2     0.00000201    -19844.2753417350 -4.78E-05
   227 OT SD       0.15E+00   78.2     0.00000201    -19844.2753895583 -4.78E-05
   228 OT SD       0.15E+00   78.3     0.00000201    -19844.2754374056 -4.78E-05
   229 OT SD       0.15E+00   78.2     0.00000201    -19844.2754852769 -4.79E-05
   230 OT SD       0.15E+00   78.2     0.00000201    -19844.2755331725 -4.79E-05
   231 OT SD       0.15E+00   78.3     0.00000201    -19844.2755810925 -4.79E-05
   232 OT SD       0.15E+00   78.1     0.00000201    -19844.2756290371 -4.79E-05
   233 OT SD       0.15E+00   78.3     0.00000201    -19844.2756770064 -4.80E-05
   234 OT SD       0.15E+00   78.2     0.00000201    -19844.2757250005 -4.80E-05
   235 OT SD       0.15E+00   78.2     0.00000201    -19844.2757730197 -4.80E-05
   236 OT SD       0.15E+00   78.2     0.00000201    -19844.2758210640 -4.80E-05
   237 OT SD       0.15E+00   78.2     0.00000201    -19844.2758691336 -4.81E-05
   238 OT SD       0.15E+00   78.3     0.00000201    -19844.2759172288 -4.81E-05
   239 OT SD       0.15E+00   78.2     0.00000201    -19844.2759653495 -4.81E-05
   240 OT SD       0.15E+00   78.2     0.00000201    -19844.2760134960 -4.81E-05
   241 OT SD       0.15E+00   78.2     0.00000202    -19844.2760616684 -4.82E-05
   242 OT SD       0.15E+00   78.3     0.00000202    -19844.2761098669 -4.82E-05
   243 OT SD       0.15E+00   78.3     0.00000202    -19844.2761580916 -4.82E-05
   244 OT SD       0.15E+00   78.3     0.00000202    -19844.2762063426 -4.83E-05
   245 OT SD       0.15E+00   78.4     0.00000202    -19844.2762546201 -4.83E-05
   246 OT SD       0.15E+00   78.2     0.00000202    -19844.2763029243 -4.83E-05
   247 OT SD       0.15E+00   78.4     0.00000202    -19844.2763512553 -4.83E-05
   248 OT SD       0.15E+00   78.2     0.00000202    -19844.2763996132 -4.84E-05
   249 OT SD       0.15E+00   78.3     0.00000202    -19844.2764479982 -4.84E-05
   250 OT SD       0.15E+00   78.2     0.00000202    -19844.2764964104 -4.84E-05
   251 OT SD       0.15E+00   78.3     0.00000202    -19844.2765448500 -4.84E-05
   252 OT SD       0.15E+00   78.3     0.00000202    -19844.2765933171 -4.85E-05
   253 OT SD       0.15E+00   78.3     0.00000202    -19844.2766418119 -4.85E-05
   254 OT SD       0.15E+00   78.3     0.00000202    -19844.2766903344 -4.85E-05
   255 OT SD       0.15E+00   78.2     0.00000202    -19844.2767388849 -4.86E-05
   256 OT SD       0.15E+00   78.2     0.00000202    -19844.2767874635 -4.86E-05
   257 OT SD       0.15E+00   78.3     0.00000202    -19844.2768360703 -4.86E-05
   258 OT SD       0.15E+00   78.3     0.00000202    -19844.2768847054 -4.86E-05
   259 OT SD       0.15E+00   78.3     0.00000203    -19844.2769333691 -4.87E-05
   260 OT SD       0.15E+00   78.2     0.00000203    -19844.2769820614 -4.87E-05
   261 OT SD       0.15E+00   78.3     0.00000203    -19844.2770307824 -4.87E-05
   262 OT SD       0.15E+00   78.1     0.00000203    -19844.2770795324 -4.87E-05
   263 OT SD       0.15E+00   78.3     0.00000203    -19844.2771283114 -4.88E-05
   264 OT SD       0.15E+00   78.2     0.00000203    -19844.2771771197 -4.88E-05
   265 OT SD       0.15E+00   78.2     0.00000203    -19844.2772259572 -4.88E-05
   266 OT SD       0.15E+00   78.3     0.00000203    -19844.2772748243 -4.89E-05
   267 OT SD       0.15E+00   78.3     0.00000203    -19844.2773237209 -4.89E-05
   268 OT SD       0.15E+00   78.2     0.00000203    -19844.2773726473 -4.89E-05
   269 OT SD       0.15E+00   78.2     0.00000203    -19844.2774216035 -4.90E-05
   270 OT SD       0.15E+00   78.2     0.00000203    -19844.2774705898 -4.90E-05
   271 OT SD       0.15E+00   78.3     0.00000203    -19844.2775196062 -4.90E-05
   272 OT SD       0.15E+00   78.2     0.00000203    -19844.2775686529 -4.90E-05
   273 OT SD       0.15E+00   78.4     0.00000203    -19844.2776177300 -4.91E-05
   274 OT SD       0.15E+00   78.3     0.00000203    -19844.2776668376 -4.91E-05
   275 OT SD       0.15E+00   78.2     0.00000204    -19844.2777159760 -4.91E-05
   276 OT SD       0.15E+00   78.2     0.00000204    -19844.2777651451 -4.92E-05
   277 OT SD       0.15E+00   78.3     0.00000204    -19844.2778143452 -4.92E-05
   278 OT SD       0.15E+00   78.3     0.00000204    -19844.2778635764 -4.92E-05
   279 OT SD       0.15E+00   78.3     0.00000204    -19844.2779128388 -4.93E-05
   280 OT SD       0.15E+00   78.3     0.00000204    -19844.2779621325 -4.93E-05
   281 OT SD       0.15E+00   78.5     0.00000204    -19844.2780114577 -4.93E-05
   282 OT SD       0.15E+00   78.5     0.00000204    -19844.2780608145 -4.94E-05
   283 OT SD       0.15E+00   78.4     0.00000204    -19844.2781102030 -4.94E-05
   284 OT SD       0.15E+00   78.2     0.00000204    -19844.2781596235 -4.94E-05
   285 OT SD       0.15E+00   78.3     0.00000204    -19844.2782090758 -4.95E-05
   286 OT SD       0.15E+00   78.3     0.00000204    -19844.2782585604 -4.95E-05
   287 OT SD       0.15E+00   78.3     0.00000204    -19844.2783080771 -4.95E-05
   288 OT SD       0.15E+00   78.3     0.00000204    -19844.2783576263 -4.95E-05
   289 OT SD       0.15E+00   78.3     0.00000204    -19844.2784072079 -4.96E-05
   290 OT SD       0.15E+00   78.2     0.00000205    -19844.2784568221 -4.96E-05
   291 OT SD       0.15E+00   78.2     0.00000205    -19844.2785064692 -4.96E-05
   292 OT SD       0.15E+00   78.3     0.00000205    -19844.2785561491 -4.97E-05
   293 OT SD       0.15E+00   78.3     0.00000205    -19844.2786058620 -4.97E-05
   294 OT SD       0.15E+00   78.2     0.00000205    -19844.2786556080 -4.97E-05
   295 OT SD       0.15E+00   78.3     0.00000205    -19844.2787053873 -4.98E-05
   296 OT SD       0.15E+00   78.3     0.00000205    -19844.2787552000 -4.98E-05
   297 OT SD       0.15E+00   78.2     0.00000205    -19844.2788050461 -4.98E-05
   298 OT SD       0.15E+00   78.2     0.00000205    -19844.2788549259 -4.99E-05
   299 OT SD       0.15E+00   78.3     0.00000205    -19844.2789048395 -4.99E-05
   300 OT SD       0.15E+00   78.2     0.00000205    -19844.2789547869 -4.99E-05
   301 OT SD       0.15E+00   78.1     0.00000205    -19844.2790047683 -5.00E-05
   302 OT SD       0.15E+00   78.1     0.00000205    -19844.2790547838 -5.00E-05
   303 OT SD       0.15E+00   78.3     0.00000205    -19844.2791048336 -5.00E-05
   304 OT SD       0.15E+00   78.3     0.00000205    -19844.2791549176 -5.01E-05
   305 OT SD       0.15E+00   78.3     0.00000206    -19844.2792050362 -5.01E-05
   306 OT SD       0.15E+00   78.2     0.00000206    -19844.2792551893 -5.02E-05
   307 OT SD       0.15E+00   78.2     0.00000206    -19844.2793053772 -5.02E-05
   308 OT SD       0.15E+00   78.2     0.00000206    -19844.2793555998 -5.02E-05
   309 OT SD       0.15E+00   78.3     0.00000206    -19844.2794058575 -5.03E-05
   310 OT SD       0.15E+00   78.2     0.00000206    -19844.2794561501 -5.03E-05
   311 OT SD       0.15E+00   78.3     0.00000206    -19844.2795064779 -5.03E-05
   312 OT SD       0.15E+00   78.2     0.00000206    -19844.2795568411 -5.04E-05
   313 OT DIIS     0.15E+00   78.2     0.00000206    -19844.2796072396 -5.04E-05
   314 OT DIIS     0.15E+00   78.2     0.00002938    -19844.2190731863  6.05E-02
   315 OT DIIS     0.15E+00   78.2     0.00001175    -19844.2465073006 -2.74E-02
   316 OT SD       0.15E+00   78.3     0.00000812    -19844.2936176559 -4.71E-02
   317 OT SD       0.15E+00   78.2     0.00000762    -19844.2943748206 -7.57E-04
   318 OT SD       0.15E+00   78.2     0.00000717    -19844.2950427369 -6.68E-04
   319 OT SD       0.15E+00   78.3     0.00000677    -19844.2956358882 -5.93E-04
   320 OT DIIS     0.15E+00   78.2     0.00000642    -19844.2961659039 -5.30E-04
   321 OT DIIS     0.15E+00   78.2     0.00000301    -19844.3107620067 -1.46E-02
   322 OT SD       0.15E+00   78.4     0.00000414    -19844.3124161555 -1.65E-03
   323 OT SD       0.15E+00   78.3     0.00000393    -19844.3126142882 -1.98E-04
   324 OT DIIS     0.15E+00   78.2     0.00000375    -19844.3127933039 -1.79E-04
   325 OT SD       0.15E+00   78.3     0.00000231    -19844.3148008906 -2.01E-03
   326 OT DIIS     0.15E+00   78.2     0.00000229    -19844.3148640971 -6.32E-05
   327 OT SD       0.15E+00   78.3     0.00000218    -19844.3171606769 -2.30E-03
   328 OT DIIS     0.15E+00   78.1     0.00000216    -19844.3172167501 -5.61E-05
   329 OT DIIS     0.15E+00   78.3     0.00000201    -19844.3196349700 -2.42E-03
   330 OT DIIS     0.15E+00   78.2     0.00000202    -19844.3201155935 -4.81E-04
   331 OT DIIS     0.15E+00   78.2     0.00000199    -19844.3205413637 -4.26E-04
   332 OT DIIS     0.15E+00   78.2     0.00000195    -19844.3212338063 -6.92E-04
   333 OT DIIS     0.15E+00   78.2     0.00000193    -19844.3212637342 -2.99E-05
   334 OT DIIS     0.15E+00   78.2     0.00000191    -19844.3215895618 -3.26E-04
   335 OT DIIS     0.15E+00   78.2     0.00000192    -19844.3215867362  2.83E-06
   336 OT SD       0.15E+00   78.3     0.00000192    -19844.3219326917 -3.46E-04
   337 OT DIIS     0.15E+00   78.3     0.00000191    -19844.3219763826 -4.37E-05
   338 OT DIIS     0.15E+00   78.3     0.00000179    -19844.3248342613 -2.86E-03
   339 OT DIIS     0.15E+00   78.3     0.00000178    -19844.3253110646 -4.77E-04
   340 OT DIIS     0.15E+00   78.3     0.00000175    -19844.3261674691 -8.56E-04
   341 OT DIIS     0.15E+00   78.3     0.00000170    -19844.3273640592 -1.20E-03
   342 OT DIIS     0.15E+00   78.3     0.00000169    -19844.3279202255 -5.56E-04
   343 OT DIIS     0.15E+00   78.3     0.00000168    -19844.3282937367 -3.74E-04
   344 OT DIIS     0.15E+00   78.2     0.00000162    -19844.3299064246 -1.61E-03
   345 OT DIIS     0.15E+00   78.3     0.00000158    -19844.3308877913 -9.81E-04
   346 OT DIIS     0.15E+00   78.2     0.00000172    -19844.3309425563 -5.48E-05
   347 OT DIIS     0.15E+00   78.3     0.00000154    -19844.3330017348 -2.06E-03
   348 OT DIIS     0.15E+00   78.3     0.00000152    -19844.3331566561 -1.55E-04
   349 OT DIIS     0.15E+00   78.4     0.00000150    -19844.3334189960 -2.62E-04
   350 OT DIIS     0.15E+00   78.3     0.00000148    -19844.3339472067 -5.28E-04
   351 OT DIIS     0.15E+00   78.3     0.00000146    -19844.3349135389 -9.66E-04
   352 OT DIIS     0.15E+00   78.2     0.00000144    -19844.3353406518 -4.27E-04
   353 OT DIIS     0.15E+00   78.2     0.00000140    -19844.3371093604 -1.77E-03
   354 OT DIIS     0.15E+00   78.2     0.00000139    -19844.3372784746 -1.69E-04
   355 OT DIIS     0.15E+00   78.3     0.00000137    -19844.3374616126 -1.83E-04
   356 OT DIIS     0.15E+00   78.2     0.00000136    -19844.3376681419 -2.07E-04
   357 OT DIIS     0.15E+00   78.3     0.00000131    -19844.3388144085 -1.15E-03
   358 OT DIIS     0.15E+00   78.4     0.00000133    -19844.3394154561 -6.01E-04
   359 OT DIIS     0.15E+00   78.2     0.00000127    -19844.3400880693 -6.73E-04
   360 OT DIIS     0.15E+00   78.2     0.00000129    -19844.3405916788 -5.04E-04
   361 OT DIIS     0.15E+00   78.3     0.00000126    -19844.3408932740 -3.02E-04
   362 OT DIIS     0.15E+00   78.4     0.00000126    -19844.3409069907 -1.37E-05
   363 OT DIIS     0.15E+00   78.3     0.00000126    -19844.3413325994 -4.26E-04
   364 OT DIIS     0.15E+00   78.2     0.00000122    -19844.3418370756 -5.04E-04
   365 OT DIIS     0.15E+00   78.3     0.00000121    -19844.3419977962 -1.61E-04
   366 OT DIIS     0.15E+00   78.3     0.00000119    -19844.3428775353 -8.80E-04
   367 OT DIIS     0.15E+00   78.2     0.00000118    -19844.3431275282 -2.50E-04
   368 OT DIIS     0.15E+00   78.2     0.00000116    -19844.3437320178 -6.04E-04
   369 OT DIIS     0.15E+00   81.1     0.00000114    -19844.3439980331 -2.66E-04
   370 OT DIIS     0.15E+00   78.2     0.00000114    -19844.3441442358 -1.46E-04
   371 OT DIIS     0.15E+00   78.2     0.00000113    -19844.3447383336 -5.94E-04
   372 OT SD       0.15E+00   78.3     0.00000111    -19844.3457011239 -9.63E-04
   373 OT DIIS     0.15E+00   78.3     0.00000110    -19844.3457156415 -1.45E-05
   374 OT DIIS     0.15E+00   78.2     0.00000107    -19844.3470386094 -1.32E-03
   375 OT DIIS     0.15E+00   78.3     0.00000107    -19844.3470579572 -1.93E-05
   376 OT DIIS     0.15E+00   78.2     0.00000105    -19844.3479082763 -8.50E-04
   377 OT SD       0.15E+00   78.2     0.00000104    -19844.3484783625 -5.70E-04
   378 OT DIIS     0.15E+00   78.2     0.00000103    -19844.3484911175 -1.28E-05
   379 OT SD       0.15E+00   78.3     0.00000101    -19844.3498436017 -1.35E-03
   380 OT DIIS     0.15E+00   78.3     0.00000101    -19844.3498557694 -1.22E-05
   381 OT SD       0.15E+00   78.2     0.00000099    -19844.3513747096 -1.52E-03

  *** SCF run converged in   381 steps ***


  Electronic density on regular grids:     -10278.9999836889        0.0000163111
  Core density on regular grids:            10278.9999991836       -0.0000008164
  Total charge density on r-space grids:        0.0000154946
  Total charge density g-space grids:           0.0000154946

  Overlap energy of the core charge distribution:               0.00017063496563
  Self energy of the core charge distribution:             -49683.62952043277619
  Core Hamiltonian energy:                                  14539.09919546745368
  Hartree energy:                                           20295.21171773940296
  Exchange-correlation energy:                              -4989.45918204236841
  Dispersion energy:                                           -5.57375607623290

  Total energy:                                            -19844.35137470955306

  Integrated absolute spin density  :                              11.5199553182
  Ideal and single determinant S**2 :                    0.750000       6.455205

 ENERGY| Total FORCE_EVAL ( QS ) energy [a.u.]:           -19844.351386410759005

 -------------------------------------------------------------------------------
 -                                                                             -
 -                                DBCSR STATISTICS                             -
 -                                                                             -
 -------------------------------------------------------------------------------
 COUNTER                                    TOTAL       BLAS       SMM       ACC
 flops     1 x    19 x    19              1637496       0.0%    100.0%      0.0%
 flops     1 x    20 x    20              1814400       0.0%    100.0%      0.0%
 flops     4 x    19 x    19              3919016       0.0%    100.0%      0.0%
 flops     4 x    20 x    20              4342400       0.0%    100.0%      0.0%
 flops     1 x    32 x    32           1486356480       0.0%    100.0%      0.0%
 flops     4 x    32 x    32           3557294080       0.0%    100.0%      0.0%
 flops     1 x    19 x     1           8544433152       0.0%    100.0%      0.0%
 flops     1 x    20 x     1           8982429040       0.0%    100.0%      0.0%
 flops     4 x    19 x     1          25747175424       0.0%    100.0%      0.0%
 flops     1 x    19 x     4          25747175424       0.0%    100.0%      0.0%
 flops     4 x    20 x     1          27067000480       0.0%    100.0%      0.0%
 flops     1 x    20 x     4          27067000480       0.0%    100.0%      0.0%
 flops     1 x     1 x   435          49156138830       0.0%    100.0%      0.0%
 flops     1 x     1 x   436          49269141448       0.0%    100.0%      0.0%
 flops     4 x    19 x     4          79727419392       0.0%    100.0%      0.0%
 flops     4 x    20 x     4          83814323840       0.0%    100.0%      0.0%
 flops     4 x     1 x   435         146715028680       0.0%    100.0%      0.0%
 flops     4 x     1 x   436         147052304608       0.0%    100.0%      0.0%
 flops     1 x     4 x   435         147254828880       0.0%    100.0%      0.0%
 flops     1 x     4 x   436         147593345728       0.0%    100.0%      0.0%
 flops     1 x     1 x   448         405001382912       0.0%    100.0%      0.0%
 flops     4 x     4 x   435         458763528000       0.0%    100.0%      0.0%
 flops     4 x     4 x   436         459818156800       0.0%    100.0%      0.0%
 flops     1 x     1 x   416         658127247232       0.0%    100.0%      0.0%
 flops  1923 x   851 x   555         693897281460       0.0%    100.0%      0.0%
 flops  1925 x   851 x   555         694618963500       0.0%    100.0%      0.0%
 flops  1923 x   852 x   555         694712671920       0.0%    100.0%      0.0%
 flops  1925 x   852 x   555         695435202000       0.0%    100.0%      0.0%
 flops  1923 x   851 x   557         696397812204       0.0%    100.0%      0.0%
 flops  1925 x   851 x   557         697122094900       0.0%    100.0%      0.0%
 flops  1923 x   852 x   557         697216141008       0.0%    100.0%      0.0%
 flops  1925 x   852 x   557         697941274800       0.0%    100.0%      0.0%
 flops     4 x     1 x   448        1208796925952       0.0%    100.0%      0.0%
 flops     1 x     4 x   448        1213244383232       0.0%    100.0%      0.0%
 flops  1923 x   832 x   555        1356809725440       0.0%    100.0%      0.0%
 flops  1925 x   832 x   555        1358220864000       0.0%    100.0%      0.0%
 flops  1923 x   832 x   557        1361699129856       0.0%    100.0%      0.0%
 flops  1925 x   832 x   557        1363115353600       0.0%    100.0%      0.0%
 flops  1924 x   851 x   555        1388516244960       0.0%    100.0%      0.0%
 flops  1924 x   852 x   555        1390147873920       0.0%    100.0%      0.0%
 flops  1924 x   851 x   557        1393519907104       0.0%    100.0%      0.0%
 flops  1924 x   852 x   557        1395157415808       0.0%    100.0%      0.0%
 flops  1923 x   851 x   665        1662852944760       0.0%    100.0%      0.0%
 flops  1925 x   851 x   665        1664582381000       0.0%    100.0%      0.0%
 flops  1923 x   852 x   665        1664806943520       0.0%    100.0%      0.0%
 flops  1925 x   852 x   665        1666538412000       0.0%    100.0%      0.0%
 flops  1299 x   832 x   555        1827070727040       0.0%    100.0%      0.0%
 flops  1300 x   832 x   555        1828477248000       0.0%    100.0%      0.0%
 flops  1299 x   832 x   557        1833654765696       0.0%    100.0%      0.0%
 flops  1300 x   832 x   557        1835066355200       0.0%    100.0%      0.0%
 flops  1299 x   851 x   555        1868794697970       0.0%    100.0%      0.0%
 flops  1300 x   852 x   555        1872431028000       0.0%    100.0%      0.0%
 flops  1299 x   851 x   557        1875529093278       0.0%    100.0%      0.0%
 flops  1300 x   852 x   557        1879178527200       0.0%    100.0%      0.0%
 flops     4 x     1 x   416        1964295004672       0.0%    100.0%      0.0%
 flops     1 x     4 x   416        1971522122752       0.0%    100.0%      0.0%
 flops  1923 x   832 x   435        2648870040960       0.0%    100.0%      0.0%
 flops  1925 x   832 x   435        2651624976000       0.0%    100.0%      0.0%
 flops  1923 x   832 x   436        2654959397376       0.0%    100.0%      0.0%
 flops  1925 x   832 x   436        2657720665600       0.0%    100.0%      0.0%
 flops  1923 x   851 x   435        2709361063530       0.0%    100.0%      0.0%
 flops  1925 x   851 x   435        2712178911750       0.0%    100.0%      0.0%
 flops  1924 x   832 x   555        2715030589440       0.0%    100.0%      0.0%
 flops  1923 x   852 x   436        2718780536736       0.0%    100.0%      0.0%
 flops  1925 x   852 x   436        2721608181600       0.0%    100.0%      0.0%
 flops  1924 x   832 x   557        2724814483456       0.0%    100.0%      0.0%
 flops  1299 x   832 x   435        3225119788800       0.0%    100.0%      0.0%
 flops  1300 x   832 x   436        3235022336000       0.0%    100.0%      0.0%
 flops  1923 x   832 x   665        3251453936640       0.0%    100.0%      0.0%
 flops  1925 x   832 x   665        3254835584000       0.0%    100.0%      0.0%
 flops  1299 x   851 x   435        3298770360900       0.0%    100.0%      0.0%
 flops  1300 x   852 x   436        3312787296000       0.0%    100.0%      0.0%
 flops  1924 x   851 x   665        3327435325760       0.0%    100.0%      0.0%
 flops  1924 x   852 x   665        3331345355520       0.0%    100.0%      0.0%
 flops     4 x     4 x   448        3779789619200       0.0%    100.0%      0.0%
 flops  1299 x   832 x   665        4378385706240       0.0%    100.0%      0.0%
 flops  1300 x   832 x   665        4381756288000       0.0%    100.0%      0.0%
 flops  1299 x   851 x   665        4478372879820       0.0%    100.0%      0.0%
 flops  1300 x   852 x   665        4487086968000       0.0%    100.0%      0.0%
 flops     1 x    32 x     1        4602001715200       0.0%    100.0%      0.0%
 flops  1924 x   832 x   435        5300495016960       0.0%    100.0%      0.0%
 flops  1924 x   832 x   436        5312680062976       0.0%    100.0%      0.0%
 flops  1924 x   851 x   435        5421539975280       0.0%    100.0%      0.0%
 flops  1924 x   852 x   436        5440388718336       0.0%    100.0%      0.0%
 flops  1280 x   851 x   555        5524381555200       0.0%    100.0%      0.0%
 flops  1280 x   852 x   555        5530873190400       0.0%    100.0%      0.0%
 flops  1280 x   851 x   557        5544289236480       0.0%    100.0%      0.0%
 flops  1280 x   852 x   557        5550804264960       0.0%    100.0%      0.0%
 flops  1923 x   864 x   555        5635978859520       0.0%    100.0%      0.0%
 flops  1925 x   864 x   555        5641840512000       0.0%    100.0%      0.0%
 flops  1923 x   864 x   557        5656288693248       0.0%    100.0%      0.0%
 flops  1925 x   864 x   557        5662171468800       0.0%    100.0%      0.0%
 flops     4 x     4 x   416        6142158131200       0.0%    100.0%      0.0%
 flops  1924 x   832 x   665        6506289520640       0.0%    100.0%      0.0%
 flops  1299 x   864 x   555        7589370712320       0.0%    100.0%      0.0%
 flops  1300 x   864 x   555        7595213184000       0.0%    100.0%      0.0%
 flops  1299 x   864 x   557        7616719795968       0.0%    100.0%      0.0%
 flops  1300 x   864 x   557        7622583321600       0.0%    100.0%      0.0%
 flops  1280 x   832 x   435        9533841408000       0.0%    100.0%      0.0%
 flops  1280 x   832 x   436        9555758284800       0.0%    100.0%      0.0%
 flops  1280 x   851 x   435        9751561344000       0.0%    100.0%      0.0%
 flops  1280 x   852 x   436        9785464012800       0.0%    100.0%      0.0%
 flops  1280 x   832 x   555       10802080972800       0.0%    100.0%      0.0%
 flops  1280 x   832 x   557       10841007390720       0.0%    100.0%      0.0%
 flops  1923 x   864 x   435       11002998631680       0.0%    100.0%      0.0%
 flops  1925 x   864 x   435       11014442208000       0.0%    100.0%      0.0%
 flops  1923 x   864 x   436       11028292881408       0.0%    100.0%      0.0%
 flops  1925 x   864 x   436       11039762764800       0.0%    100.0%      0.0%
 flops  1923 x   851 x   448       11161321898496       0.0%    100.0%      0.0%
 flops  1925 x   851 x   448       11172930137600       0.0%    100.0%      0.0%
 flops  1923 x   852 x   448       11174437435392       0.0%    100.0%      0.0%
 flops  1925 x   852 x   448       11186059315200       0.0%    100.0%      0.0%
 flops  1924 x   864 x   555       11277819371520       0.0%    100.0%      0.0%
 flops  1924 x   864 x   557       11318460162048       0.0%    100.0%      0.0%
 flops  1280 x   851 x   665       13238608051200       0.0%    100.0%      0.0%
 flops  1280 x   852 x   665       13254164582400       0.0%    100.0%      0.0%
 flops  1299 x   832 x   448       13286010716160       0.0%    100.0%      0.0%
 flops  1300 x   832 x   448       13296238592000       0.0%    100.0%      0.0%
 flops  1299 x   864 x   435       13396651430400       0.0%    100.0%      0.0%
 flops  1300 x   864 x   436       13437785088000       0.0%    100.0%      0.0%
 flops  1923 x   864 x   665       13506039429120       0.0%    100.0%      0.0%
 flops  1925 x   864 x   665       13520086272000       0.0%    100.0%      0.0%
 flops  1299 x   851 x   448       13589417210880       0.0%    100.0%      0.0%
 flops  1300 x   852 x   448       13615859712000       0.0%    100.0%      0.0%
 flops     4 x    32 x     1       13867338342400       0.0%    100.0%      0.0%
 flops     1 x    32 x     4       13867338342400       0.0%    100.0%      0.0%
 flops  1923 x   851 x   416       18137148085056       0.0%    100.0%      0.0%
 flops  1925 x   851 x   416       18156011473600       0.0%    100.0%      0.0%
 flops  1923 x   852 x   416       18158460832512       0.0%    100.0%      0.0%
 flops  1925 x   852 x   416       18177346387200       0.0%    100.0%      0.0%
 flops  1299 x   864 x   665       18187140625920       0.0%    100.0%      0.0%
 flops  1300 x   864 x   665       18201141504000       0.0%    100.0%      0.0%
 flops  1299 x   832 x   416       21589767413760       0.0%    100.0%      0.0%
 flops  1300 x   832 x   416       21606387712000       0.0%    100.0%      0.0%
 flops  1923 x   832 x   448       21824253394944       0.0%    100.0%      0.0%
 flops  1925 x   832 x   448       21846951526400       0.0%    100.0%      0.0%
 flops  1924 x   864 x   435       22017440839680       0.0%    100.0%      0.0%
 flops  1924 x   864 x   436       22068055646208       0.0%    100.0%      0.0%
 flops  1299 x   851 x   416       22082802967680       0.0%    100.0%      0.0%
 flops  1300 x   852 x   416       22125772032000       0.0%    100.0%      0.0%
 flops  1924 x   851 x   448       22334252036096       0.0%    100.0%      0.0%
 flops  1924 x   852 x   448       22360496750592       0.0%    100.0%      0.0%
 flops  1280 x   832 x   665       25886067916800       0.0%    100.0%      0.0%
 flops  1924 x   864 x   665       27026125701120       0.0%    100.0%      0.0%
 flops  1923 x   832 x   416       35464411766784       0.0%    100.0%      0.0%
 flops  1925 x   832 x   416       35501296230400       0.0%    100.0%      0.0%
 flops  1924 x   851 x   416       36293159558656       0.0%    100.0%      0.0%
 flops  1924 x   852 x   416       36335807219712       0.0%    100.0%      0.0%
 flops  1280 x   864 x   435       39602110464000       0.0%    100.0%      0.0%
 flops  1280 x   864 x   436       39693149798400       0.0%    100.0%      0.0%
 flops  1280 x   851 x   448       40171949260800       0.0%    100.0%      0.0%
 flops  1280 x   852 x   448       40219154841600       0.0%    100.0%      0.0%
 flops     4 x    32 x     4       42940908339200       0.0%    100.0%      0.0%
 flops  1924 x   832 x   448       43671204921344       0.0%    100.0%      0.0%
 flops  1280 x   864 x   555       44870182502400       0.0%    100.0%      0.0%
 flops  1280 x   864 x   557       45031876853760       0.0%    100.0%      0.0%
 flops  1299 x   864 x   448       55188044513280       0.0%    100.0%      0.0%
 flops  1300 x   864 x   448       55230529536000       0.0%    100.0%      0.0%
 flops  1280 x   851 x   416       65279417548800       0.0%    100.0%      0.0%
 flops  1280 x   852 x   416       65356126617600       0.0%    100.0%      0.0%
 flops  1924 x   832 x   416       70965707997184       0.0%    100.0%      0.0%
 flops  1280 x   832 x   448       78550086451200       0.0%    100.0%      0.0%
 flops  1299 x   864 x   416       89680572334080       0.0%    100.0%      0.0%
 flops  1300 x   864 x   416       89749610496000       0.0%    100.0%      0.0%
 flops  1923 x   864 x   448       90654591025152       0.0%    100.0%      0.0%
 flops  1925 x   864 x   448       90748875571200       0.0%    100.0%      0.0%
 flops  1280 x   864 x   665      107526743654400       0.0%    100.0%      0.0%
 flops  1280 x   832 x   416      127643890483200       0.0%    100.0%      0.0%
 flops  1923 x   864 x   416      147313710415872       0.0%    100.0%      0.0%
 flops  1925 x   864 x   416      147466922803200       0.0%    100.0%      0.0%
 flops  1924 x   864 x   448      181403466596352       0.0%    100.0%      0.0%
 flops  1924 x   864 x   416      294780633219072       0.0%    100.0%      0.0%
 flops  1280 x   864 x   448      326284974489600       0.0%    100.0%      0.0%
 flops  1280 x   864 x   416      530213083545600       0.0%    100.0%      0.0%
 flops inhomo. stacks            1321045338629856     100.0%      0.0%      0.0%
 flops total                         5.366110E+15      24.6%     75.4%      0.0%
 flops max/rank                    227.053889E+12      24.7%     75.3%      0.0%
 matmuls inhomo. stacks                    731520     100.0%      0.0%      0.0%
 matmuls total                       227747676947       0.0%    100.0%      0.0%
 number of processed stacks             244719854       0.3%     99.7%      0.0%
 average stack size                                     1.0     933.4       0.0
 marketing flops                     6.516601E+15
 -------------------------------------------------------------------------------
 # multiplications                          16781
 max memory usage/rank               3.503587E+09
 # max total images/rank                        3
 # max 3D layers                                1
 # MPI messages exchanged                 7652136
 MPI messages size (bytes):
  total size                        33.969614E+12
  min size                           0.000000E+00
  max size                          11.488400E+06
  average size                       4.439233E+06
 MPI breakdown and total messages size (bytes):
             size <=      128                1272                        0
       128 < size <=     8192                   0                        0
      8192 < size <=    32768                   0                        0
     32768 < size <=   131072                  72                  7882584
    131072 < size <=  4194304             3073236            8645725825112
   4194304 < size <= 16777216             4577556           25325177625216
  16777216 < size                               0                        0
 -------------------------------------------------------------------------------

 *** WARNING in dbcsr_mm.F:294 :: Using a non-square number of MPI ranks ***
 *** might lead to poor performance. Used ranks: 24 Suggested: 25 49     ***

 -------------------------------------------------------------------------------
 -                                                                             -
 -                      DBCSR MESSAGE PASSING PERFORMANCE                      -
 -                                                                             -
 -------------------------------------------------------------------------------
 ROUTINE             CALLS      AVE VOLUME [Bytes]
 MP_Bcast              175                     12.
 MP_Allreduce        91819                    343.
 MP_Alltoall         54200                1923210.
 MP_ISend           777902                2021089.
 MP_IRecv           762704                2053772.
 -------------------------------------------------------------------------------

 -------------------------------------------------------------------------------
 -                                                                             -
 -                                GRID STATISTICS                              -
 -                                                                             -
 -------------------------------------------------------------------------------
 LP    KERNEL             BACKEND                              COUNT     PERCENT
 1     collocate ortho    REF                             1755554344      23.31%
 1     integrate ortho    REF                             1754634852      23.29%
 0     collocate ortho    REF                             1404308400      18.64%
 0     integrate ortho    REF                             1400632200      18.59%
 2     integrate ortho    REF                              609503296       8.09%
 2     collocate ortho    REF                              606495288       8.05%
 3     integrate ortho    REF                                1587684       0.02%
 0     collocate general  REF                                  87000       0.00%
 1     integrate general  REF                                  87000       0.00%
 -------------------------------------------------------------------------------

 MEMORY| Estimated peak process memory [MiB]                                3342

 -------------------------------------------------------------------------------
 -                                                                             -
 -                         MESSAGE PASSING PERFORMANCE                         -
 -                                                                             -
 -------------------------------------------------------------------------------

 ROUTINE             CALLS      AVE VOLUME [Bytes]
 MP_Group                4
 MP_Bcast            49379                  33727.
 MP_Allreduce       125827                   3452.
 MP_Sync               764
 MP_Alltoall         14151              164001972.
 MP_SendRecv            92                  51505.
 MP_ISendRecv        70288                 801600.
 MP_Wait            125332
 MP_ISend            42812                3794111.
 MP_IRecv            42812                3794111.
 MP_Recv              6160                1970176.
 -------------------------------------------------------------------------------


 -------------------------------------------------------------------------------
 -                                                                             -
 -                           R E F E R E N C E S                               -
 -                                                                             -
 -------------------------------------------------------------------------------
 
 CP2K version 8.2, the CP2K developers group (2021).
 CP2K is freely available from https://www.cp2k.org/ .

 Kuehne,Thomas D.; Iannuzzi,Marcella; Del Ben,Mauro;
 Rybkin,Vladimir V.; Seewald,Patrick; Stein,Frederick; Laino,Teodoro;
 Khaliullin,Rustam Z.; Schuett,Ole; Schiffmann,Florian; Golze,Dorothea;
 Wilhelm,Jan; Chulkov,Sergey; Bani-Hashemian,Mohammad Hossein;
 Weber,Valery; Borstnik,Urban; Taillefumier,Mathieu;
 Jakobovits,Alice Shoshana; Lazzaro,Alfio; Pabst,Hans; Mueller,Tiziano;
 Schade,Robert; Guidon,Manuel; Andermatt,Samuel; Holmberg,Nico;
 Schenter,Gregory K.; Hehn,Anna; Bussy,Augustin; Belleflamme,Fabian;
 Tabacchi,Gloria; Gloess,Andreas; Lass,Michael; Bethune,Iain;
 Mundy,Christopher J.; Plessl,Christian; Watkins,Matt;
 VandeVondele,Joost; Krack,Matthias; Hutter,Juerg. 
 The Journal of Chemical Physics, 152 (19), (2020). 
 CP2K: An electronic structure and molecular dynamics software package -
 Quickstep: Efficient and accurate electronic structure calculations.
 https://doi.org/10.1063/5.0007045

 Goerigk, Lars; Hansen, Andreas; Bauer, Christoph; Ehrlich, Stephan;
 Najibi, Asim; Grimme, Stefan. , 19 (48), (2017). 
 A look at the density functional theory zoo with the advanced GMTKN55 database
 for general main group thermochemistry, kinetics and noncovalent interactions.
 https://doi.org/10.1039/C7CP04913G

 Schuett, Ole; Messmer, Peter; Hutter, Juerg; VandeVondele, Joost. 
 Electronic Structure Calculations on Graphics Processing Units, John
 Wiley & Sons, Ltd, 173-190 (2016). 
 GPU-Accelerated Sparse Matrix-Matrix Multiplication for
 Linear Scaling Density Functional Theory.
 https://doi.org/10.1002/9781118670712.ch8

 Heinecke, A; Henry, G; Hutchinson, M; Pabst, H. 
 Proceedings of Intl. Supercomputing Conference, 981-991 (2016). 
 LIBXSMM: Accelerating Small Matrix Multiplications
 by Runtime Code Generation.
 https://doi.org/10.1109/SC.2016.83

 Borstnik, U; VandeVondele, J; Weber, V; Hutter, J. 
 PARALLEL COMPUTING, 40 (5-6), 47-58 (2014). 
 Sparse matrix multiplication: The distributed block-compressed sparse
 row library.
 https://doi.org/10.1016/j.parco.2014.03.012

 Hutter, J; Iannuzzi, M; Schiffmann, F; VandeVondele, J. 
 WIREs Comput Mol Sci., 4 (1), 15-25 (2014). 
 CP2K: atomistic simulations of condensed matter systems.
 https://doi.org/10.1002/wcms.1159

 Grimme, S; Ehrlich, S; Goerigk, L. 
 JOURNAL OF COMPUTATIONAL CHEMISTRY, 32, 1456 (2011). 
 Effect of the damping function in dispersion corrected density functional theory.
 https://doi.org/10.1002/jcc.21759

 Grimme, S; Antony, J; Ehrlich, S; Krieg, H. 
 JOURNAL OF CHEMICAL PHYSICS, 132 (15), 154104 (2010). 
 A consistent and accurate ab initio parametrization of density
 functional dispersion correction (DFT-D) for the 94 elements H-Pu.
 https://doi.org/10.1063/1.3382344

 VandeVondele, J; Hutter, J. 
 JOURNAL OF CHEMICAL PHYSICS, 127 (11), 114105 (2007). 
 Gaussian basis sets for accurate calculations on molecular systems in
 gas and condensed phases.
 https://doi.org/10.1063/1.2770708

 Krack, M. 
 THEORETICAL CHEMISTRY ACCOUNTS, 114 (1-3), 145-152 (2005). 
 Pseudopotentials for H to Kr optimized for gradient-corrected
 exchange-correlation functionals.
 https://doi.org/10.1007/s00214-005-0655-y

 VandeVondele, J; Krack, M; Mohamed, F; Parrinello, M; Chassaing, T;
 Hutter, J. COMPUTER PHYSICS COMMUNICATIONS, 167 (2), 103-128 (2005). 
 QUICKSTEP: Fast and accurate density functional calculations using a
 mixed Gaussian and plane waves approach.
 https://doi.org/10.1016/j.cpc.2004.12.014

 Frigo, M; Johnson, SG. 
 PROCEEDINGS OF THE IEEE, 93 (2), 216-231 (2005). 
 The design and implementation of FFTW3.
 https://doi.org/10.1109/JPROC.2004.840301

 VandeVondele, J; Hutter, J. 
 JOURNAL OF CHEMICAL PHYSICS, 118 (10), 4365-4369 (2003). 
 An efficient orbital transformation method for electronic structure
 calculations.
 https://doi.org/10.1063/1.1543154

 Hartwigsen, C; Goedecker, S; Hutter, J. 
 PHYSICAL REVIEW B, 58 (7), 3641-3662 (1998). 
 Relativistic separable dual-space Gaussian pseudopotentials from H to Rn.
 https://doi.org/10.1103/PhysRevB.58.3641

 Lippert, G; Hutter, J; Parrinello, M. 
 MOLECULAR PHYSICS, 92 (3), 477-487 (1997). 
 A hybrid Gaussian and plane wave density functional scheme.
 https://doi.org/10.1080/002689797170220

 Perdew, JP; Burke, K; Ernzerhof, M. 
 PHYSICAL REVIEW LETTERS, 77 (18), 3865-3868 (1996). 
 Generalized gradient approximation made simple.
 https://doi.org/10.1103/PhysRevLett.77.3865

 Goedecker, S; Teter, M; Hutter, J. 
 PHYSICAL REVIEW B, 54 (3), 1703-1710 (1996). 
 Separable dual-space Gaussian pseudopotentials.
 https://doi.org/10.1103/PhysRevB.54.1703


 -------------------------------------------------------------------------------
 -                                                                             -
 -                                T I M I N G                                  -
 -                                                                             -
 -------------------------------------------------------------------------------
 SUBROUTINE                       CALLS  ASD         SELF TIME        TOTAL TIME
                                MAXIMUM       AVERAGE  MAXIMUM  AVERAGE  MAXIMUM
 CP2K                                 1  1.0     0.25     0.26 30301.24 30301.32
 qs_forces                            1  2.0     0.00     0.00 30298.29 30298.37
 qs_energies                          1  3.0     0.00     0.00 30263.34 30263.42
 scf_env_do_scf                       1  4.0     0.00     0.00 30220.02 30220.10
 scf_env_do_scf_inner_loop          381  5.0     0.01     0.07 30184.57 30184.73
 qs_scf_new_mos                     381  6.0     0.00     0.01 13339.84 13348.29
 qs_scf_loop_do_ot                  381  7.0     0.01     0.01 13339.84 13348.29
 ot_scf_mini                        381  8.0     0.05     0.05 12894.86 12901.66
 rebuild_ks_matrix                  382  7.0     0.00     0.00 11537.29 11541.73
 qs_ks_build_kohn_sham_matrix       382  8.0     0.11     0.12 11537.29 11541.73
 qs_ks_update_qs_env                382  6.0     0.00     0.01 11506.66 11511.09
 dbcsr_multiply_generic           16781 11.1     2.29     2.44 10792.77 10825.17
 multiply_cannon                  16781 12.1     2.56     2.69  8666.86  8797.75
 multiply_cannon_loop             16781 13.1     3.96     4.32  8402.47  8526.16
 multiply_cannon_multrec         201372 14.1  7485.98  7597.51  7486.53  7598.06
 ot_mini                            381  9.0     0.01     0.01  7121.81  7130.61
 pw_transfer                      13371 10.7     1.46     1.56  6499.06  6986.69
 fft_wrap_pw1pw2                  12607 11.8     0.25     0.29  6463.71  6951.29
 fft_wrap_pw1pw2_140               8023 12.9   584.20   603.59  6176.87  6671.16
 qs_vxc_create                      382  9.0     0.02     0.02  5940.38  5942.47
 xc_vxc_pw_create                   382 10.0   113.68   118.92  5940.36  5942.46
 qs_ot_get_derivative               762 10.0     0.01     0.02  5924.76  5934.82
 qs_rho_update_rho                  382  6.0     0.00     0.00  5333.66  5335.11
 calculate_rho_elec                 764  7.0    14.25    14.34  5333.65  5335.11
 fft3d_ps                         12607 13.8  2629.75  2667.54  4694.18  5191.34
 sum_up_and_integrate               382  9.0    15.98    16.25  4568.23  4568.36
 integrate_v_rspace                 764 10.0     0.04     0.05  4552.24  4552.44
 qs_ot_get_derivative_diag          758 11.0     0.05     0.07  4422.14  4431.99
 qs_ot_get_p                        764  9.0     0.01     0.01  4111.64  4128.12
 grid_collocate_task_list           764  8.0  3516.29  3656.76  3516.29  3656.76
 qs_ot_p2m_diag                     760 10.0    67.86    69.66  3477.68  3483.76
 grid_integrate_task_list           764 11.0  3251.17  3416.62  3251.17  3416.62
 xc_rho_set_and_dset_create         382 11.0    48.44    49.08  3188.69  3307.77
 cp_dbcsr_syevd                     760 11.0     0.08     0.11  2674.22  2674.29
 cp_fm_syevd                        760 12.0     0.05     0.07  2582.92  2583.67
 cp_fm_syevd_base                   760 13.0  2581.87  2582.65  2581.87  2582.65
 density_rs2pw                      764  8.0     0.06     0.07  1788.93  1945.67
 make_m2s                         33562 12.1     2.10     2.26  1461.63  1479.64
 yz_to_x                           6113 14.1   501.05   511.53   940.38  1436.80
 mp_alltoall_z22v                 12607 15.8   774.37  1308.30   774.37  1308.30
 mp_waitall_1                   1022256 15.1  1133.94  1271.99  1133.94  1271.99
 ot_diis_step                       381 10.0     0.08     0.10  1186.41  1186.83
 xc_functional_eval                 382 12.0     0.01     0.01  1063.80  1182.65
 pbe_lsd_eval                       382 13.0  1063.79  1182.64  1063.79  1182.64
 x_to_yz                           6494 15.3   788.62   793.51  1123.67  1152.09
 qs_ot_get_orbitals                 762  9.0     0.01     0.01  1106.24  1113.19
 potential_pw2rs                    764 11.0     1.55     1.89  1103.72  1104.00
 apply_preconditioner_dbcsr         764 11.0     0.00     0.00   989.60   999.62
 apply_single                       764 12.0     0.00     0.01   989.60   999.62
 rs_pw_transfer                    6114 10.5     0.17     0.19   802.06   957.84
 make_images                      33562 13.1    88.43    89.91   875.70   915.03
 dbcsr_make_dense_low             90686 14.2     2.17     2.33   866.78   897.32
 make_dense_data                  90686 15.2   861.84   892.25   863.91   894.32
 multiply_cannon_metrocomm3      201372 14.1     0.87     0.95   742.33   863.22
 pw_gather_p                       6113 13.1   620.53   650.45   620.53   650.45
 -------------------------------------------------------------------------------

 The number of warnings for this run is : 1
 
 -------------------------------------------------------------------------------
  **** **** ******  **  PROGRAM ENDED AT                 2023-12-04 09:58:37.236
 ***** ** ***  *** **   PROGRAM RAN ON                  pe87.int.triton.aalto.fi
 **    ****   ******    PROGRAM RAN BY                                   huangj4
 ***** **    ** ** **   PROGRAM PROCESS ID                                 31895
  **** **  *******  **  PROGRAM STOPPED IN /scratch/phys/sin/Jie/Github/cp2kTest
                                           /ab_energy/Cluster_444
