 DBCSR| CPU Multiplication driver                                           XSMM
 DBCSR| Multrec recursion limit                                              512
 DBCSR| Multiplication stack size                                           1000
 DBCSR| Maximum elements for images                                    UNLIMITED
 DBCSR| Multiplicative factor virtual images                                   1
 DBCSR| Use multiplication densification                                       T
 DBCSR| Multiplication size stacks                                             3
 DBCSR| Use memory pool for CPU allocation                                     F
 DBCSR| Number of 3D layers                                               SINGLE
 DBCSR| Use MPI memory allocation                                              F
 DBCSR| Use RMA algorithm                                                      F
 DBCSR| Use Communication thread                                               T
 DBCSR| Communication thread load                                             87
 DBCSR| MPI: My node id                                                        0
 DBCSR| MPI: Number of nodes                                                  48
 DBCSR| OMP: Current number of threads                                         1
 DBCSR| OMP: Max number of threads                                             1
 DBCSR| Split modifier for TAS multiplication algorithm                  1.0E+00


  **** **** ******  **  PROGRAM STARTED AT               2023-12-04 13:31:54.516
 ***** ** ***  *** **   PROGRAM STARTED ON              csl7.int.triton.aalto.fi
 **    ****   ******    PROGRAM STARTED BY                               huangj4
 ***** **    ** ** **   PROGRAM PROCESS ID                                166921
  **** **  *******  **  PROGRAM STARTED IN /scratch/phys/sin/Jie/Github/cp2kTest
                                           /ab_energy/Cluster_444

 CP2K| version string:                                          CP2K version 8.2
 CP2K| source code revision number:                                  git:310b7ab
 CP2K| cp2kflags: omp libint fftw3 libxc parallel mpi3 scalapack xsmm           
 CP2K| is freely available from                            https://www.cp2k.org/
 CP2K| Program compiled at                          Thu May 12 10:08:29 UTC 2022
 CP2K| Program compiled on                                          80d7174ae3e8
 CP2K| Program compiled for                            linux-centos7-haswell-gcc
 CP2K| Data directory path    /share/apps/spack/envs/fgci-centos7-haswell/softwa
 CP2K| Input file name                                      calEnergy_MAPbI3.inp

 GLOBAL| Force Environment number                                              1
 GLOBAL| Basis set file name                                        BASIS_MOLOPT
 GLOBAL| Potential file name                                      GTH_POTENTIALS
 GLOBAL| MM Potential file name                                     MM_POTENTIAL
 GLOBAL| Coordinate file name                               ./relaxed_MAPbI3.xyz
 GLOBAL| Method name                                                        CP2K
 GLOBAL| Project name                                                  calEnergy
 GLOBAL| Run type                                                   ENERGY_FORCE
 GLOBAL| FFT library                                                       FFTW3
 GLOBAL| Diagonalization library                                       ScaLAPACK
 GLOBAL| Orthonormality check for eigenvectors                          DISABLED
 GLOBAL| Matrix multiplication library                                    SCALAP
 GLOBAL| All-to-all communication in single precision                          F
 GLOBAL| FFTs using library dependent lengths                                  F
 GLOBAL| Grid backend                                                       AUTO
 GLOBAL| Global print level                                                  LOW
 GLOBAL| MPI I/O enabled                                                       T
 GLOBAL| Total number of message passing processes                            48
 GLOBAL| Number of threads for this process                                    1
 GLOBAL| This output is from process                                           0
 GLOBAL| CPU model name                 Intel(R) Xeon(R) Gold 6248 CPU @ 2.50GHz
 GLOBAL| CPUID                                                              1003
 GLOBAL| Compiled for CPUID                                                 1002

 *** HINT in environment.F:872 :: The compiler target flags (x86_avx2)     ***
 *** used to build this binary cannot exploit all extensions of this CPU   ***
 *** model (x86_avx512). Consider compiler target flags as part of FCFLAGS ***
 *** and CFLAGS (ARCH file).                                               ***


 MEMORY| system memory details [Kb]
 MEMORY|                        rank 0           min           max       average
 MEMORY| MemTotal            196637612     196637596     196637612     196637604
 MEMORY| MemFree             146032328     130677644     146032328     138385426
 MEMORY| Buffers                     0             0             0             0
 MEMORY| Cached               15987148      15987148      22302328      19144738
 MEMORY| Slab                   881368        881368       1104512        992940
 MEMORY| SReclaimable           291104        291104        384152        337628
 MEMORY| MemLikelyFree       162310580     153364124     162310580     157867792


 GENERATE|  Preliminary Number of Bonds generated:                             0
 GENERATE|  Achieved consistency in connectivity generation.

 *******************************************************************************
 *******************************************************************************
 **                                                                           **
 **     #####                         ##              ##                      **
 **    ##   ##            ##          ##              ##                      **
 **   ##     ##                       ##            ######                    **
 **   ##     ##  ##   ##  ##   #####  ##  ##   ####   ##    #####    #####    **
 **   ##     ##  ##   ##  ##  ##      ## ##   ##      ##   ##   ##  ##   ##   **
 **   ##  ## ##  ##   ##  ##  ##      ####     ###    ##   ######   ######    **
 **    ##  ###   ##   ##  ##  ##      ## ##      ##   ##   ##       ##        **
 **     #######   #####   ##   #####  ##  ##  ####    ##    #####   ##        **
 **           ##                                                    ##        **
 **                                                                           **
 **                                                ... make the atoms dance   **
 **                                                                           **
 **            Copyright (C) by CP2K developers group (2000-2021)             **
 **                      J. Chem. Phys. 152, 194103 (2020)                    **
 **                                                                           **
 *******************************************************************************


 TOTAL NUMBERS AND MAXIMUM NUMBERS

  Total number of            - Atomic kinds:                                   5
                             - Atoms:                                        952
                             - Shell sets:                                   952
                             - Shells:                                      1418
                             - Primitive Cartesian functions:               6056
                             - Cartesian basis functions:                   2350
                             - Spherical basis functions:                   2350

  Maximum angular momentum of- Orbital basis functions:                        1
                             - Local part of the GTH pseudopotential:          2
                             - Non-local part of the GTH pseudopotential:      4


 SCF PARAMETERS         Density guess:                                    ATOMIC
                        --------------------------------------------------------
                        max_scf:                                            1000
                        max_scf_history:                                       0
                        max_diis:                                              4
                        --------------------------------------------------------
                        eps_scf:                                        1.00E-06
                        eps_scf_history:                                0.00E+00
                        eps_diis:                                       1.00E-01
                        eps_eigval:                                     1.00E-05
                        --------------------------------------------------------
                        level_shift [a.u.]:                                 0.00
                        --------------------------------------------------------
                        No outer SCF

 Spin 1

 Number of electrons:                                                       1576
 Number of occupied orbitals:                                               1576
 Number of molecular orbitals:                                              1576

 Spin 2

 Number of electrons:                                                       1575
 Number of occupied orbitals:                                               1575
 Number of molecular orbitals:                                              1575

 Number of orbital functions:                                               2350
 Number of independent orbital functions:                                   2350

 Extrapolation method: initial_guess


 SCF WAVEFUNCTION OPTIMIZATION

  ----------------------------------- OT ---------------------------------------
  Minimizer      : DIIS                : direct inversion
                                         in the iterative subspace
                                         using   7 DIIS vectors
                                         safer DIIS on
  Preconditioner : FULL_KINETIC        : inversion of T + eS
  Precond_solver : DEFAULT
  stepsize       :    0.15000000                  energy_gap     :    0.20000000
  eps_taylor     :   0.10000E-15                  max_taylor     :             4
  ----------------------------------- OT ---------------------------------------

  Step     Update method      Time    Convergence         Total energy    Change
  ------------------------------------------------------------------------------
     1 OT DIIS     0.15E+00   12.8     0.00470457     -4362.5946614296 -4.36E+03
     2 OT DIIS     0.15E+00   15.5     0.00428850     -4385.7201145554 -2.31E+01
     3 OT DIIS     0.15E+00   15.6     0.00380308     -4418.2585979100 -3.25E+01
     4 OT DIIS     0.15E+00   15.2     0.00263964     -4471.5103939090 -5.33E+01
     5 OT DIIS     0.15E+00   15.2     0.00198442     -4494.3818528688 -2.29E+01
     6 OT DIIS     0.15E+00   14.8     0.00148664     -4508.4080281263 -1.40E+01
     7 OT DIIS     0.15E+00   15.1     0.00099539     -4519.0488191867 -1.06E+01
     8 OT DIIS     0.15E+00   15.2     0.00089622     -4520.6608662891 -1.61E+00
     9 OT DIIS     0.15E+00   14.7     0.00068259     -4524.7432164621 -4.08E+00
    10 OT DIIS     0.15E+00   14.9     0.00049725     -4527.2082767752 -2.47E+00
    11 OT DIIS     0.15E+00   15.0     0.00042388     -4528.7264112678 -1.52E+00
    12 OT DIIS     0.15E+00   14.8     0.00035962     -4529.5912141384 -8.65E-01
    13 OT DIIS     0.15E+00   12.2     0.00031784     -4530.4381933200 -8.47E-01
    14 OT DIIS     0.15E+00   11.9     0.00027385     -4530.8390985610 -4.01E-01
    15 OT DIIS     0.15E+00   12.6     0.00027000     -4531.2004378229 -3.61E-01
    16 OT DIIS     0.15E+00   13.8     0.00022790     -4531.6921795153 -4.92E-01
    17 OT DIIS     0.15E+00   14.2     0.00020418     -4531.9123674686 -2.20E-01
    18 OT DIIS     0.15E+00   13.8     0.00018294     -4532.2403368552 -3.28E-01
    19 OT DIIS     0.15E+00   11.9     0.00016259     -4532.5027218941 -2.62E-01
    20 OT DIIS     0.15E+00   11.9     0.00013062     -4532.9000924070 -3.97E-01
    21 OT DIIS     0.15E+00   12.4     0.00011836     -4533.0162724386 -1.16E-01
    22 OT DIIS     0.15E+00   14.3     0.00010669     -4533.1401234659 -1.24E-01
    23 OT DIIS     0.15E+00   15.2     0.00009979     -4533.2003509503 -6.02E-02
    24 OT DIIS     0.15E+00   15.5     0.00008153     -4533.3567142416 -1.56E-01
    25 OT DIIS     0.15E+00   15.4     0.00007357     -4533.4376374640 -8.09E-02
    26 OT DIIS     0.15E+00   15.5     0.00007994     -4533.4403333098 -2.70E-03
    27 OT DIIS     0.15E+00   15.3     0.00005963     -4533.5392875804 -9.90E-02
    28 OT DIIS     0.15E+00   15.4     0.00005784     -4533.5503347767 -1.10E-02
    29 OT DIIS     0.15E+00   15.5     0.00004882     -4533.6069426686 -5.66E-02
    30 OT DIIS     0.15E+00   15.3     0.00004513     -4533.6296725812 -2.27E-02
    31 OT SD       0.15E+00   15.1     0.00003977     -4533.6581826344 -2.85E-02
    32 OT DIIS     0.15E+00   15.1     0.00003882     -4533.6599172055 -1.73E-03
    33 OT DIIS     0.15E+00   15.1     0.00003288     -4533.6907952882 -3.09E-02
    34 OT DIIS     0.15E+00   14.8     0.00003192     -4533.6963595003 -5.56E-03
    35 OT DIIS     0.15E+00   15.1     0.00003015     -4533.7055922770 -9.23E-03
    36 OT DIIS     0.15E+00   15.1     0.00002771     -4533.7247141739 -1.91E-02
    37 OT DIIS     0.15E+00   14.9     0.00002604     -4533.7343026214 -9.59E-03
    38 OT DIIS     0.15E+00   12.1     0.00002447     -4533.7427770451 -8.47E-03
    39 OT DIIS     0.15E+00   11.9     0.00002369     -4533.7494929390 -6.72E-03
    40 OT DIIS     0.15E+00   11.9     0.00002238     -4533.7581712524 -8.68E-03
    41 OT DIIS     0.15E+00   12.6     0.00002164     -4533.7678628001 -9.69E-03
    42 OT DIIS     0.15E+00   14.1     0.00002091     -4533.7708410586 -2.98E-03
    43 OT DIIS     0.15E+00   14.6     0.00001964     -4533.7818584723 -1.10E-02
    44 OT DIIS     0.15E+00   13.3     0.00001917     -4533.7851861073 -3.33E-03
    45 OT DIIS     0.15E+00   11.8     0.00001793     -4533.7953381984 -1.02E-02
    46 OT DIIS     0.15E+00   11.9     0.00001762     -4533.7958185309 -4.80E-04
    47 OT DIIS     0.15E+00   13.0     0.00001636     -4533.8093159712 -1.35E-02
    48 OT DIIS     0.15E+00   15.6     0.00001657     -4533.8095845624 -2.69E-04
    49 OT DIIS     0.15E+00   15.4     0.00001501     -4533.8170796212 -7.50E-03
    50 OT DIIS     0.15E+00   15.4     0.00001479     -4533.8269448619 -9.87E-03
    51 OT DIIS     0.15E+00   15.2     0.00001366     -4533.8276017599 -6.57E-04
    52 OT DIIS     0.15E+00   15.5     0.00001339     -4533.8294250847 -1.82E-03
    53 OT SD       0.15E+00   15.4     0.00001308     -4533.8327839288 -3.36E-03
    54 OT DIIS     0.15E+00   15.4     0.00001298     -4533.8329732099 -1.89E-04
    55 OT DIIS     0.15E+00   15.2     0.00001220     -4533.8397729758 -6.80E-03
    56 OT DIIS     0.15E+00   15.4     0.00001209     -4533.8403857429 -6.13E-04
    57 OT DIIS     0.15E+00   15.1     0.00001177     -4533.8430312016 -2.65E-03
    58 OT DIIS     0.15E+00   14.8     0.00001161     -4533.8444544535 -1.42E-03
    59 OT DIIS     0.15E+00   15.1     0.00001131     -4533.8479264481 -3.47E-03
    60 OT DIIS     0.15E+00   15.1     0.00001093     -4533.8536962746 -5.77E-03
    61 OT DIIS     0.15E+00   15.0     0.00001084     -4533.8551906910 -1.49E-03
    62 OT DIIS     0.15E+00   12.8     0.00001066     -4533.8575634029 -2.37E-03
    63 OT SD       0.15E+00   12.0     0.00001008     -4533.8664455719 -8.88E-03
    64 OT DIIS     0.15E+00   12.4     0.00000998     -4533.8665578347 -1.12E-04
    65 OT SD       0.15E+00   11.9     0.00000976     -4533.8753921883 -8.83E-03
    66 OT DIIS     0.15E+00   12.0     0.00000958     -4533.8754969899 -1.05E-04
    67 OT DIIS     0.15E+00   11.9     0.00000884     -4533.8799591920 -4.46E-03
    68 OT DIIS     0.15E+00   12.2     0.00000872     -4533.8808363239 -8.77E-04
    69 OT DIIS     0.15E+00   13.3     0.00000848     -4533.8821525657 -1.32E-03
    70 OT DIIS     0.15E+00   14.0     0.00000845     -4533.8825775415 -4.25E-04
    71 OT DIIS     0.15E+00   14.2     0.00000840     -4533.8830739139 -4.96E-04
    72 OT DIIS     0.15E+00   14.7     0.00000809     -4533.8838036092 -7.30E-04
    73 OT DIIS     0.15E+00   15.0     0.00000781     -4533.8861491715 -2.35E-03
    74 OT SD       0.15E+00   15.4     0.00000776     -4533.8871592182 -1.01E-03
    75 OT DIIS     0.15E+00   15.6     0.00000768     -4533.8872256602 -6.64E-05
    76 OT SD       0.15E+00   15.3     0.00000735     -4533.8906140470 -3.39E-03
    77 OT DIIS     0.15E+00   14.6     0.00000730     -4533.8906738021 -5.98E-05
    78 OT DIIS     0.15E+00   14.2     0.00000698     -4533.8941889426 -3.52E-03
    79 OT DIIS     0.15E+00   14.2     0.00000707     -4533.8948336974 -6.45E-04
    80 OT SD       0.15E+00   14.4     0.00000711     -4533.8949569823 -1.23E-04
    81 OT DIIS     0.15E+00   15.6     0.00000703     -4533.8950127441 -5.58E-05
    82 OT DIIS     0.15E+00   15.5     0.00000656     -4533.8977135288 -2.70E-03
    83 OT DIIS     0.15E+00   15.3     0.00000654     -4533.8979986435 -2.85E-04
    84 OT DIIS     0.15E+00   15.3     0.00000640     -4533.9005215559 -2.52E-03
    85 OT SD       0.15E+00   15.8     0.00000626     -4533.9017618373 -1.24E-03
    86 OT DIIS     0.15E+00   15.0     0.00000622     -4533.9018052136 -4.34E-05
    87 OT SD       0.15E+00   14.7     0.00000598     -4533.9044959732 -2.69E-03
    88 OT DIIS     0.15E+00   15.1     0.00000595     -4533.9045355551 -3.96E-05
    89 OT DIIS     0.15E+00   15.2     0.00000605     -4533.9087147231 -4.18E-03
    90 OT SD       0.15E+00   14.8     0.00000574     -4533.9089297465 -2.15E-04
    91 OT DIIS     0.15E+00   15.1     0.00000569     -4533.9089661973 -3.65E-05
    92 OT SD       0.15E+00   15.1     0.00000549     -4533.9124213313 -3.46E-03
    93 OT DIIS     0.15E+00   13.5     0.00000543     -4533.9124546251 -3.33E-05
    94 OT SD       0.15E+00   11.9     0.00000509     -4533.9149435270 -2.49E-03
    95 OT DIIS     0.15E+00   11.9     0.00000506     -4533.9149722527 -2.87E-05
    96 OT SD       0.15E+00   13.2     0.00000658     -4533.9183793786 -3.41E-03
    97 OT DIIS     0.15E+00   14.0     0.00000627     -4533.9184262296 -4.69E-05
    98 OT DIIS     0.15E+00   14.1     0.00000473     -4533.9191799891 -7.54E-04
    99 OT SD       0.15E+00   12.9     0.00000482     -4533.9192629085 -8.29E-05
   100 OT DIIS     0.15E+00   11.9     0.00000478     -4533.9192885745 -2.57E-05
   101 OT SD       0.15E+00   12.0     0.00000454     -4533.9214854459 -2.20E-03
   102 OT DIIS     0.15E+00   13.6     0.00000451     -4533.9215082803 -2.28E-05
   103 OT DIIS     0.15E+00   14.2     0.00000436     -4533.9232243944 -1.72E-03
   104 OT SD       0.15E+00   14.4     0.00000432     -4533.9235332117 -3.09E-04
   105 OT DIIS     0.15E+00   15.4     0.00000430     -4533.9235539273 -2.07E-05
   106 OT DIIS     0.15E+00   17.2     0.00000418     -4533.9248075499 -1.25E-03
   107 OT DIIS     0.15E+00   15.5     0.00000415     -4533.9249917048 -1.84E-04
   108 OT DIIS     0.15E+00   15.3     0.00000413     -4533.9255491846 -5.57E-04
   109 OT DIIS     0.15E+00   14.9     0.00000411     -4533.9260512890 -5.02E-04
   110 OT DIIS     0.15E+00   14.2     0.00000406     -4533.9263712078 -3.20E-04
   111 OT DIIS     0.15E+00   14.2     0.00000402     -4533.9267094713 -3.38E-04
   112 OT DIIS     0.15E+00   14.0     0.00000402     -4533.9268060313 -9.66E-05
   113 OT DIIS     0.15E+00   14.9     0.00000399     -4533.9272228650 -4.17E-04
   114 OT SD       0.15E+00   15.1     0.00000394     -4533.9283171490 -1.09E-03
   115 OT DIIS     0.15E+00   14.8     0.00000393     -4533.9283343390 -1.72E-05
   116 OT DIIS     0.15E+00   15.2     0.00000388     -4533.9295320354 -1.20E-03
   117 OT SD       0.15E+00   14.7     0.00000387     -4533.9296618493 -1.30E-04
   118 OT DIIS     0.15E+00   15.1     0.00000387     -4533.9296784799 -1.66E-05
   119 OT DIIS     0.15E+00   14.9     0.00000384     -4533.9307138950 -1.04E-03
   120 OT DIIS     0.15E+00   15.0     0.00000384     -4533.9308120897 -9.82E-05
   121 OT DIIS     0.15E+00   12.4     0.00000382     -4533.9311646451 -3.53E-04
   122 OT SD       0.15E+00   12.0     0.00000382     -4533.9319663181 -8.02E-04
   123 OT DIIS     0.15E+00   11.9     0.00000382     -4533.9319825361 -1.62E-05
   124 OT DIIS     0.15E+00   12.0     0.00000379     -4533.9325680795 -5.86E-04
   125 OT DIIS     0.15E+00   12.5     0.00000380     -4533.9325894502 -2.14E-05
   126 OT SD       0.15E+00   14.0     0.00000390     -4533.9326393279 -4.99E-05
   127 OT SD       0.15E+00   14.2     0.00000388     -4533.9326561529 -1.68E-05
   128 OT DIIS     0.15E+00   14.0     0.00000386     -4533.9326728206 -1.67E-05
   129 OT DIIS     0.15E+00   12.6     0.00000378     -4533.9331045344 -4.32E-04
   130 OT DIIS     0.15E+00   15.3     0.00000377     -4533.9335574282 -4.53E-04
   131 OT SD       0.15E+00   15.4     0.00000378     -4533.9345932029 -1.04E-03
   132 OT SD       0.15E+00   15.4     0.00000377     -4533.9346090432 -1.58E-05
   133 OT SD       0.15E+00   15.3     0.00000377     -4533.9346248484 -1.58E-05
   134 OT SD       0.15E+00   15.3     0.00000377     -4533.9346406282 -1.58E-05
   135 OT SD       0.15E+00   14.4     0.00000377     -4533.9346563893 -1.58E-05
   136 OT SD       0.15E+00   14.2     0.00000376     -4533.9346721363 -1.57E-05
   137 OT SD       0.15E+00   14.4     0.00000376     -4533.9346878726 -1.57E-05
   138 OT SD       0.15E+00   15.4     0.00000376     -4533.9347036008 -1.57E-05
   139 OT SD       0.15E+00   15.4     0.00000376     -4533.9347193227 -1.57E-05
   140 OT SD       0.15E+00   15.2     0.00000376     -4533.9347350400 -1.57E-05
   141 OT SD       0.15E+00   15.3     0.00000376     -4533.9347507538 -1.57E-05
   142 OT SD       0.15E+00   14.7     0.00000376     -4533.9347664652 -1.57E-05
   143 OT SD       0.15E+00   15.0     0.00000376     -4533.9347821749 -1.57E-05
   144 OT SD       0.15E+00   15.1     0.00000376     -4533.9347978835 -1.57E-05
   145 OT SD       0.15E+00   14.9     0.00000376     -4533.9348135917 -1.57E-05
   146 OT SD       0.15E+00   14.6     0.00000376     -4533.9348292999 -1.57E-05
   147 OT SD       0.15E+00   12.9     0.00000376     -4533.9348450085 -1.57E-05
   148 OT SD       0.15E+00   12.3     0.00000376     -4533.9348607177 -1.57E-05
   149 OT SD       0.15E+00   12.0     0.00000376     -4533.9348764279 -1.57E-05
   150 OT SD       0.15E+00   11.9     0.00000376     -4533.9348921394 -1.57E-05
   151 OT SD       0.15E+00   12.0     0.00000376     -4533.9349078522 -1.57E-05
   152 OT SD       0.15E+00   11.9     0.00000376     -4533.9349235666 -1.57E-05
   153 OT SD       0.15E+00   12.0     0.00000376     -4533.9349392828 -1.57E-05
   154 OT SD       0.15E+00   12.2     0.00000376     -4533.9349550009 -1.57E-05
   155 OT SD       0.15E+00   13.4     0.00000376     -4533.9349707210 -1.57E-05
   156 OT SD       0.15E+00   15.2     0.00000376     -4533.9349864432 -1.57E-05
   157 OT SD       0.15E+00   15.5     0.00000376     -4533.9350021675 -1.57E-05
   158 OT SD       0.15E+00   15.0     0.00000376     -4533.9350178942 -1.57E-05
   159 OT SD       0.15E+00   15.1     0.00000376     -4533.9350336232 -1.57E-05
   160 OT SD       0.15E+00   15.4     0.00000376     -4533.9350493547 -1.57E-05
   161 OT SD       0.15E+00   15.2     0.00000376     -4533.9350650887 -1.57E-05
   162 OT SD       0.15E+00   15.5     0.00000376     -4533.9350808252 -1.57E-05
   163 OT SD       0.15E+00   15.4     0.00000376     -4533.9350965643 -1.57E-05
   164 OT SD       0.15E+00   15.3     0.00000376     -4533.9351123061 -1.57E-05
   165 OT SD       0.15E+00   15.3     0.00000377     -4533.9351280505 -1.57E-05
   166 OT SD       0.15E+00   14.2     0.00000377     -4533.9351437977 -1.57E-05
   167 OT SD       0.15E+00   14.2     0.00000377     -4533.9351595477 -1.57E-05
   168 OT SD       0.15E+00   14.2     0.00000377     -4533.9351753005 -1.58E-05
   169 OT SD       0.15E+00   15.4     0.00000377     -4533.9351910561 -1.58E-05
   170 OT SD       0.15E+00   14.3     0.00000377     -4533.9352068146 -1.58E-05
   171 OT SD       0.15E+00   13.7     0.00000377     -4533.9352225760 -1.58E-05
   172 OT SD       0.15E+00   12.4     0.00000377     -4533.9352383404 -1.58E-05
   173 OT SD       0.15E+00   11.9     0.00000377     -4533.9352541077 -1.58E-05
   174 OT SD       0.15E+00   12.2     0.00000377     -4533.9352698780 -1.58E-05
   175 OT SD       0.15E+00   14.8     0.00000377     -4533.9352856514 -1.58E-05
   176 OT SD       0.15E+00   15.2     0.00000377     -4533.9353014277 -1.58E-05
   177 OT SD       0.15E+00   15.2     0.00000377     -4533.9353172072 -1.58E-05
   178 OT SD       0.15E+00   14.7     0.00000377     -4533.9353329897 -1.58E-05
   179 OT SD       0.15E+00   15.3     0.00000377     -4533.9353487753 -1.58E-05
   180 OT SD       0.15E+00   15.2     0.00000377     -4533.9353645641 -1.58E-05
   181 OT SD       0.15E+00   14.7     0.00000377     -4533.9353803559 -1.58E-05
   182 OT SD       0.15E+00   15.1     0.00000377     -4533.9353961510 -1.58E-05
   183 OT SD       0.15E+00   15.2     0.00000377     -4533.9354119492 -1.58E-05
   184 OT SD       0.15E+00   15.3     0.00000377     -4533.9354277507 -1.58E-05
   185 OT SD       0.15E+00   15.2     0.00000377     -4533.9354435553 -1.58E-05
   186 OT SD       0.15E+00   15.1     0.00000377     -4533.9354593632 -1.58E-05
   187 OT SD       0.15E+00   13.5     0.00000377     -4533.9354751743 -1.58E-05
   188 OT SD       0.15E+00   12.1     0.00000377     -4533.9354909887 -1.58E-05
   189 OT SD       0.15E+00   12.3     0.00000377     -4533.9355068064 -1.58E-05
   190 OT SD       0.15E+00   14.0     0.00000377     -4533.9355226274 -1.58E-05
   191 OT SD       0.15E+00   14.6     0.00000377     -4533.9355384517 -1.58E-05
   192 OT SD       0.15E+00   14.3     0.00000378     -4533.9355542793 -1.58E-05
   193 OT SD       0.15E+00   14.2     0.00000378     -4533.9355701102 -1.58E-05
   194 OT SD       0.15E+00   14.3     0.00000378     -4533.9355859445 -1.58E-05
   195 OT SD       0.15E+00   14.3     0.00000378     -4533.9356017822 -1.58E-05
   196 OT SD       0.15E+00   14.3     0.00000378     -4533.9356176232 -1.58E-05
   197 OT SD       0.15E+00   15.5     0.00000378     -4533.9356334676 -1.58E-05
   198 OT SD       0.15E+00   15.4     0.00000378     -4533.9356493155 -1.58E-05
   199 OT SD       0.15E+00   15.4     0.00000378     -4533.9356651667 -1.59E-05
   200 OT SD       0.15E+00   15.2     0.00000378     -4533.9356810214 -1.59E-05
   201 OT SD       0.15E+00   15.3     0.00000378     -4533.9356968795 -1.59E-05
   202 OT SD       0.15E+00   15.1     0.00000378     -4533.9357127411 -1.59E-05
   203 OT SD       0.15E+00   14.9     0.00000378     -4533.9357286061 -1.59E-05
   204 OT SD       0.15E+00   14.9     0.00000378     -4533.9357444746 -1.59E-05
   205 OT SD       0.15E+00   15.1     0.00000378     -4533.9357603465 -1.59E-05
   206 OT SD       0.15E+00   15.1     0.00000378     -4533.9357762220 -1.59E-05
 Singular DIIS matrix
   207 OT SD       0.15E+00   14.9     0.00000378     -4533.9357921009 -1.59E-05
   208 OT SD       0.15E+00   15.1     0.00000378     -4533.9358079834 -1.59E-05
   209 OT SD       0.15E+00   15.2     0.00000378     -4533.9358238694 -1.59E-05
   210 OT SD       0.15E+00   13.4     0.00000378     -4533.9358397589 -1.59E-05
   211 OT SD       0.15E+00   12.0     0.00000378     -4533.9358556520 -1.59E-05
   212 OT SD       0.15E+00   12.0     0.00000378     -4533.9358715486 -1.59E-05
   213 OT SD       0.15E+00   12.2     0.00000378     -4533.9358874488 -1.59E-05
   214 OT SD       0.15E+00   13.2     0.00000378     -4533.9359033525 -1.59E-05
   215 OT SD       0.15E+00   14.0     0.00000378     -4533.9359192598 -1.59E-05
   216 OT SD       0.15E+00   14.2     0.00000379     -4533.9359351707 -1.59E-05
   217 OT SD       0.15E+00   12.8     0.00000379     -4533.9359510852 -1.59E-05
   218 OT SD       0.15E+00   11.9     0.00000379     -4533.9359670033 -1.59E-05
   219 OT SD       0.15E+00   12.0     0.00000379     -4533.9359829250 -1.59E-05
   220 OT SD       0.15E+00   13.6     0.00000379     -4533.9359988503 -1.59E-05
   221 OT SD       0.15E+00   15.4     0.00000379     -4533.9360147792 -1.59E-05
   222 OT SD       0.15E+00   15.5     0.00000379     -4533.9360307118 -1.59E-05
   223 OT SD       0.15E+00   15.5     0.00000379     -4533.9360466480 -1.59E-05
   224 OT SD       0.15E+00   15.2     0.00000379     -4533.9360625878 -1.59E-05
   225 OT SD       0.15E+00   15.5     0.00000379     -4533.9360785314 -1.59E-05
   226 OT SD       0.15E+00   15.5     0.00000379     -4533.9360944785 -1.59E-05
 Singular DIIS matrix
   227 OT SD       0.15E+00   15.1     0.00000379     -4533.9361104294 -1.60E-05
 Singular DIIS matrix
   228 OT SD       0.15E+00   15.3     0.00000379     -4533.9361263839 -1.60E-05
   229 OT SD       0.15E+00   15.4     0.00000379     -4533.9361423421 -1.60E-05
   230 OT SD       0.15E+00   15.5     0.00000379     -4533.9361583039 -1.60E-05
   231 OT SD       0.15E+00   15.1     0.00000379     -4533.9361742695 -1.60E-05
   232 OT SD       0.15E+00   15.8     0.00000379     -4533.9361902388 -1.60E-05
   233 OT SD       0.15E+00   14.6     0.00000379     -4533.9362062118 -1.60E-05
   234 OT SD       0.15E+00   12.8     0.00000379     -4533.9362221885 -1.60E-05
   235 OT SD       0.15E+00   11.7     0.00000379     -4533.9362381689 -1.60E-05
   236 OT SD       0.15E+00   11.9     0.00000379     -4533.9362541530 -1.60E-05
   237 OT SD       0.15E+00   11.9     0.00000379     -4533.9362701409 -1.60E-05
   238 OT SD       0.15E+00   12.0     0.00000379     -4533.9362861325 -1.60E-05
   239 OT SD       0.15E+00   12.0     0.00000380     -4533.9363021278 -1.60E-05
   240 OT SD       0.15E+00   12.0     0.00000380     -4533.9363181269 -1.60E-05
   241 OT SD       0.15E+00   12.0     0.00000380     -4533.9363341297 -1.60E-05
 Singular DIIS matrix
   242 OT SD       0.15E+00   11.9     0.00000380     -4533.9363501363 -1.60E-05
   243 OT SD       0.15E+00   12.1     0.00000380     -4533.9363661467 -1.60E-05
   244 OT SD       0.15E+00   12.4     0.00000380     -4533.9363821608 -1.60E-05
   245 OT SD       0.15E+00   14.6     0.00000380     -4533.9363981787 -1.60E-05
   246 OT SD       0.15E+00   15.2     0.00000380     -4533.9364142003 -1.60E-05
   247 OT SD       0.15E+00   15.3     0.00000380     -4533.9364302258 -1.60E-05
   248 OT SD       0.15E+00   13.6     0.00000380     -4533.9364462550 -1.60E-05
   249 OT SD       0.15E+00   11.9     0.00000380     -4533.9364622880 -1.60E-05
   250 OT SD       0.15E+00   14.2     0.00000380     -4533.9364783249 -1.60E-05
   251 OT SD       0.15E+00   15.4     0.00000380     -4533.9364943655 -1.60E-05
   252 OT SD       0.15E+00   15.4     0.00000380     -4533.9365104099 -1.60E-05
   253 OT SD       0.15E+00   15.5     0.00000380     -4533.9365264581 -1.60E-05
   254 OT SD       0.15E+00   15.5     0.00000380     -4533.9365425101 -1.61E-05
   255 OT SD       0.15E+00   15.6     0.00000380     -4533.9365585660 -1.61E-05
   256 OT SD       0.15E+00   15.6     0.00000380     -4533.9365746256 -1.61E-05
   257 OT SD       0.15E+00   15.2     0.00000380     -4533.9365906891 -1.61E-05
   258 OT SD       0.15E+00   15.4     0.00000380     -4533.9366067564 -1.61E-05
   259 OT SD       0.15E+00   15.4     0.00000380     -4533.9366228276 -1.61E-05
   260 OT SD       0.15E+00   14.1     0.00000380     -4533.9366389026 -1.61E-05
   261 OT SD       0.15E+00   14.2     0.00000381     -4533.9366549814 -1.61E-05
   262 OT SD       0.15E+00   14.1     0.00000381     -4533.9366710640 -1.61E-05
   263 OT SD       0.15E+00   13.0     0.00000381     -4533.9366871505 -1.61E-05
   264 OT SD       0.15E+00   12.0     0.00000381     -4533.9367032408 -1.61E-05
   265 OT SD       0.15E+00   11.9     0.00000381     -4533.9367193350 -1.61E-05
   266 OT SD       0.15E+00   11.9     0.00000381     -4533.9367354330 -1.61E-05
   267 OT SD       0.15E+00   11.8     0.00000381     -4533.9367515349 -1.61E-05
   268 OT SD       0.15E+00   11.8     0.00000381     -4533.9367676407 -1.61E-05
   269 OT DIIS     0.15E+00   12.0     0.00000381     -4533.9367837503 -1.61E-05
   270 OT DIIS     0.15E+00   14.0     0.00003968     -4533.9259925809  1.08E-02
   271 OT DIIS     0.15E+00   14.9     0.00000627     -4533.9336083188 -7.62E-03
   272 OT SD       0.15E+00   15.0     0.00000947     -4533.9340743849 -4.66E-04
   273 OT SD       0.15E+00   13.6     0.00000872     -4533.9341700340 -9.56E-05
   274 OT DIIS     0.15E+00   12.0     0.00000808     -4533.9342513382 -8.13E-05
   275 OT DIIS     0.15E+00   13.0     0.00000398     -4533.9339570902  2.94E-04
   276 OT SD       0.15E+00   15.6     0.00000383     -4533.9358587449 -1.90E-03
   277 OT SD       0.15E+00   15.4     0.00000382     -4533.9358749804 -1.62E-05
   278 OT SD       0.15E+00   15.5     0.00000381     -4533.9358911401 -1.62E-05
   279 OT SD       0.15E+00   15.0     0.00000380     -4533.9359072395 -1.61E-05
   280 OT SD       0.15E+00   15.1     0.00000380     -4533.9359232897 -1.61E-05
   281 OT DIIS     0.15E+00   14.9     0.00000379     -4533.9359392988 -1.60E-05
   282 OT SD       0.15E+00   15.3     0.00000375     -4533.9361504575 -2.11E-04
   283 OT SD       0.15E+00   14.7     0.00000375     -4533.9361660524 -1.56E-05
   284 OT SD       0.15E+00   14.3     0.00000375     -4533.9361816458 -1.56E-05
   285 OT SD       0.15E+00   14.2     0.00000375     -4533.9361972387 -1.56E-05
   286 OT SD       0.15E+00   14.4     0.00000375     -4533.9362128314 -1.56E-05
   287 OT SD       0.15E+00   14.3     0.00000375     -4533.9362284245 -1.56E-05
   288 OT SD       0.15E+00   14.1     0.00000375     -4533.9362440182 -1.56E-05
   289 OT SD       0.15E+00   14.3     0.00000375     -4533.9362596128 -1.56E-05
   290 OT SD       0.15E+00   14.7     0.00000375     -4533.9362752085 -1.56E-05
   291 OT SD       0.15E+00   15.4     0.00000375     -4533.9362908053 -1.56E-05
   292 OT SD       0.15E+00   15.4     0.00000375     -4533.9363064035 -1.56E-05
   293 OT SD       0.15E+00   14.9     0.00000375     -4533.9363220031 -1.56E-05
   294 OT SD       0.15E+00   13.7     0.00000375     -4533.9363376043 -1.56E-05
   295 OT SD       0.15E+00   13.7     0.00000375     -4533.9363532072 -1.56E-05
   296 OT SD       0.15E+00   15.2     0.00000375     -4533.9363688118 -1.56E-05
   297 OT SD       0.15E+00   15.5     0.00000375     -4533.9363844182 -1.56E-05
   298 OT SD       0.15E+00   15.0     0.00000375     -4533.9364000264 -1.56E-05
   299 OT SD       0.15E+00   15.2     0.00000375     -4533.9364156366 -1.56E-05
   300 OT SD       0.15E+00   14.9     0.00000375     -4533.9364312487 -1.56E-05
   301 OT SD       0.15E+00   15.1     0.00000375     -4533.9364468629 -1.56E-05
   302 OT SD       0.15E+00   14.9     0.00000375     -4533.9364624792 -1.56E-05
   303 OT SD       0.15E+00   15.2     0.00000375     -4533.9364780976 -1.56E-05
   304 OT SD       0.15E+00   14.6     0.00000375     -4533.9364937181 -1.56E-05
   305 OT SD       0.15E+00   11.8     0.00000375     -4533.9365093409 -1.56E-05
   306 OT SD       0.15E+00   12.3     0.00000375     -4533.9365249659 -1.56E-05
   307 OT SD       0.15E+00   13.5     0.00000375     -4533.9365405932 -1.56E-05
   308 OT SD       0.15E+00   13.9     0.00000375     -4533.9365562228 -1.56E-05
   309 OT SD       0.15E+00   14.2     0.00000375     -4533.9365718547 -1.56E-05
   310 OT SD       0.15E+00   12.4     0.00000375     -4533.9365874890 -1.56E-05
   311 OT SD       0.15E+00   12.0     0.00000375     -4533.9366031257 -1.56E-05
   312 OT SD       0.15E+00   13.0     0.00000375     -4533.9366187649 -1.56E-05
   313 OT SD       0.15E+00   15.4     0.00000375     -4533.9366344065 -1.56E-05
   314 OT SD       0.15E+00   15.2     0.00000375     -4533.9366500506 -1.56E-05
   315 OT SD       0.15E+00   15.1     0.00000375     -4533.9366656972 -1.56E-05
   316 OT SD       0.15E+00   14.2     0.00000375     -4533.9366813464 -1.56E-05
   317 OT SD       0.15E+00   14.7     0.00000375     -4533.9366969981 -1.57E-05
   318 OT SD       0.15E+00   16.0     0.00000375     -4533.9367126523 -1.57E-05
   319 OT SD       0.15E+00   15.4     0.00000375     -4533.9367283092 -1.57E-05
   320 OT SD       0.15E+00   15.5     0.00000376     -4533.9367439687 -1.57E-05
   321 OT SD       0.15E+00   15.5     0.00000376     -4533.9367596309 -1.57E-05
   322 OT SD       0.15E+00   15.2     0.00000376     -4533.9367752957 -1.57E-05
   323 OT SD       0.15E+00   15.4     0.00000376     -4533.9367909632 -1.57E-05
   324 OT SD       0.15E+00   15.2     0.00000376     -4533.9368066334 -1.57E-05
   325 OT SD       0.15E+00   15.1     0.00000376     -4533.9368223063 -1.57E-05
   326 OT SD       0.15E+00   15.0     0.00000376     -4533.9368379819 -1.57E-05
   327 OT SD       0.15E+00   12.6     0.00000376     -4533.9368536603 -1.57E-05
   328 OT SD       0.15E+00   11.9     0.00000376     -4533.9368693415 -1.57E-05
   329 OT SD       0.15E+00   11.9     0.00000376     -4533.9368850254 -1.57E-05
   330 OT SD       0.15E+00   11.8     0.00000376     -4533.9369007122 -1.57E-05
 Singular DIIS matrix
   331 OT SD       0.15E+00   11.9     0.00000376     -4533.9369164017 -1.57E-05
   332 OT SD       0.15E+00   12.0     0.00000376     -4533.9369320941 -1.57E-05
   333 OT SD       0.15E+00   12.0     0.00000376     -4533.9369477894 -1.57E-05
   334 OT SD       0.15E+00   11.9     0.00000376     -4533.9369634874 -1.57E-05
   335 OT SD       0.15E+00   12.3     0.00000376     -4533.9369791884 -1.57E-05
   336 OT SD       0.15E+00   14.2     0.00000376     -4533.9369948922 -1.57E-05
   337 OT SD       0.15E+00   14.9     0.00000376     -4533.9370105989 -1.57E-05
   338 OT SD       0.15E+00   15.2     0.00000376     -4533.9370263086 -1.57E-05
   339 OT SD       0.15E+00   14.3     0.00000376     -4533.9370420211 -1.57E-05
   340 OT SD       0.15E+00   14.8     0.00000376     -4533.9370577366 -1.57E-05
   341 OT SD       0.15E+00   15.2     0.00000376     -4533.9370734550 -1.57E-05
   342 OT SD       0.15E+00   15.2     0.00000376     -4533.9370891763 -1.57E-05
   343 OT SD       0.15E+00   14.9     0.00000376     -4533.9371049006 -1.57E-05
   344 OT SD       0.15E+00   15.3     0.00000376     -4533.9371206279 -1.57E-05
   345 OT SD       0.15E+00   15.2     0.00000376     -4533.9371363582 -1.57E-05
 Singular DIIS matrix
   346 OT SD       0.15E+00   15.4     0.00000376     -4533.9371520914 -1.57E-05
   347 OT SD       0.15E+00   15.2     0.00000376     -4533.9371678277 -1.57E-05
   348 OT SD       0.15E+00   15.4     0.00000376     -4533.9371835669 -1.57E-05
   349 OT SD       0.15E+00   14.4     0.00000376     -4533.9371993092 -1.57E-05
   350 OT SD       0.15E+00   14.1     0.00000377     -4533.9372150545 -1.57E-05
   351 OT SD       0.15E+00   14.3     0.00000377     -4533.9372308028 -1.57E-05
   352 OT SD       0.15E+00   14.3     0.00000377     -4533.9372465542 -1.58E-05
   353 OT SD       0.15E+00   13.8     0.00000377     -4533.9372623086 -1.58E-05
   354 OT SD       0.15E+00   14.3     0.00000377     -4533.9372780661 -1.58E-05
   355 OT SD       0.15E+00   14.2     0.00000377     -4533.9372938266 -1.58E-05
   356 OT SD       0.15E+00   13.2     0.00000377     -4533.9373095902 -1.58E-05
   357 OT SD       0.15E+00   11.9     0.00000377     -4533.9373253569 -1.58E-05
   358 OT SD       0.15E+00   12.4     0.00000377     -4533.9373411266 -1.58E-05
   359 OT SD       0.15E+00   15.0     0.00000377     -4533.9373568995 -1.58E-05
   360 OT SD       0.15E+00   16.0     0.00000377     -4533.9373726754 -1.58E-05
   361 OT SD       0.15E+00   14.8     0.00000377     -4533.9373884545 -1.58E-05
   362 OT SD       0.15E+00   11.9     0.00000377     -4533.9374042366 -1.58E-05
   363 OT SD       0.15E+00   12.2     0.00000377     -4533.9374200219 -1.58E-05
   364 OT SD       0.15E+00   14.7     0.00000377     -4533.9374358103 -1.58E-05
   365 OT SD       0.15E+00   15.2     0.00000377     -4533.9374516018 -1.58E-05
   366 OT SD       0.15E+00   14.8     0.00000377     -4533.9374673964 -1.58E-05
   367 OT SD       0.15E+00   15.1     0.00000377     -4533.9374831942 -1.58E-05
   368 OT SD       0.15E+00   15.0     0.00000377     -4533.9374989951 -1.58E-05
   369 OT SD       0.15E+00   15.4     0.00000377     -4533.9375147992 -1.58E-05
   370 OT SD       0.15E+00   15.1     0.00000377     -4533.9375306064 -1.58E-05
   371 OT SD       0.15E+00   15.5     0.00000377     -4533.9375464168 -1.58E-05
   372 OT SD       0.15E+00   12.5     0.00000377     -4533.9375622303 -1.58E-05
   373 OT DIIS     0.15E+00   11.9     0.00000377     -4533.9375780469 -1.58E-05
   374 OT DIIS     0.15E+00   11.9     0.00002381     -4533.9347472994  2.83E-03
   375 OT DIIS     0.15E+00   13.7     0.00000996     -4533.9351966714 -4.49E-04
   376 OT SD       0.15E+00   14.0     0.00001538     -4533.9371821622 -1.99E-03
   377 OT SD       0.15E+00   14.1     0.00001404     -4533.9374331659 -2.51E-04
   378 OT SD       0.15E+00   14.1     0.00001289     -4533.9376429564 -2.10E-04
   379 OT SD       0.15E+00   14.4     0.00001189     -4533.9378201454 -1.77E-04
   380 OT SD       0.15E+00   14.3     0.00001102     -4533.9379713038 -1.51E-04
   381 OT SD       0.15E+00   14.2     0.00001026     -4533.9381014995 -1.30E-04
   382 OT DIIS     0.15E+00   15.5     0.00000960     -4533.9382146802 -1.13E-04
   383 OT DIIS     0.15E+00   15.3     0.00000425     -4533.9400290771 -1.81E-03
   384 OT DIIS     0.15E+00   15.4     0.00000424     -4533.9401803630 -1.51E-04
   385 OT DIIS     0.15E+00   15.0     0.00000424     -4533.9402119819 -3.16E-05
   386 OT DIIS     0.15E+00   14.2     0.00000422     -4533.9404605328 -2.49E-04
   387 OT DIIS     0.15E+00   14.8     0.00000422     -4533.9405390211 -7.85E-05
   388 OT SD       0.15E+00   15.1     0.00000422     -4533.9408432038 -3.04E-04
   389 OT DIIS     0.15E+00   15.2     0.00000422     -4533.9408629772 -1.98E-05
   390 OT SD       0.15E+00   14.8     0.00000421     -4533.9411466480 -2.84E-04
   391 OT DIIS     0.15E+00   15.2     0.00000421     -4533.9411663488 -1.97E-05
   392 OT SD       0.15E+00   14.9     0.00000421     -4533.9414015576 -2.35E-04
   393 OT DIIS     0.15E+00   15.2     0.00000421     -4533.9414212412 -1.97E-05
   394 OT DIIS     0.15E+00   15.2     0.00000421     -4533.9414618097 -4.06E-05
   395 OT DIIS     0.15E+00   14.7     0.00000421     -4533.9415205552 -5.87E-05
   396 OT SD       0.15E+00   15.1     0.00000421     -4533.9417068927 -1.86E-04
   397 OT DIIS     0.15E+00   14.2     0.00000421     -4533.9417265517 -1.97E-05
   398 OT SD       0.15E+00   12.0     0.00000421     -4533.9418857664 -1.59E-04
   399 OT DIIS     0.15E+00   11.8     0.00000421     -4533.9419054242 -1.97E-05
   400 OT DIIS     0.15E+00   12.6     0.00000420     -4533.9421821472 -2.77E-04
   401 OT SD       0.15E+00   14.0     0.00000420     -4533.9422204025 -3.83E-05
   402 OT DIIS     0.15E+00   14.6     0.00000420     -4533.9422400397 -1.96E-05
   403 OT SD       0.15E+00   13.5     0.00000420     -4533.9425773087 -3.37E-04
   404 OT DIIS     0.15E+00   11.9     0.00000420     -4533.9425969190 -1.96E-05
   405 OT SD       0.15E+00   12.0     0.00000420     -4533.9429402384 -3.43E-04
   406 OT DIIS     0.15E+00   12.6     0.00000420     -4533.9429598257 -1.96E-05
   407 OT DIIS     0.15E+00   14.5     0.00000420     -4533.9432503429 -2.91E-04
   408 OT DIIS     0.15E+00   15.4     0.00000419     -4533.9433647606 -1.14E-04
   409 OT SD       0.15E+00   15.2     0.00000419     -4533.9439547154 -5.90E-04
   410 OT DIIS     0.15E+00   15.1     0.00000419     -4533.9439742410 -1.95E-05
   411 OT DIIS     0.15E+00   14.3     0.00000421     -4533.9442342231 -2.60E-04
   412 OT DIIS     0.15E+00   14.8     0.00000418     -4533.9444198241 -1.86E-04
   413 OT DIIS     0.15E+00   15.5     0.00000418     -4533.9447694964 -3.50E-04
   414 OT DIIS     0.15E+00   15.3     0.00000418     -4533.9448423662 -7.29E-05
   415 OT SD       0.15E+00   15.5     0.00000418     -4533.9451468256 -3.04E-04
   416 OT DIIS     0.15E+00   15.3     0.00000417     -4533.9451661873 -1.94E-05
   417 OT DIIS     0.15E+00   15.3     0.00000416     -4533.9456696238 -5.03E-04
   418 OT SD       0.15E+00   15.3     0.00000460     -4533.9465508521 -8.81E-04
   419 OT SD       0.15E+00   15.0     0.00000452     -4533.9465741583 -2.33E-05
   420 OT DIIS     0.15E+00   13.9     0.00000445     -4533.9465966557 -2.25E-05
   421 OT SD       0.15E+00   11.9     0.00000414     -4533.9466304034 -3.37E-05
   422 OT DIIS     0.15E+00   12.0     0.00000414     -4533.9466494239 -1.90E-05
   423 OT DIIS     0.15E+00   13.5     0.00000411     -4533.9477740083 -1.12E-03
   424 OT DIIS     0.15E+00   11.8     0.00000414     -4533.9478082113 -3.42E-05
   425 OT DIIS     0.15E+00   11.9     0.00000410     -4533.9485338985 -7.26E-04
   426 OT DIIS     0.15E+00   12.0     0.00000409     -4533.9490726688 -5.39E-04
   427 OT SD       0.15E+00   12.3     0.00000407     -4533.9495264961 -4.54E-04
   428 OT DIIS     0.15E+00   14.3     0.00000407     -4533.9495448936 -1.84E-05
   429 OT DIIS     0.15E+00   14.9     0.00000434     -4533.9500231975 -4.78E-04
   430 OT SD       0.15E+00   15.2     0.00000406     -4533.9507152546 -6.92E-04
   431 OT DIIS     0.15E+00   12.8     0.00000405     -4533.9507335381 -1.83E-05
   432 OT DIIS     0.15E+00   12.3     0.00000418     -4533.9510613321 -3.28E-04
   433 OT SD       0.15E+00   14.2     0.00000408     -4533.9516633399 -6.02E-04
   434 OT DIIS     0.15E+00   15.5     0.00000407     -4533.9516818184 -1.85E-05
   435 OT DIIS     0.15E+00   15.2     0.00000401     -4533.9520513719 -3.70E-04
   436 OT DIIS     0.15E+00   15.3     0.00000400     -4533.9527522337 -7.01E-04
   437 OT SD       0.15E+00   15.2     0.00000400     -4533.9527797953 -2.76E-05
   438 OT DIIS     0.15E+00   15.2     0.00000400     -4533.9527975425 -1.77E-05
   439 OT DIIS     0.15E+00   15.5     0.00000399     -4533.9532139029 -4.16E-04
   440 OT DIIS     0.15E+00   15.4     0.00000398     -4533.9535957395 -3.82E-04
   441 OT SD       0.15E+00   15.6     0.00000400     -4533.9538929684 -2.97E-04
   442 OT DIIS     0.15E+00   14.8     0.00000399     -4533.9539107189 -1.78E-05
   443 OT DIIS     0.15E+00   14.3     0.00000397     -4533.9542219168 -3.11E-04
   444 OT DIIS     0.15E+00   14.1     0.00000400     -4533.9544498293 -2.28E-04
   445 OT DIIS     0.15E+00   15.0     0.00000398     -4533.9545352812 -8.55E-05
   446 OT DIIS     0.15E+00   14.3     0.00000397     -4533.9547121023 -1.77E-04
   447 OT DIIS     0.15E+00   13.9     0.00000397     -4533.9550103432 -2.98E-04
   448 OT DIIS     0.15E+00   14.3     0.00000396     -4533.9552191743 -2.09E-04
   449 OT SD       0.15E+00   15.1     0.00000396     -4533.9558407534 -6.22E-04
   450 OT DIIS     0.15E+00   15.2     0.00000396     -4533.9558581565 -1.74E-05
   451 OT DIIS     0.15E+00   14.9     0.00000394     -4533.9564933323 -6.35E-04
   452 OT SD       0.15E+00   13.4     0.00000467     -4533.9568175669 -3.24E-04
   453 OT DIIS     0.15E+00   11.9     0.00000454     -4533.9568414550 -2.39E-05
   454 OT SD       0.15E+00   12.9     0.00000393     -4533.9575275011 -6.86E-04
   455 OT DIIS     0.15E+00   15.1     0.00000392     -4533.9575446225 -1.71E-05
   456 OT SD       0.15E+00   15.2     0.00000389     -4533.9586465767 -1.10E-03
   457 OT DIIS     0.15E+00   15.0     0.00000388     -4533.9586633505 -1.68E-05
   458 OT SD       0.15E+00   15.3     0.00000383     -4533.9599952095 -1.33E-03
   459 OT DIIS     0.15E+00   14.8     0.00000383     -4533.9600115117 -1.63E-05
   460 OT DIIS     0.15E+00   15.1     0.00000378     -4533.9615388479 -1.53E-03
   461 OT SD       0.15E+00   15.3     0.00000376     -4533.9618028256 -2.64E-04
   462 OT DIIS     0.15E+00   14.8     0.00000376     -4533.9618185496 -1.57E-05
   463 OT SD       0.15E+00   15.3     0.00000373     -4533.9638713255 -2.05E-03
   464 OT DIIS     0.15E+00   14.9     0.00000370     -4533.9638866928 -1.54E-05
   465 OT SD       0.15E+00   14.5     0.00000476     -4533.9643632724 -4.77E-04
   466 OT DIIS     0.15E+00   13.0     0.00000455     -4533.9643879038 -2.46E-05
   467 OT DIIS     0.15E+00   11.8     0.00000386     -4533.9666210301 -2.23E-03
   468 OT SD       0.15E+00   11.9     0.00000380     -4533.9668543213 -2.33E-04
   469 OT DIIS     0.15E+00   13.2     0.00000370     -4533.9668701445 -1.58E-05
   470 OT SD       0.15E+00   13.9     0.00000349     -4533.9682279733 -1.36E-03
   471 OT DIIS     0.15E+00   14.4     0.00000344     -4533.9682414152 -1.34E-05
   472 OT DIIS     0.15E+00   15.3     0.00000315     -4533.9689098742 -6.68E-04
   473 OT DIIS     0.15E+00   15.3     0.00000315     -4533.9689323305 -2.25E-05
   474 OT SD       0.15E+00   15.3     0.00000316     -4533.9691608989 -2.29E-04
   475 OT DIIS     0.15E+00   14.2     0.00000314     -4533.9691719698 -1.11E-05
   476 OT DIIS     0.15E+00   14.4     0.00000298     -4533.9701397044 -9.68E-04
   477 OT DIIS     0.15E+00   15.5     0.00000296     -4533.9703092963 -1.70E-04
   478 OT DIIS     0.15E+00   15.3     0.00000296     -4533.9707862534 -4.77E-04
   479 OT DIIS     0.15E+00   15.5     0.00000283     -4533.9714726810 -6.86E-04
   480 OT DIIS     0.15E+00   15.2     0.00000282     -4533.9715441636 -7.15E-05
   481 OT DIIS     0.15E+00   15.3     0.00000281     -4533.9716464660 -1.02E-04
   482 OT DIIS     0.15E+00   15.1     0.00000278     -4533.9719202425 -2.74E-04
   483 OT DIIS     0.15E+00   14.9     0.00000272     -4533.9723934198 -4.73E-04
   484 OT DIIS     0.15E+00   14.9     0.00000269     -4533.9724829465 -8.95E-05
   485 OT DIIS     0.15E+00   12.1     0.00000267     -4533.9730112081 -5.28E-04
   486 OT DIIS     0.15E+00   12.7     0.00000264     -4533.9731550248 -1.44E-04
   487 OT DIIS     0.15E+00   11.8     0.00000262     -4533.9732678305 -1.13E-04
   488 OT DIIS     0.15E+00   11.9     0.00000260     -4533.9734695255 -2.02E-04
   489 OT DIIS     0.15E+00   11.9     0.00000257     -4533.9736199802 -1.50E-04
   490 OT SD       0.15E+00   12.0     0.00000257     -4533.9738880670 -2.68E-04
   491 OT DIIS     0.15E+00   12.0     0.00000256     -4533.9738953915 -7.32E-06
   492 OT SD       0.15E+00   11.9     0.00000249     -4533.9744055683 -5.10E-04
   493 OT DIIS     0.15E+00   12.0     0.00000248     -4533.9744124482 -6.88E-06
   494 OT DIIS     0.15E+00   13.0     0.00000243     -4533.9749167477 -5.04E-04
   495 OT DIIS     0.15E+00   15.2     0.00000242     -4533.9749317112 -1.50E-05
   496 OT SD       0.15E+00   15.3     0.00000240     -4533.9751571779 -2.25E-04
   497 OT DIIS     0.15E+00   15.0     0.00000240     -4533.9751635693 -6.39E-06
   498 OT DIIS     0.15E+00   14.1     0.00000235     -4533.9757970066 -6.33E-04
   499 OT DIIS     0.15E+00   12.9     0.00000234     -4533.9758792951 -8.23E-05
   500 OT DIIS     0.15E+00   15.3     0.00000236     -4533.9760265430 -1.47E-04
   501 OT DIIS     0.15E+00   15.2     0.00000231     -4533.9761813165 -1.55E-04
   502 OT DIIS     0.15E+00   15.4     0.00000230     -4533.9762805470 -9.92E-05
   503 OT DIIS     0.15E+00   15.2     0.00000229     -4533.9763246180 -4.41E-05
   504 OT DIIS     0.15E+00   15.6     0.00000228     -4533.9767040651 -3.79E-04
   505 OT SD       0.15E+00   15.2     0.00000229     -4533.9767481722 -4.41E-05
   506 OT DIIS     0.15E+00   15.4     0.00000228     -4533.9767539779 -5.81E-06
   507 OT DIIS     0.15E+00   14.8     0.00000228     -4533.9769513486 -1.97E-04
   508 OT SD       0.15E+00   14.9     0.00000224     -4533.9774656048 -5.14E-04
   509 OT DIIS     0.15E+00   14.3     0.00000223     -4533.9774711444 -5.54E-06
   510 OT SD       0.15E+00   14.2     0.00000220     -4533.9780329187 -5.62E-04
   511 OT DIIS     0.15E+00   14.3     0.00000219     -4533.9780382733 -5.35E-06
   512 OT SD       0.15E+00   14.3     0.00000215     -4533.9784626124 -4.24E-04
   513 OT DIIS     0.15E+00   14.2     0.00000214     -4533.9784677181 -5.11E-06
   514 OT SD       0.15E+00   12.5     0.00000218     -4533.9791204790 -6.53E-04
   515 OT DIIS     0.15E+00   11.9     0.00000216     -4533.9791257406 -5.26E-06
   516 OT DIIS     0.15E+00   12.8     0.00000205     -4533.9797107529 -5.85E-04
   517 OT DIIS     0.15E+00   15.0     0.00000204     -4533.9797567434 -4.60E-05
   518 OT SD       0.15E+00   15.1     0.00000202     -4533.9800868662 -3.30E-04
   519 OT DIIS     0.15E+00   14.4     0.00000201     -4533.9800913912 -4.52E-06
   520 OT DIIS     0.15E+00   12.0     0.00000215     -4533.9806136763 -5.22E-04
   521 OT SD       0.15E+00   12.2     0.00000199     -4533.9809048083 -2.91E-04
   522 OT DIIS     0.15E+00   14.7     0.00000198     -4533.9809091916 -4.38E-06
   523 OT SD       0.15E+00   15.3     0.00000190     -4533.9814085475 -4.99E-04
   524 OT DIIS     0.15E+00   15.0     0.00000189     -4533.9814125470 -4.00E-06
   525 OT SD       0.15E+00   15.4     0.00000189     -4533.9819529113 -5.40E-04
   526 OT DIIS     0.15E+00   15.3     0.00000188     -4533.9819568679 -3.96E-06
   527 OT DIIS     0.15E+00   15.2     0.00000226     -4533.9821169813 -1.60E-04
   528 OT DIIS     0.15E+00   15.5     0.00000191     -4533.9825839641 -4.67E-04
   529 OT SD       0.15E+00   15.8     0.00000179     -4533.9826558983 -7.19E-05
   530 OT SD       0.15E+00   15.2     0.00000178     -4533.9826594482 -3.55E-06
   531 OT DIIS     0.15E+00   15.2     0.00000177     -4533.9826629519 -3.50E-06
   532 OT SD       0.15E+00   13.3     0.00000180     -4533.9833187445 -6.56E-04
   533 OT DIIS     0.15E+00   14.3     0.00000177     -4533.9833223095 -3.57E-06
   534 OT DIIS     0.15E+00   14.2     0.00000165     -4533.9836006780 -2.78E-04
   535 OT SD       0.15E+00   14.2     0.00000167     -4533.9836464922 -4.58E-05
   536 OT DIIS     0.15E+00   14.3     0.00000166     -4533.9836495928 -3.10E-06
   537 OT SD       0.15E+00   14.3     0.00000161     -4533.9840331432 -3.84E-04
   538 OT DIIS     0.15E+00   14.3     0.00000160     -4533.9840360090 -2.87E-06
   539 OT DIIS     0.15E+00   14.1     0.00000156     -4533.9843377260 -3.02E-04
   540 OT DIIS     0.15E+00   14.1     0.00000157     -4533.9843779081 -4.02E-05
   541 OT DIIS     0.15E+00   15.1     0.00000154     -4533.9844492268 -7.13E-05
   542 OT DIIS     0.15E+00   15.4     0.00000153     -4533.9845215147 -7.23E-05
   543 OT DIIS     0.15E+00   15.4     0.00000153     -4533.9845407302 -1.92E-05
   544 OT DIIS     0.15E+00   14.4     0.00000151     -4533.9847735802 -2.33E-04
   545 OT DIIS     0.15E+00   13.4     0.00000162     -4533.9848191272 -4.55E-05
   546 OT DIIS     0.15E+00   14.5     0.00000147     -4533.9850950961 -2.76E-04
   547 OT SD       0.15E+00   15.2     0.00000146     -4533.9852476925 -1.53E-04
   548 OT DIIS     0.15E+00   14.7     0.00000146     -4533.9852500645 -2.37E-06
   549 OT SD       0.15E+00   16.8     0.00000143     -4533.9855106774 -2.61E-04
   550 OT DIIS     0.15E+00   14.9     0.00000142     -4533.9855129358 -2.26E-06
   551 OT DIIS     0.15E+00   15.1     0.00000140     -4533.9857179068 -2.05E-04
   552 OT DIIS     0.15E+00   14.9     0.00000141     -4533.9857430009 -2.51E-05
   553 OT DIIS     0.15E+00   14.6     0.00000141     -4533.9857434800 -4.79E-07
   554 OT DIIS     0.15E+00   12.5     0.00000137     -4533.9859095765 -1.66E-04
   555 OT DIIS     0.15E+00   12.0     0.00000136     -4533.9859695711 -6.00E-05
   556 OT DIIS     0.15E+00   12.0     0.00000136     -4533.9861086034 -1.39E-04
   557 OT DIIS     0.15E+00   12.0     0.00000135     -4533.9861096475 -1.04E-06
   558 OT DIIS     0.15E+00   12.6     0.00000134     -4533.9861402725 -3.06E-05
   559 OT DIIS     0.15E+00   14.1     0.00000134     -4533.9862517600 -1.11E-04
   560 OT DIIS     0.15E+00   14.1     0.00000132     -4533.9862659986 -1.42E-05
   561 OT DIIS     0.15E+00   14.8     0.00000131     -4533.9863457361 -7.97E-05
   562 OT DIIS     0.15E+00   14.9     0.00000131     -4533.9863577524 -1.20E-05
   563 OT SD       0.15E+00   15.1     0.00000130     -4533.9864949694 -1.37E-04
   564 OT DIIS     0.15E+00   14.9     0.00000130     -4533.9864968406 -1.87E-06
   565 OT DIIS     0.15E+00   14.3     0.00000127     -4533.9867487253 -2.52E-04
   566 OT DIIS     0.15E+00   15.0     0.00000127     -4533.9867514907 -2.77E-06
   567 OT DIIS     0.15E+00   15.5     0.00000126     -4533.9868700190 -1.19E-04
   568 OT DIIS     0.15E+00   15.3     0.00000125     -4533.9869793664 -1.09E-04
   569 OT DIIS     0.15E+00   15.5     0.00000125     -4533.9869928699 -1.35E-05
   570 OT DIIS     0.15E+00   16.7     0.00000123     -4533.9871782926 -1.85E-04
   571 OT DIIS     0.15E+00   15.5     0.00000123     -4533.9872767385 -9.84E-05
   572 OT DIIS     0.15E+00   15.3     0.00000123     -4533.9873010827 -2.43E-05
   573 OT DIIS     0.15E+00   15.3     0.00000123     -4533.9873042288 -3.15E-06
   574 OT DIIS     0.15E+00   14.5     0.00000122     -4533.9873957166 -9.15E-05
   575 OT DIIS     0.15E+00   14.2     0.00000121     -4533.9874368406 -4.11E-05
   576 OT SD       0.15E+00   12.7     0.00000121     -4533.9875545861 -1.18E-04
   577 OT DIIS     0.15E+00   11.9     0.00000120     -4533.9875562022 -1.62E-06
   578 OT SD       0.15E+00   11.9     0.00000120     -4533.9877734929 -2.17E-04
   579 OT DIIS     0.15E+00   11.9     0.00000119     -4533.9877750830 -1.59E-06
   580 OT DIIS     0.15E+00   11.9     0.00000118     -4533.9878875837 -1.13E-04
   581 OT DIIS     0.15E+00   11.9     0.00000118     -4533.9879135799 -2.60E-05
   582 OT SD       0.15E+00   11.9     0.00000118     -4533.9880617388 -1.48E-04
   583 OT DIIS     0.15E+00   13.8     0.00000117     -4533.9880632755 -1.54E-06
   584 OT DIIS     0.15E+00   15.0     0.00000115     -4533.9882346089 -1.71E-04
   585 OT DIIS     0.15E+00   14.9     0.00000116     -4533.9882380824 -3.47E-06
   586 OT DIIS     0.15E+00   13.8     0.00000115     -4533.9884162627 -1.78E-04
   587 OT DIIS     0.15E+00   11.8     0.00000116     -4533.9884341480 -1.79E-05
   588 OT DIIS     0.15E+00   12.8     0.00000113     -4533.9885017147 -6.76E-05
   589 OT DIIS     0.15E+00   15.2     0.00000112     -4533.9886082991 -1.07E-04
   590 OT DIIS     0.15E+00   15.5     0.00000111     -4533.9886500274 -4.17E-05
   591 OT SD       0.15E+00   15.3     0.00000121     -4533.9887928024 -1.43E-04
   592 OT SD       0.15E+00   16.0     0.00000118     -4533.9887944005 -1.60E-06
   593 OT SD       0.15E+00   15.0     0.00000116     -4533.9887959389 -1.54E-06
   594 OT DIIS     0.15E+00   15.2     0.00000115     -4533.9887974323 -1.49E-06
   595 OT DIIS     0.15E+00   15.3     0.00000108     -4533.9889596758 -1.62E-04
   596 OT DIIS     0.15E+00   15.4     0.00000107     -4533.9889790109 -1.93E-05
   597 OT DIIS     0.15E+00   14.9     0.00000107     -4533.9889938885 -1.49E-05
   598 OT DIIS     0.15E+00   14.2     0.00000106     -4533.9891024306 -1.09E-04
   599 OT DIIS     0.15E+00   14.3     0.00000106     -4533.9891085974 -6.17E-06
   600 OT SD       0.15E+00   14.3     0.00000107     -4533.9892441108 -1.36E-04
   601 OT DIIS     0.15E+00   14.3     0.00000106     -4533.9892453743 -1.26E-06
   602 OT SD       0.15E+00   14.2     0.00000104     -4533.9893853814 -1.40E-04
   603 OT DIIS     0.15E+00   14.2     0.00000104     -4533.9893865872 -1.21E-06
   604 OT SD       0.15E+00   14.2     0.00000104     -4533.9896003176 -2.14E-04
   605 OT DIIS     0.15E+00   14.3     0.00000103     -4533.9896015065 -1.19E-06
   606 OT DIIS     0.15E+00   15.0     0.00000101     -4533.9898451424 -2.44E-04
   607 OT DIIS     0.15E+00   15.3     0.00000101     -4533.9898670738 -2.19E-05
   608 OT DIIS     0.15E+00   15.1     0.00000101     -4533.9898716564 -4.58E-06
   609 OT DIIS     0.15E+00   12.8     0.00000100     -4533.9900502703 -1.79E-04

  *** SCF run converged in   609 steps ***


  Electronic density on regular grids:      -3150.9999995504        0.0000004496
  Core density on regular grids:             3150.9999994357       -0.0000005643
  Total charge density on r-space grids:       -0.0000001147
  Total charge density g-space grids:          -0.0000001147

  Overlap energy of the core charge distribution:               0.00016529233446
  Self energy of the core charge distribution:             -10170.31441833952886
  Core Hamiltonian energy:                                   2569.55892854563899
  Hartree energy:                                            4215.86712834032369
  Exchange-correlation energy:                              -1146.84929802210081
  Dispersion energy:                                           -2.25255608700771

  Total energy:                                             -4533.99005027034036

  Integrated absolute spin density  :                              18.2280665947
  Ideal and single determinant S**2 :                    0.750000       9.979101

 ENERGY| Total FORCE_EVAL ( QS ) energy [a.u.]:            -4533.990252302819499

 -------------------------------------------------------------------------------
 -                                                                             -
 -                                DBCSR STATISTICS                             -
 -                                                                             -
 -------------------------------------------------------------------------------
 COUNTER                                    TOTAL       BLAS       SMM       ACC
 flops     1 x     7 x     7                47628       0.0%    100.0%      0.0%
 flops     1 x     8 x     8                62208       0.0%    100.0%      0.0%
 flops     4 x     7 x     7               182672       0.0%    100.0%      0.0%
 flops     4 x     8 x     8               238592       0.0%    100.0%      0.0%
 flops     1 x    32 x    32             97542144       0.0%    100.0%      0.0%
 flops     4 x    32 x    32            374112256       0.0%    100.0%      0.0%
 flops     1 x     7 x     1            589684032       0.0%    100.0%      0.0%
 flops     1 x     8 x     1            673374016       0.0%    100.0%      0.0%
 flops     4 x     7 x     1           2598091776       0.0%    100.0%      0.0%
 flops     1 x     7 x     4           2598091776       0.0%    100.0%      0.0%
 flops     1 x     1 x   135           2878561530       0.0%    100.0%      0.0%
 flops     1 x     1 x   136           2899884208       0.0%    100.0%      0.0%
 flops     4 x     8 x     1           2966821888       0.0%    100.0%      0.0%
 flops     1 x     8 x     4           2966821888       0.0%    100.0%      0.0%
 flops     1 x     1 x   160           6823256960       0.0%    100.0%      0.0%
 flops     4 x     7 x     4          11885529600       0.0%    100.0%      0.0%
 flops     4 x     1 x   135          12498787080       0.0%    100.0%      0.0%
 flops     1 x     4 x   135          12513304440       0.0%    100.0%      0.0%
 flops     4 x     1 x   136          12591370688       0.0%    100.0%      0.0%
 flops     1 x     4 x   136          12605995584       0.0%    100.0%      0.0%
 flops     4 x     8 x     4          13572364800       0.0%    100.0%      0.0%
 flops     4 x     1 x   160          29626754560       0.0%    100.0%      0.0%
 flops     1 x     4 x   160          29661166080       0.0%    100.0%      0.0%
 flops     1 x     1 x   128          54586055680       0.0%    100.0%      0.0%
 flops     4 x     4 x   135          57826604160       0.0%    100.0%      0.0%
 flops     4 x     4 x   136          58254949376       0.0%    100.0%      0.0%
 flops   587 x   135 x   193          74636110800       0.0%    100.0%      0.0%
 flops   588 x   135 x   193          74763259200       0.0%    100.0%      0.0%
 flops   587 x   136 x   193          75188970880       0.0%    100.0%      0.0%
 flops   588 x   136 x   193          75317061120       0.0%    100.0%      0.0%
 flops   391 x   135 x   135          78129189900       0.0%    100.0%      0.0%
 flops   392 x   136 x   136          79493736448       0.0%    100.0%      0.0%
 flops   416 x   135 x   135          83124662400       0.0%    100.0%      0.0%
 flops   416 x   136 x   136          84360699904       0.0%    100.0%      0.0%
 flops   391 x   135 x   160          92597558400       0.0%    100.0%      0.0%
 flops   391 x   160 x   135          92597558400       0.0%    100.0%      0.0%
 flops   392 x   136 x   160          93522042880       0.0%    100.0%      0.0%
 flops   392 x   160 x   136          93522042880       0.0%    100.0%      0.0%
 flops   416 x   160 x   135          98518118400       0.0%    100.0%      0.0%
 flops   416 x   135 x   160          98518118400       0.0%    100.0%      0.0%
 flops   391 x   135 x   193          99226298700       0.0%    100.0%      0.0%
 flops   416 x   160 x   136          99247882240       0.0%    100.0%      0.0%
 flops   416 x   136 x   160          99247882240       0.0%    100.0%      0.0%
 flops   392 x   136 x   193         100216963840       0.0%    100.0%      0.0%
 flops   416 x   135 x   193         105570691200       0.0%    100.0%      0.0%
 flops   416 x   136 x   193         106352696320       0.0%    100.0%      0.0%
 flops   391 x   160 x   160         109745254400       0.0%    100.0%      0.0%
 flops   392 x   160 x   160         110025932800       0.0%    100.0%      0.0%
 flops   391 x   160 x   193         117601539200       0.0%    100.0%      0.0%
 flops   392 x   160 x   193         117902310400       0.0%    100.0%      0.0%
 flops   587 x   135 x   135         130216968900       0.0%    100.0%      0.0%
 flops   588 x   135 x   135         130438803600       0.0%    100.0%      0.0%
 flops   587 x   136 x   136         132153254144       0.0%    100.0%      0.0%
 flops   588 x   136 x   136         132378387456       0.0%    100.0%      0.0%
 flops     4 x     4 x   160         137070469120       0.0%    100.0%      0.0%
 flops   587 x   135 x   197         152365946400       0.0%    100.0%      0.0%
 flops   588 x   135 x   197         152625513600       0.0%    100.0%      0.0%
 flops   384 x   135 x   135         153460915200       0.0%    100.0%      0.0%
 flops   587 x   136 x   197         153494583040       0.0%    100.0%      0.0%
 flops   588 x   136 x   197         153756072960       0.0%    100.0%      0.0%
 flops   587 x   135 x   160         154331222400       0.0%    100.0%      0.0%
 flops   587 x   160 x   135         154331222400       0.0%    100.0%      0.0%
 flops   588 x   160 x   135         154594137600       0.0%    100.0%      0.0%
 flops   588 x   135 x   160         154594137600       0.0%    100.0%      0.0%
 flops   587 x   136 x   160         155474416640       0.0%    100.0%      0.0%
 flops   587 x   160 x   136         155474416640       0.0%    100.0%      0.0%
 flops   588 x   160 x   136         155739279360       0.0%    100.0%      0.0%
 flops   588 x   136 x   160         155739279360       0.0%    100.0%      0.0%
 flops   384 x   136 x   136         155742830592       0.0%    100.0%      0.0%
 flops   587 x   160 x   193         176915225600       0.0%    100.0%      0.0%
 flops   588 x   160 x   193         177216614400       0.0%    100.0%      0.0%
 flops   384 x   135 x   160         181879603200       0.0%    100.0%      0.0%
 flops   384 x   160 x   135         181879603200       0.0%    100.0%      0.0%
 flops   384 x   136 x   160         183226859520       0.0%    100.0%      0.0%
 flops   384 x   160 x   136         183226859520       0.0%    100.0%      0.0%
 flops   384 x   135 x   193         194899737600       0.0%    100.0%      0.0%
 flops   384 x   136 x   193         196343439360       0.0%    100.0%      0.0%
 flops   391 x   135 x   197         202565604600       0.0%    100.0%      0.0%
 flops   392 x   136 x   197         204587998720       0.0%    100.0%      0.0%
 flops   416 x   135 x   197         215517369600       0.0%    100.0%      0.0%
 flops   416 x   136 x   197         217113794560       0.0%    100.0%      0.0%
 flops   587 x   135 x   196         227388772800       0.0%    100.0%      0.0%
 flops   588 x   135 x   196         227776147200       0.0%    100.0%      0.0%
 flops   587 x   136 x   196         229073134080       0.0%    100.0%      0.0%
 flops   588 x   136 x   196         229463377920       0.0%    100.0%      0.0%
 flops   416 x   160 x   160         233524428800       0.0%    100.0%      0.0%
 flops     4 x     1 x   128         237014036480       0.0%    100.0%      0.0%
 flops     1 x     4 x   128         237289328640       0.0%    100.0%      0.0%
 flops   391 x   160 x   197         240077753600       0.0%    100.0%      0.0%
 flops   392 x   160 x   197         240691763200       0.0%    100.0%      0.0%
 flops   416 x   160 x   193         250241638400       0.0%    100.0%      0.0%
 flops     1 x    32 x     1         264070530304       0.0%    100.0%      0.0%
 flops   391 x   135 x   196         302306029200       0.0%    100.0%      0.0%
 flops   392 x   136 x   196         305324221440       0.0%    100.0%      0.0%
 flops   416 x   135 x   196         321635059200       0.0%    100.0%      0.0%
 flops   416 x   136 x   196         324017541120       0.0%    100.0%      0.0%
 flops   391 x   160 x   196         358288627200       0.0%    100.0%      0.0%
 flops   392 x   160 x   196         359204966400       0.0%    100.0%      0.0%
 flops   587 x   160 x   197         361163724800       0.0%    100.0%      0.0%
 flops   588 x   160 x   197         361778995200       0.0%    100.0%      0.0%
 flops   587 x   160 x   160         365822156800       0.0%    100.0%      0.0%
 flops   588 x   160 x   160         366445363200       0.0%    100.0%      0.0%
 flops   384 x   135 x   197         397878220800       0.0%    100.0%      0.0%
 flops   384 x   136 x   197         400825466880       0.0%    100.0%      0.0%
 flops   384 x   160 x   160         431122022400       0.0%    100.0%      0.0%
 flops   384 x   160 x   193         461984563200       0.0%    100.0%      0.0%
 flops   416 x   160 x   197         510855987200       0.0%    100.0%      0.0%
 flops   587 x   160 x   196         538995609600       0.0%    100.0%      0.0%
 flops   588 x   160 x   196         539913830400       0.0%    100.0%      0.0%
 flops   384 x   135 x   196         593787801600       0.0%    100.0%      0.0%
 flops   384 x   136 x   196         598186229760       0.0%    100.0%      0.0%
 flops   391 x   128 x   135         740780467200       0.0%    100.0%      0.0%
 flops   391 x   135 x   128         740780467200       0.0%    100.0%      0.0%
 flops   392 x   128 x   136         748176343040       0.0%    100.0%      0.0%
 flops   392 x   136 x   128         748176343040       0.0%    100.0%      0.0%
 flops   416 x   160 x   196         762394214400       0.0%    100.0%      0.0%
 flops   416 x   128 x   135         788144947200       0.0%    100.0%      0.0%
 flops   416 x   135 x   128         788144947200       0.0%    100.0%      0.0%
 flops   416 x   128 x   136         793983057920       0.0%    100.0%      0.0%
 flops   416 x   136 x   128         793983057920       0.0%    100.0%      0.0%
 flops   391 x   128 x   160         877962035200       0.0%    100.0%      0.0%
 flops   391 x   160 x   128         877962035200       0.0%    100.0%      0.0%
 flops   392 x   128 x   160         880207462400       0.0%    100.0%      0.0%
 flops   392 x   160 x   128         880207462400       0.0%    100.0%      0.0%
 flops   391 x   128 x   193         940812313600       0.0%    100.0%      0.0%
 flops   384 x   160 x   197         943118745600       0.0%    100.0%      0.0%
 flops   392 x   128 x   193         943218483200       0.0%    100.0%      0.0%
 flops     4 x     4 x   128        1096563752960       0.0%    100.0%      0.0%
 flops     4 x    32 x     1        1163469647872       0.0%    100.0%      0.0%
 flops     1 x    32 x     4        1163469647872       0.0%    100.0%      0.0%
 flops   587 x   128 x   135        1234649779200       0.0%    100.0%      0.0%
 flops   587 x   135 x   128        1234649779200       0.0%    100.0%      0.0%
 flops   588 x   128 x   135        1236753100800       0.0%    100.0%      0.0%
 flops   588 x   135 x   128        1236753100800       0.0%    100.0%      0.0%
 flops   587 x   128 x   136        1243795333120       0.0%    100.0%      0.0%
 flops   587 x   136 x   128        1243795333120       0.0%    100.0%      0.0%
 flops   588 x   128 x   136        1245914234880       0.0%    100.0%      0.0%
 flops   588 x   136 x   128        1245914234880       0.0%    100.0%      0.0%
 flops   384 x   160 x   196        1407497011200       0.0%    100.0%      0.0%
 flops   587 x   128 x   193        1415321804800       0.0%    100.0%      0.0%
 flops   588 x   128 x   193        1417732915200       0.0%    100.0%      0.0%
 flops   384 x   128 x   135        1455036825600       0.0%    100.0%      0.0%
 flops   384 x   135 x   128        1455036825600       0.0%    100.0%      0.0%
 flops   384 x   128 x   136        1465814876160       0.0%    100.0%      0.0%
 flops   384 x   136 x   128        1465814876160       0.0%    100.0%      0.0%
 flops   416 x   160 x   128        1868195430400       0.0%    100.0%      0.0%
 flops   416 x   128 x   160        1868195430400       0.0%    100.0%      0.0%
 flops   391 x   128 x   197        1920622028800       0.0%    100.0%      0.0%
 flops   392 x   128 x   197        1925534105600       0.0%    100.0%      0.0%
 flops   416 x   128 x   193        2001933107200       0.0%    100.0%      0.0%
 flops   391 x   128 x   196        2866309017600       0.0%    100.0%      0.0%
 flops   392 x   128 x   196        2873639731200       0.0%    100.0%      0.0%
 flops   587 x   128 x   197        2889309798400       0.0%    100.0%      0.0%
 flops   588 x   128 x   197        2894231961600       0.0%    100.0%      0.0%
 flops   587 x   128 x   160        2926577254400       0.0%    100.0%      0.0%
 flops   587 x   160 x   128        2926577254400       0.0%    100.0%      0.0%
 flops   588 x   160 x   128        2931562905600       0.0%    100.0%      0.0%
 flops   588 x   128 x   160        2931562905600       0.0%    100.0%      0.0%
 flops   384 x   128 x   160        3448976179200       0.0%    100.0%      0.0%
 flops   384 x   160 x   128        3448976179200       0.0%    100.0%      0.0%
 flops   384 x   128 x   193        3695876505600       0.0%    100.0%      0.0%
 flops   416 x   128 x   197        4086847897600       0.0%    100.0%      0.0%
 flops   587 x   128 x   196        4311964876800       0.0%    100.0%      0.0%
 flops   588 x   128 x   196        4319310643200       0.0%    100.0%      0.0%
 flops     4 x    32 x     4        5322542131200       0.0%    100.0%      0.0%
 flops   416 x   128 x   196        6099153715200       0.0%    100.0%      0.0%
 flops   391 x   128 x   128        7023696281600       0.0%    100.0%      0.0%
 flops   392 x   128 x   128        7041659699200       0.0%    100.0%      0.0%
 flops   384 x   128 x   197        7544949964800       0.0%    100.0%      0.0%
 flops   384 x   128 x   196       11259976089600       0.0%    100.0%      0.0%
 flops   416 x   128 x   128       14945563443200       0.0%    100.0%      0.0%
 flops   587 x   128 x   128       23412618035200       0.0%    100.0%      0.0%
 flops   588 x   128 x   128       23452503244800       0.0%    100.0%      0.0%
 flops   384 x   128 x   128       27591809433600       0.0%    100.0%      0.0%
 flops inhomo. stacks                           0       0.0%      0.0%      0.0%
 flops total                       244.752729E+12       0.0%    100.0%      0.0%
 flops max/rank                      6.413448E+12       0.0%    100.0%      0.0%
 matmuls inhomo. stacks                         0       0.0%      0.0%      0.0%
 matmuls total                        19935668644       0.0%    100.0%      0.0%
 number of processed stacks              38228511       0.0%    100.0%      0.0%
 average stack size                                     0.0     521.5       0.0
 marketing flops                   298.661188E+12
 -------------------------------------------------------------------------------
 # multiplications                          26813
 max memory usage/rank               1.505149E+09
 # max total images/rank                        3
 # max 3D layers                                1
 # MPI messages exchanged                25740480
 MPI messages size (bytes):
  total size                         9.065061E+12
  min size                           0.000000E+00
  max size                         926.688000E+03
  average size                     352.171406E+03
 MPI breakdown and total messages size (bytes):
             size <=      128                2712                        0
       128 < size <=     8192                   0                        0
      8192 < size <=    32768                  60                  1966080
     32768 < size <=   131072             5115012             670433725080
    131072 < size <=  4194304            20622696            8390723553000
   4194304 < size <= 16777216                   0                        0
  16777216 < size                               0                        0
 -------------------------------------------------------------------------------

 *** WARNING in dbcsr_mm.F:294 :: Using a non-square number of MPI ranks ***
 *** might lead to poor performance. Used ranks: 48 Suggested: 49 100    ***

 -------------------------------------------------------------------------------
 -                                                                             -
 -                      DBCSR MESSAGE PASSING PERFORMANCE                      -
 -                                                                             -
 -------------------------------------------------------------------------------
 ROUTINE             CALLS      AVE VOLUME [Bytes]
 MP_Bcast              175                     12.
 MP_Allreduce       146506                    111.
 MP_Alltoall         86384                 119258.
 MP_ISend          1243096                 169956.
 MP_IRecv          1243096                 167016.
 -------------------------------------------------------------------------------

 -------------------------------------------------------------------------------
 -                                                                             -
 -                                GRID STATISTICS                              -
 -                                                                             -
 -------------------------------------------------------------------------------
 LP    KERNEL             BACKEND                              COUNT     PERCENT
 1     collocate ortho    REF                              476494180      24.48%
 1     integrate ortho    REF                              476110246      24.46%
 2     integrate ortho    REF                              254764588      13.09%
 2     collocate ortho    REF                              254400500      13.07%
 0     collocate ortho    REF                              242294440      12.45%
 0     integrate ortho    REF                              241897236      12.43%
 3     integrate ortho    REF                                 417050       0.02%
 0     collocate general  REF                                  45696       0.00%
 1     integrate general  REF                                  45696       0.00%
 -------------------------------------------------------------------------------

 MEMORY| Estimated peak process memory [MiB]                                1436

 -------------------------------------------------------------------------------
 -                                                                             -
 -                         MESSAGE PASSING PERFORMANCE                         -
 -                                                                             -
 -------------------------------------------------------------------------------

 ROUTINE             CALLS      AVE VOLUME [Bytes]
 MP_Group                4
 MP_Bcast            79958                  15451.
 MP_Allreduce       204467                    953.
 MP_Sync              2436
 MP_Alltoall         22587               82007418.
 MP_SendRecv           188                  10474.
 MP_ISendRecv       229360                 448800.
 MP_Wait            336764
 MP_comm_split        1216
 MP_ISend            87876                1782004.
 MP_IRecv            87876                1782004.
 MP_Recv              2976                 601600.
 -------------------------------------------------------------------------------


 -------------------------------------------------------------------------------
 -                                                                             -
 -                           R E F E R E N C E S                               -
 -                                                                             -
 -------------------------------------------------------------------------------
 
 CP2K version 8.2, the CP2K developers group (2021).
 CP2K is freely available from https://www.cp2k.org/ .

 Kuehne,Thomas D.; Iannuzzi,Marcella; Del Ben,Mauro;
 Rybkin,Vladimir V.; Seewald,Patrick; Stein,Frederick; Laino,Teodoro;
 Khaliullin,Rustam Z.; Schuett,Ole; Schiffmann,Florian; Golze,Dorothea;
 Wilhelm,Jan; Chulkov,Sergey; Bani-Hashemian,Mohammad Hossein;
 Weber,Valery; Borstnik,Urban; Taillefumier,Mathieu;
 Jakobovits,Alice Shoshana; Lazzaro,Alfio; Pabst,Hans; Mueller,Tiziano;
 Schade,Robert; Guidon,Manuel; Andermatt,Samuel; Holmberg,Nico;
 Schenter,Gregory K.; Hehn,Anna; Bussy,Augustin; Belleflamme,Fabian;
 Tabacchi,Gloria; Gloess,Andreas; Lass,Michael; Bethune,Iain;
 Mundy,Christopher J.; Plessl,Christian; Watkins,Matt;
 VandeVondele,Joost; Krack,Matthias; Hutter,Juerg. 
 The Journal of Chemical Physics, 152 (19), (2020). 
 CP2K: An electronic structure and molecular dynamics software package -
 Quickstep: Efficient and accurate electronic structure calculations.
 https://doi.org/10.1063/5.0007045

 Goerigk, Lars; Hansen, Andreas; Bauer, Christoph; Ehrlich, Stephan;
 Najibi, Asim; Grimme, Stefan. , 19 (48), (2017). 
 A look at the density functional theory zoo with the advanced GMTKN55 database
 for general main group thermochemistry, kinetics and noncovalent interactions.
 https://doi.org/10.1039/C7CP04913G

 Schuett, Ole; Messmer, Peter; Hutter, Juerg; VandeVondele, Joost. 
 Electronic Structure Calculations on Graphics Processing Units, John
 Wiley & Sons, Ltd, 173-190 (2016). 
 GPU-Accelerated Sparse Matrix-Matrix Multiplication for
 Linear Scaling Density Functional Theory.
 https://doi.org/10.1002/9781118670712.ch8

 Heinecke, A; Henry, G; Hutchinson, M; Pabst, H. 
 Proceedings of Intl. Supercomputing Conference, 981-991 (2016). 
 LIBXSMM: Accelerating Small Matrix Multiplications
 by Runtime Code Generation.
 https://doi.org/10.1109/SC.2016.83

 Borstnik, U; VandeVondele, J; Weber, V; Hutter, J. 
 PARALLEL COMPUTING, 40 (5-6), 47-58 (2014). 
 Sparse matrix multiplication: The distributed block-compressed sparse
 row library.
 https://doi.org/10.1016/j.parco.2014.03.012

 Hutter, J; Iannuzzi, M; Schiffmann, F; VandeVondele, J. 
 WIREs Comput Mol Sci., 4 (1), 15-25 (2014). 
 CP2K: atomistic simulations of condensed matter systems.
 https://doi.org/10.1002/wcms.1159

 Grimme, S; Ehrlich, S; Goerigk, L. 
 JOURNAL OF COMPUTATIONAL CHEMISTRY, 32, 1456 (2011). 
 Effect of the damping function in dispersion corrected density functional theory.
 https://doi.org/10.1002/jcc.21759

 Grimme, S; Antony, J; Ehrlich, S; Krieg, H. 
 JOURNAL OF CHEMICAL PHYSICS, 132 (15), 154104 (2010). 
 A consistent and accurate ab initio parametrization of density
 functional dispersion correction (DFT-D) for the 94 elements H-Pu.
 https://doi.org/10.1063/1.3382344

 VandeVondele, J; Hutter, J. 
 JOURNAL OF CHEMICAL PHYSICS, 127 (11), 114105 (2007). 
 Gaussian basis sets for accurate calculations on molecular systems in
 gas and condensed phases.
 https://doi.org/10.1063/1.2770708

 Krack, M. 
 THEORETICAL CHEMISTRY ACCOUNTS, 114 (1-3), 145-152 (2005). 
 Pseudopotentials for H to Kr optimized for gradient-corrected
 exchange-correlation functionals.
 https://doi.org/10.1007/s00214-005-0655-y

 VandeVondele, J; Krack, M; Mohamed, F; Parrinello, M; Chassaing, T;
 Hutter, J. COMPUTER PHYSICS COMMUNICATIONS, 167 (2), 103-128 (2005). 
 QUICKSTEP: Fast and accurate density functional calculations using a
 mixed Gaussian and plane waves approach.
 https://doi.org/10.1016/j.cpc.2004.12.014

 Frigo, M; Johnson, SG. 
 PROCEEDINGS OF THE IEEE, 93 (2), 216-231 (2005). 
 The design and implementation of FFTW3.
 https://doi.org/10.1109/JPROC.2004.840301

 VandeVondele, J; Hutter, J. 
 JOURNAL OF CHEMICAL PHYSICS, 118 (10), 4365-4369 (2003). 
 An efficient orbital transformation method for electronic structure
 calculations.
 https://doi.org/10.1063/1.1543154

 Hartwigsen, C; Goedecker, S; Hutter, J. 
 PHYSICAL REVIEW B, 58 (7), 3641-3662 (1998). 
 Relativistic separable dual-space Gaussian pseudopotentials from H to Rn.
 https://doi.org/10.1103/PhysRevB.58.3641

 Lippert, G; Hutter, J; Parrinello, M. 
 MOLECULAR PHYSICS, 92 (3), 477-487 (1997). 
 A hybrid Gaussian and plane wave density functional scheme.
 https://doi.org/10.1080/002689797170220

 Perdew, JP; Burke, K; Ernzerhof, M. 
 PHYSICAL REVIEW LETTERS, 77 (18), 3865-3868 (1996). 
 Generalized gradient approximation made simple.
 https://doi.org/10.1103/PhysRevLett.77.3865

 Goedecker, S; Teter, M; Hutter, J. 
 PHYSICAL REVIEW B, 54 (3), 1703-1710 (1996). 
 Separable dual-space Gaussian pseudopotentials.
 https://doi.org/10.1103/PhysRevB.54.1703


 -------------------------------------------------------------------------------
 -                                                                             -
 -                                T I M I N G                                  -
 -                                                                             -
 -------------------------------------------------------------------------------
 SUBROUTINE                       CALLS  ASD         SELF TIME        TOTAL TIME
                                MAXIMUM       AVERAGE  MAXIMUM  AVERAGE  MAXIMUM
 CP2K                                 1  1.0    0.145    0.183 8689.712 8689.731
 qs_forces                            1  2.0    0.001    0.001 8688.065 8688.076
 qs_energies                          1  3.0    0.000    0.000 8679.080 8679.090
 scf_env_do_scf                       1  4.0    0.001    0.002 8673.069 8673.080
 scf_env_do_scf_inner_loop          609  5.0    0.013    0.102 8661.006 8661.033
 rebuild_ks_matrix                  610  7.0    0.002    0.003 5943.176 5944.948
 qs_ks_build_kohn_sham_matrix       610  8.0    0.094    0.105 5943.175 5944.947
 qs_ks_update_qs_env                610  6.0    0.004    0.005 5934.995 5936.688
 pw_transfer                      21351 10.7    1.398    1.636 4696.587 5129.443
 fft_wrap_pw1pw2                  20131 11.8    0.263    0.297 4677.989 5111.960
 fft_wrap_pw1pw2_140              12811 12.9  264.301  386.506 4459.277 4894.970
 fft3d_ps                         20131 13.8 1575.192 1710.984 3613.695 4127.248
 qs_vxc_create                      610  9.0    0.013    0.016 4052.328 4060.280
 xc_vxc_pw_create                   610 10.0   75.150   79.846 4052.315 4060.268
 xc_rho_set_and_dset_create         610 11.0   28.022   31.526 1956.086 2187.291
 mp_alltoall_z22v                 20131 15.8 1400.875 2025.043 1400.875 2025.043
 qs_rho_update_rho                  610  6.0    0.004    0.005 1980.407 1981.223
 calculate_rho_elec                1220  7.0   13.817   14.633 1980.402 1981.219
 yz_to_x                           9761 14.1  242.273  276.503 1043.849 1552.883
 sum_up_and_integrate               610  9.0    9.364   10.051 1550.778 1550.854
 integrate_v_rspace                1220 10.0    0.043    0.050 1541.410 1541.882
 density_rs2pw                     1220  8.0    0.079    0.093 1442.529 1526.962
 x_to_yz                          10370 15.3  394.855  431.056  994.154 1076.615
 rs_pw_transfer                    9762 10.5    0.168    0.194  854.169  940.110
 potential_pw2rs                   1220 11.0    1.081    1.249  819.201  820.231
 grid_collocate_task_list          1220  8.0  476.893  770.412  476.893  770.412
 qs_scf_new_mos                     609  6.0    0.003    0.004  757.195  758.066
 qs_scf_loop_do_ot                  609  7.0    0.005    0.008  757.192  758.063
 ot_scf_mini                        609  8.0    0.025    0.028  732.354  732.944
 xc_functional_eval                 610 12.0    0.006    0.008  499.152  727.890
 pbe_lsd_eval                       610 13.0  499.145  727.883  499.145  727.883
 grid_integrate_task_list          1220 11.0  420.707  708.490  420.707  708.490
 dbcsr_multiply_generic           26813 11.1    1.620    1.740  505.557  513.644
 mp_waitany                       87876 12.5  396.975  491.788  396.975  491.788
 rs_pw_transfer_RS2PW_140          1221 10.0   68.755   81.046  371.864  489.759
 pw_gather_p                       9761 13.1  432.287  469.053  432.287  469.053
 mp_alltoall_d11v                 17592 13.6  305.757  390.597  305.757  390.597
 pw_scatter_p                     10370 14.3  357.721  389.351  357.721  389.351
 rs_gather_matrices                1220 11.0    0.788    0.912  301.454  386.165
 multiply_cannon                  26813 12.1    2.193    2.560  343.484  384.118
 multiply_cannon_loop             26813 13.1    2.726    3.060  321.339  363.701
 ot_mini                            609  9.0    0.007    0.008  339.038  340.016
 qs_ot_get_p                       1220  9.0    0.010    0.012  313.688  315.357
 qs_ot_p2m_diag                    1216 10.0    5.256    6.866  276.747  279.746
 qs_ot_get_derivative              1218 10.0    0.015    0.018  277.375  278.102
 multiply_cannon_multrec         321756 14.1  228.599  271.537  228.816  271.763
 cp_dbcsr_syevd                    1216 11.0    0.084    0.106  238.964  238.975
 cp_fm_syevd                       1216 12.0    0.015    0.021  233.268  233.337
 cp_fm_redistribute_end            1216 13.0   97.656  231.525   98.137  231.732
 mp_waitall_1                   2393928 15.0  186.336  231.167  186.336  231.167
 cp_fm_syevd_base                  1216 13.0  132.967  228.933  132.967  228.933
 qs_ot_get_derivative_diag         1214 11.0    0.047    0.057  207.887  208.620
 pw_derive                         7320 11.5  184.008  200.155  184.008  200.155
 fft_wrap_pw1pw2_50                2440 12.5    8.057    9.185  177.520  192.680
 -------------------------------------------------------------------------------

 The number of warnings for this run is : 1
 
 -------------------------------------------------------------------------------
  **** **** ******  **  PROGRAM ENDED AT                 2023-12-04 15:56:45.005
 ***** ** ***  *** **   PROGRAM RAN ON                  csl7.int.triton.aalto.fi
 **    ****   ******    PROGRAM RAN BY                                   huangj4
 ***** **    ** ** **   PROGRAM PROCESS ID                                166921
  **** **  *******  **  PROGRAM STOPPED IN /scratch/phys/sin/Jie/Github/cp2kTest
                                           /ab_energy/Cluster_444
