 DBCSR| CPU Multiplication driver                                           XSMM
 DBCSR| Multrec recursion limit                                              512
 DBCSR| Multiplication stack size                                           1000
 DBCSR| Maximum elements for images                                    UNLIMITED
 DBCSR| Multiplicative factor virtual images                                   1
 DBCSR| Use multiplication densification                                       T
 DBCSR| Multiplication size stacks                                             3
 DBCSR| Use memory pool for CPU allocation                                     F
 DBCSR| Number of 3D layers                                               SINGLE
 DBCSR| Use MPI memory allocation                                              F
 DBCSR| Use RMA algorithm                                                      F
 DBCSR| Use Communication thread                                               T
 DBCSR| Communication thread load                                             87
 DBCSR| MPI: My node id                                                        0
 DBCSR| MPI: Number of nodes                                                  48
 DBCSR| OMP: Current number of threads                                         1
 DBCSR| OMP: Max number of threads                                             1
 DBCSR| Split modifier for TAS multiplication algorithm                  1.0E+00


  **** **** ******  **  PROGRAM STARTED AT               2023-12-04 15:56:47.011
 ***** ** ***  *** **   PROGRAM STARTED ON              csl7.int.triton.aalto.fi
 **    ****   ******    PROGRAM STARTED BY                               huangj4
 ***** **    ** ** **   PROGRAM PROCESS ID                                187375
  **** **  *******  **  PROGRAM STARTED IN /scratch/phys/sin/Jie/Github/cp2kTest
                                           /ab_energy/Cluster_444

 CP2K| version string:                                          CP2K version 8.2
 CP2K| source code revision number:                                  git:310b7ab
 CP2K| cp2kflags: omp libint fftw3 libxc parallel mpi3 scalapack xsmm           
 CP2K| is freely available from                            https://www.cp2k.org/
 CP2K| Program compiled at                          Thu May 12 10:08:29 UTC 2022
 CP2K| Program compiled on                                          80d7174ae3e8
 CP2K| Program compiled for                            linux-centos7-haswell-gcc
 CP2K| Data directory path    /share/apps/spack/envs/fgci-centos7-haswell/softwa
 CP2K| Input file name                                       calEnergy_Water.inp

 GLOBAL| Force Environment number                                              1
 GLOBAL| Basis set file name                                        BASIS_MOLOPT
 GLOBAL| Potential file name                                      GTH_POTENTIALS
 GLOBAL| MM Potential file name                                     MM_POTENTIAL
 GLOBAL| Coordinate file name                                ./relaxed_Water.xyz
 GLOBAL| Method name                                                        CP2K
 GLOBAL| Project name                                                  calEnergy
 GLOBAL| Run type                                                   ENERGY_FORCE
 GLOBAL| FFT library                                                       FFTW3
 GLOBAL| Diagonalization library                                       ScaLAPACK
 GLOBAL| Orthonormality check for eigenvectors                          DISABLED
 GLOBAL| Matrix multiplication library                                    SCALAP
 GLOBAL| All-to-all communication in single precision                          F
 GLOBAL| FFTs using library dependent lengths                                  F
 GLOBAL| Grid backend                                                       AUTO
 GLOBAL| Global print level                                                  LOW
 GLOBAL| MPI I/O enabled                                                       T
 GLOBAL| Total number of message passing processes                            48
 GLOBAL| Number of threads for this process                                    1
 GLOBAL| This output is from process                                           0
 GLOBAL| CPU model name                 Intel(R) Xeon(R) Gold 6248 CPU @ 2.50GHz
 GLOBAL| CPUID                                                              1003
 GLOBAL| Compiled for CPUID                                                 1002

 *** HINT in environment.F:872 :: The compiler target flags (x86_avx2)     ***
 *** used to build this binary cannot exploit all extensions of this CPU   ***
 *** model (x86_avx512). Consider compiler target flags as part of FCFLAGS ***
 *** and CFLAGS (ARCH file).                                               ***


 MEMORY| system memory details [Kb]
 MEMORY|                        rank 0           min           max       average
 MEMORY| MemTotal            196637612     196637596     196637612     196637604
 MEMORY| MemFree             148208472     133431288     148208472     140824013
 MEMORY| Buffers                     0             0             0             0
 MEMORY| Cached               15274016      15273924      21473664      18373822
 MEMORY| Slab                   807736        807736       1028072        917904
 MEMORY| SReclaimable           289856        289856        382944        336400
 MEMORY| MemLikelyFree       163772344     155287896     163772344     159534236


 GENERATE|  Preliminary Number of Bonds generated:                             0
 GENERATE|  Achieved consistency in connectivity generation.

 *******************************************************************************
 *******************************************************************************
 **                                                                           **
 **     #####                         ##              ##                      **
 **    ##   ##            ##          ##              ##                      **
 **   ##     ##                       ##            ######                    **
 **   ##     ##  ##   ##  ##   #####  ##  ##   ####   ##    #####    #####    **
 **   ##     ##  ##   ##  ##  ##      ## ##   ##      ##   ##   ##  ##   ##   **
 **   ##  ## ##  ##   ##  ##  ##      ####     ###    ##   ######   ######    **
 **    ##  ###   ##   ##  ##  ##      ## ##      ##   ##   ##       ##        **
 **     #######   #####   ##   #####  ##  ##  ####    ##    #####   ##        **
 **           ##                                                    ##        **
 **                                                                           **
 **                                                ... make the atoms dance   **
 **                                                                           **
 **            Copyright (C) by CP2K developers group (2000-2021)             **
 **                      J. Chem. Phys. 152, 194103 (2020)                    **
 **                                                                           **
 *******************************************************************************


 TOTAL NUMBERS AND MAXIMUM NUMBERS

  Total number of            - Atomic kinds:                                   2
                             - Atoms:                                       2673
                             - Shell sets:                                  2673
                             - Shells:                                      3564
                             - Primitive Cartesian functions:              18711
                             - Cartesian basis functions:                   5346
                             - Spherical basis functions:                   5346

  Maximum angular momentum of- Orbital basis functions:                        1
                             - Local part of the GTH pseudopotential:          2
                             - Non-local part of the GTH pseudopotential:      0


 SCF PARAMETERS         Density guess:                                    ATOMIC
                        --------------------------------------------------------
                        max_scf:                                            1000
                        max_scf_history:                                       0
                        max_diis:                                              4
                        --------------------------------------------------------
                        eps_scf:                                        1.00E-06
                        eps_scf_history:                                0.00E+00
                        eps_diis:                                       1.00E-01
                        eps_eigval:                                     1.00E-05
                        --------------------------------------------------------
                        level_shift [a.u.]:                                 0.00
                        --------------------------------------------------------
                        No outer SCF

 Spin 1

 Number of electrons:                                                       3564
 Number of occupied orbitals:                                               3564
 Number of molecular orbitals:                                              3564

 Spin 2

 Number of electrons:                                                       3564
 Number of occupied orbitals:                                               3564
 Number of molecular orbitals:                                              3564

 Number of orbital functions:                                               5346
 Number of independent orbital functions:                                   5346

 Extrapolation method: initial_guess


 SCF WAVEFUNCTION OPTIMIZATION

  ----------------------------------- OT ---------------------------------------
  Minimizer      : DIIS                : direct inversion
                                         in the iterative subspace
                                         using   7 DIIS vectors
                                         safer DIIS on
  Preconditioner : FULL_KINETIC        : inversion of T + eS
  Precond_solver : DEFAULT
  stepsize       :    0.15000000                  energy_gap     :    0.20000000
  eps_taylor     :   0.10000E-15                  max_taylor     :             4
  ----------------------------------- OT ---------------------------------------

  Step     Update method      Time    Convergence         Total energy    Change
  ------------------------------------------------------------------------------
     1 OT DIIS     0.15E+00   21.2     0.00327189    -14704.3426843391 -1.47E+04
     2 OT DIIS     0.15E+00   27.9     0.00302467    -14762.9574194057 -5.86E+01
     3 OT DIIS     0.15E+00   27.5     0.00238331    -14921.3247369788 -1.58E+02
     4 OT DIIS     0.15E+00   26.8     0.00181494    -15043.4031025018 -1.22E+02
     5 OT DIIS     0.15E+00   23.7     0.00158027    -15102.1668282934 -5.88E+01
     6 OT DIIS     0.15E+00   23.3     0.00109167    -15191.3994762755 -8.92E+01
     7 OT DIIS     0.15E+00   24.5     0.00110437    -15197.0254022624 -5.63E+00
     8 OT DIIS     0.15E+00   21.6     0.00106761    -15205.4448583721 -8.42E+00
     9 OT SD       0.15E+00   22.2     0.00087213    -15239.8975023965 -3.45E+01
    10 OT DIIS     0.15E+00   24.8     0.00083851    -15244.1601886335 -4.26E+00
    11 OT SD       0.15E+00   26.7     0.00079829    -15255.4240363830 -1.13E+01
    12 OT DIIS     0.15E+00   27.3     0.00076219    -15258.9828793524 -3.56E+00
    13 OT DIIS     0.15E+00   25.9     0.00069395    -15259.0908963094 -1.08E-01
    14 OT DIIS     0.15E+00   27.9     0.00076630    -15261.0910181294 -2.00E+00
    15 OT DIIS     0.15E+00   27.4     0.00048669    -15271.5369203277 -1.04E+01
    16 OT SD       0.15E+00   27.4     0.00042582    -15276.3532786887 -4.82E+00
    17 OT DIIS     0.15E+00   26.5     0.00041212    -15277.3725700128 -1.02E+00
    18 OT DIIS     0.15E+00   24.0     0.00035773    -15281.1484098812 -3.78E+00
    19 OT SD       0.15E+00   21.3     0.00026735    -15284.5505684694 -3.40E+00
    20 OT DIIS     0.15E+00   21.4     0.00026253    -15284.9553490946 -4.05E-01
    21 OT SD       0.15E+00   21.3     0.00026695    -15286.1713874415 -1.22E+00
    22 OT DIIS     0.15E+00   21.4     0.00026112    -15286.5741093442 -4.03E-01
    23 OT DIIS     0.15E+00   21.4     0.00022495    -15288.5492345579 -1.98E+00
    24 OT SD       0.15E+00   22.3     0.00022830    -15288.6356778585 -8.64E-02
    25 OT DIIS     0.15E+00   27.4     0.00022495    -15288.9312894380 -2.96E-01
    26 OT DIIS     0.15E+00   26.2     0.00022545    -15288.9589929706 -2.77E-02
    27 OT SD       0.15E+00   22.4     0.00022035    -15288.8668482655  9.21E-02
    28 OT DIIS     0.15E+00   27.9     0.00021794    -15289.1428097254 -2.76E-01
    29 OT DIIS     0.15E+00   27.6     0.00019424    -15291.5747369698 -2.43E+00
    30 OT DIIS     0.15E+00   27.5     0.00021558    -15291.5733763909  1.36E-03
    31 OT SD       0.15E+00   27.8     0.00019252    -15291.7519344250 -1.79E-01
    32 OT SD       0.15E+00   27.6     0.00019011    -15291.9623887785 -2.10E-01
    33 OT SD       0.15E+00   25.9     0.00018811    -15292.1678254534 -2.05E-01
    34 OT DIIS     0.15E+00   24.3     0.00018644    -15292.3691488693 -2.01E-01
    35 OT SD       0.15E+00   21.4     0.00020473    -15295.0620092988 -2.69E+00
    36 OT SD       0.15E+00   21.2     0.00020007    -15295.2988330211 -2.37E-01
    37 OT DIIS     0.15E+00   21.3     0.00019558    -15295.5250324426 -2.26E-01
    38 OT SD       0.15E+00   22.4     0.00018246    -15296.6470257858 -1.12E+00
    39 OT SD       0.15E+00   26.4     0.00017835    -15296.8351578220 -1.88E-01
    40 OT DIIS     0.15E+00   26.7     0.00017436    -15297.0149296004 -1.80E-01
    41 OT DIIS     0.15E+00   21.9     0.00017301    -15297.7277959074 -7.13E-01
    42 OT DIIS     0.15E+00   27.8     0.00010455    -15299.4662249903 -1.74E+00
    43 OT DIIS     0.15E+00   27.3     0.00009032    -15300.0178838876 -5.52E-01
    44 OT SD       0.15E+00   27.4     0.00009354    -15300.0307335061 -1.28E-02
    45 OT DIIS     0.15E+00   27.5     0.00009013    -15300.0798118971 -4.91E-02
    46 OT DIIS     0.15E+00   25.9     0.00008555    -15300.5087709398 -4.29E-01
    47 OT DIIS     0.15E+00   24.5     0.00006024    -15300.7634059881 -2.55E-01
    48 OT DIIS     0.15E+00   24.7     0.00005670    -15300.7739779930 -1.06E-02
    49 OT DIIS     0.15E+00   25.5     0.00004544    -15301.0897064469 -3.16E-01
    50 OT DIIS     0.15E+00   26.0     0.00004002    -15301.1900051937 -1.00E-01
    51 OT DIIS     0.15E+00   27.9     0.00004309    -15301.1837962605  6.21E-03
    52 OT DIIS     0.15E+00   24.9     0.00003738    -15301.2683422368 -8.45E-02
    53 OT DIIS     0.15E+00   25.8     0.00003391    -15301.3111195557 -4.28E-02
    54 OT DIIS     0.15E+00   27.5     0.00003117    -15301.3479654830 -3.68E-02
    55 OT DIIS     0.15E+00   27.4     0.00003255    -15301.4194231125 -7.15E-02
    56 OT DIIS     0.15E+00   27.4     0.00003083    -15301.4398960770 -2.05E-02
    57 OT DIIS     0.15E+00   26.2     0.00002639    -15301.4635836697 -2.37E-02
    58 OT DIIS     0.15E+00   21.4     0.00002493    -15301.4795513934 -1.60E-02
    59 OT DIIS     0.15E+00   21.4     0.00002478    -15301.5106824522 -3.11E-02
    60 OT DIIS     0.15E+00   23.6     0.00002054    -15301.5553704462 -4.47E-02
    61 OT SD       0.15E+00   24.7     0.00002025    -15301.5665946802 -1.12E-02
    62 OT DIIS     0.15E+00   24.4     0.00001990    -15301.5689181830 -2.32E-03
    63 OT DIIS     0.15E+00   27.8     0.00001641    -15301.6346466463 -6.57E-02
    64 OT DIIS     0.15E+00   25.5     0.00001605    -15301.6414906849 -6.84E-03
    65 OT DIIS     0.15E+00   26.6     0.00001537    -15301.6597713722 -1.83E-02
    66 OT DIIS     0.15E+00   27.6     0.00001635    -15301.6735837482 -1.38E-02
    67 OT DIIS     0.15E+00   27.6     0.00001263    -15301.7133244064 -3.97E-02
    68 OT DIIS     0.15E+00   27.7     0.00001259    -15301.7137009236 -3.77E-04
    69 OT DIIS     0.15E+00   26.5     0.00001187    -15301.7255241157 -1.18E-02
    70 OT DIIS     0.15E+00   22.0     0.00001158    -15301.7319580091 -6.43E-03
    71 OT DIIS     0.15E+00   21.3     0.00001148    -15301.7344980782 -2.54E-03
    72 OT DIIS     0.15E+00   21.3     0.00001115    -15301.7419120601 -7.41E-03
    73 OT DIIS     0.15E+00   21.6     0.00000989    -15301.7625052769 -2.06E-02
    74 OT DIIS     0.15E+00   24.8     0.00000950    -15301.7678209493 -5.32E-03
    75 OT DIIS     0.15E+00   27.9     0.00000930    -15301.7721631316 -4.34E-03
    76 OT SD       0.15E+00   22.5     0.00000819    -15301.7900681185 -1.79E-02
    77 OT DIIS     0.15E+00   25.3     0.00000810    -15301.7904494922 -3.81E-04
    78 OT DIIS     0.15E+00   27.6     0.00000723    -15301.8035923146 -1.31E-02
    79 OT DIIS     0.15E+00   27.4     0.00000718    -15301.8042861123 -6.94E-04
    80 OT DIIS     0.15E+00   27.8     0.00000706    -15301.8058644312 -1.58E-03
    81 OT DIIS     0.15E+00   26.8     0.00000686    -15301.8096796111 -3.82E-03
    82 OT DIIS     0.15E+00   24.6     0.00000667    -15301.8113166867 -1.64E-03
    83 OT DIIS     0.15E+00   24.6     0.00000617    -15301.8284252971 -1.71E-02
    84 OT DIIS     0.15E+00   24.5     0.00000585    -15301.8282783221  1.47E-04
    85 OT DIIS     0.15E+00   25.5     0.00000577    -15301.8298568760 -1.58E-03
    86 OT DIIS     0.15E+00   25.8     0.00000525    -15301.8390085619 -9.15E-03
    87 OT SD       0.15E+00   27.7     0.00000525    -15301.8429482969 -3.94E-03
    88 OT DIIS     0.15E+00   23.3     0.00000520    -15301.8431051517 -1.57E-04
    89 OT DIIS     0.15E+00   24.7     0.00000483    -15301.8500646954 -6.96E-03
    90 OT DIIS     0.15E+00   27.6     0.00000471    -15301.8502582833 -1.94E-04
    91 OT DIIS     0.15E+00   27.6     0.00000477    -15301.8503094378 -5.12E-05
    92 OT DIIS     0.15E+00   27.5     0.00000464    -15301.8510582339 -7.49E-04
    93 OT DIIS     0.15E+00   26.9     0.00000457    -15301.8542445038 -3.19E-03
    94 OT DIIS     0.15E+00   23.4     0.00000443    -15301.8554845079 -1.24E-03
    95 OT DIIS     0.15E+00   22.7     0.00000423    -15301.8608439322 -5.36E-03
    96 OT DIIS     0.15E+00   25.7     0.00000413    -15301.8619819877 -1.14E-03
    97 OT SD       0.15E+00   21.7     0.00000409    -15301.8644632661 -2.48E-03
    98 OT DIIS     0.15E+00   22.1     0.00000405    -15301.8645584772 -9.52E-05
    99 OT DIIS     0.15E+00   27.2     0.00000398    -15301.8675286562 -2.97E-03
   100 OT DIIS     0.15E+00   27.0     0.00000369    -15301.8689909463 -1.46E-03
   101 OT DIIS     0.15E+00   25.2     0.00000362    -15301.8690610447 -7.01E-05
   102 OT DIIS     0.15E+00   27.8     0.00000358    -15301.8701840532 -1.12E-03
   103 OT DIIS     0.15E+00   27.5     0.00000355    -15301.8706756100 -4.92E-04
   104 OT DIIS     0.15E+00   27.4     0.00000331    -15301.8741631956 -3.49E-03
   105 OT DIIS     0.15E+00   27.3     0.00000329    -15301.8742990037 -1.36E-04
   106 OT DIIS     0.15E+00   24.8     0.00000314    -15301.8776523803 -3.35E-03
   107 OT DIIS     0.15E+00   21.3     0.00000312    -15301.8782261209 -5.74E-04
   108 OT DIIS     0.15E+00   22.8     0.00000304    -15301.8795214975 -1.30E-03
   109 OT DIIS     0.15E+00   21.3     0.00000300    -15301.8801590925 -6.38E-04
   110 OT DIIS     0.15E+00   21.3     0.00000296    -15301.8805908324 -4.32E-04
   111 OT DIIS     0.15E+00   25.4     0.00000286    -15301.8824568746 -1.87E-03
   112 OT DIIS     0.15E+00   27.6     0.00000284    -15301.8829632294 -5.06E-04
   113 OT DIIS     0.15E+00   22.6     0.00000285    -15301.8839116345 -9.48E-04
   114 OT DIIS     0.15E+00   26.5     0.00000268    -15301.8863426676 -2.43E-03
   115 OT DIIS     0.15E+00   27.5     0.00000269    -15301.8866265751 -2.84E-04
   116 OT SD       0.15E+00   27.7     0.00000260    -15301.8889423600 -2.32E-03
   117 OT DIIS     0.15E+00   27.4     0.00000259    -15301.8889808924 -3.85E-05
   118 OT DIIS     0.15E+00   27.1     0.00000352    -15301.8895428042 -5.62E-04
   119 OT DIIS     0.15E+00   25.1     0.00000322    -15301.8905381318 -9.95E-04
   120 OT DIIS     0.15E+00   24.9     0.00000242    -15301.8918225396 -1.28E-03
   121 OT DIIS     0.15E+00   22.2     0.00000238    -15301.8923991543 -5.77E-04
   122 OT SD       0.15E+00   21.3     0.00000231    -15301.8945764785 -2.18E-03
   123 OT DIIS     0.15E+00   21.9     0.00000230    -15301.8946069588 -3.05E-05
   124 OT DIIS     0.15E+00   26.6     0.00000227    -15301.8969101061 -2.30E-03
   125 OT SD       0.15E+00   27.1     0.00000227    -15301.8975728974 -6.63E-04
   126 OT DIIS     0.15E+00   24.0     0.00000225    -15301.8976021697 -2.93E-05
   127 OT DIIS     0.15E+00   27.8     0.00000211    -15301.8989624372 -1.36E-03
   128 OT DIIS     0.15E+00   27.4     0.00000210    -15301.8990549344 -9.25E-05
   129 OT SD       0.15E+00   27.7     0.00000221    -15301.9015754435 -2.52E-03
   130 OT DIIS     0.15E+00   27.7     0.00000217    -15301.9016030706 -2.76E-05
   131 OT SD       0.15E+00   27.3     0.00000192    -15301.9033051954 -1.70E-03
   132 OT DIIS     0.15E+00   26.7     0.00000191    -15301.9033261288 -2.09E-05
   133 OT SD       0.15E+00   21.4     0.00000182    -15301.9055100239 -2.18E-03
   134 OT DIIS     0.15E+00   21.3     0.00000181    -15301.9055288810 -1.89E-05
   135 OT DIIS     0.15E+00   21.3     0.00000170    -15301.9071789748 -1.65E-03
   136 OT DIIS     0.15E+00   21.4     0.00000170    -15301.9075585764 -3.80E-04
   137 OT DIIS     0.15E+00   24.1     0.00000168    -15301.9076156026 -5.70E-05
   138 OT DIIS     0.15E+00   27.4     0.00000167    -15301.9076825049 -6.69E-05
   139 OT DIIS     0.15E+00   25.6     0.00000162    -15301.9082064719 -5.24E-04
   140 OT DIIS     0.15E+00   26.1     0.00000162    -15301.9094000083 -1.19E-03
   141 OT DIIS     0.15E+00   27.7     0.00000157    -15301.9094123019 -1.23E-05
   142 OT DIIS     0.15E+00   27.5     0.00000155    -15301.9096618252 -2.50E-04
   143 OT DIIS     0.15E+00   27.4     0.00000148    -15301.9108505699 -1.19E-03
   144 OT DIIS     0.15E+00   27.9     0.00000146    -15301.9109649312 -1.14E-04
   145 OT DIIS     0.15E+00   27.4     0.00000144    -15301.9110733640 -1.08E-04
   146 OT DIIS     0.15E+00   25.9     0.00000143    -15301.9111948589 -1.21E-04
   147 OT DIIS     0.15E+00   21.9     0.00000141    -15301.9117844952 -5.90E-04
   148 OT DIIS     0.15E+00   21.8     0.00000140    -15301.9119384851 -1.54E-04
   149 OT DIIS     0.15E+00   24.6     0.00000134    -15301.9134496202 -1.51E-03
   150 OT SD       0.15E+00   24.5     0.00000132    -15301.9137906733 -3.41E-04
   151 OT DIIS     0.15E+00   25.6     0.00000131    -15301.9138006013 -9.93E-06
   152 OT SD       0.15E+00   27.4     0.00000129    -15301.9147708183 -9.70E-04
   153 OT DIIS     0.15E+00   25.7     0.00000128    -15301.9147802436 -9.43E-06
   154 OT DIIS     0.15E+00   26.5     0.00000124    -15301.9161199557 -1.34E-03
   155 OT SD       0.15E+00   27.8     0.00000126    -15301.9163385616 -2.19E-04
   156 OT DIIS     0.15E+00   28.3     0.00000125    -15301.9163476507 -9.09E-06
   157 OT SD       0.15E+00   27.5     0.00000117    -15301.9169284144 -5.81E-04
   158 OT DIIS     0.15E+00   27.7     0.00000117    -15301.9169362530 -7.84E-06
   159 OT DIIS     0.15E+00   27.4     0.00000112    -15301.9183218195 -1.39E-03
   160 OT SD       0.15E+00   26.1     0.00000110    -15301.9184210233 -9.92E-05
   161 OT DIIS     0.15E+00   21.3     0.00000109    -15301.9184278580 -6.83E-06
   162 OT SD       0.15E+00   22.0     0.00000105    -15301.9192263920 -7.99E-04
   163 OT DIIS     0.15E+00   24.5     0.00000104    -15301.9192326231 -6.23E-06
   164 OT DIIS     0.15E+00   24.6     0.00000098    -15301.9199683393 -7.36E-04

  *** SCF run converged in   164 steps ***


  Electronic density on regular grids:      -7127.9999823626        0.0000176374
  Core density on regular grids:             7127.9999997468       -0.0000002532
  Total charge density on r-space grids:        0.0000173842
  Total charge density g-space grids:           0.0000173842

  Overlap energy of the core charge distribution:               0.00000534231865
  Self energy of the core charge distribution:             -39513.31510209324915
  Core Hamiltonian energy:                                  11969.12471009997535
  Hartree energy:                                           16085.86791938359420
  Exchange-correlation energy:                              -3841.23777971833852
  Dispersion energy:                                           -2.35972135360833

  Total energy:                                            -15301.91996833930534

  Integrated absolute spin density  :                               0.0000000002
  Ideal and single determinant S**2 :                    0.000000      -0.000000

 ENERGY| Total FORCE_EVAL ( QS ) energy [a.u.]:           -15301.920016050149570

 -------------------------------------------------------------------------------
 -                                                                             -
 -                                DBCSR STATISTICS                             -
 -                                                                             -
 -------------------------------------------------------------------------------
 COUNTER                                    TOTAL       BLAS       SMM       ACC
 flops     1 x    12 x    12              1026432       0.0%    100.0%      0.0%
 flops     4 x    12 x    12              2052864       0.0%    100.0%      0.0%
 flops     1 x    32 x    32            810196992       0.0%    100.0%      0.0%
 flops     4 x    32 x    32           1620393984       0.0%    100.0%      0.0%
 flops     1 x    12 x     1           3070014240       0.0%    100.0%      0.0%
 flops     1 x    12 x     4           7309829088       0.0%    100.0%      0.0%
 flops     4 x    12 x     1           7309829088       0.0%    100.0%      0.0%
 flops     4 x    12 x     4          17365222272       0.0%    100.0%      0.0%
 flops     1 x     1 x   300          19278775200       0.0%    100.0%      0.0%
 flops     4 x     1 x   300          45391305600       0.0%    100.0%      0.0%
 flops     1 x     4 x   300          45570585600       0.0%    100.0%      0.0%
 flops     1 x     1 x   320          61692080640       0.0%    100.0%      0.0%
 flops     4 x     4 x   300         109464384000       0.0%    100.0%      0.0%
 flops     4 x     1 x   320         145252177920       0.0%    100.0%      0.0%
 flops     1 x     4 x   320         145825873920       0.0%    100.0%      0.0%
 flops     1 x     1 x   288         148060993536       0.0%    100.0%      0.0%
 flops  1336 x   300 x   312         165065472000       0.0%    100.0%      0.0%
 flops  1337 x   300 x   312         165189024000       0.0%    100.0%      0.0%
 flops   876 x   300 x   312         214823232000       0.0%    100.0%      0.0%
 flops  1336 x   300 x   421         222732576000       0.0%    100.0%      0.0%
 flops  1337 x   300 x   421         222899292000       0.0%    100.0%      0.0%
 flops   876 x   300 x   421         289873656000       0.0%    100.0%      0.0%
 flops     4 x     1 x   288         348605227008       0.0%    100.0%      0.0%
 flops     1 x     4 x   288         349982097408       0.0%    100.0%      0.0%
 flops     4 x     4 x   320         350286028800       0.0%    100.0%      0.0%
 flops  1336 x   300 x   409         432767808000       0.0%    100.0%      0.0%
 flops  1337 x   300 x   409         433091736000       0.0%    100.0%      0.0%
 flops   876 x   300 x   300         464209920000       0.0%    100.0%      0.0%
 flops  1336 x   320 x   312         528209510400       0.0%    100.0%      0.0%
 flops  1337 x   320 x   312         528604876800       0.0%    100.0%      0.0%
 flops   876 x   300 x   409         563222448000       0.0%    100.0%      0.0%
 flops   896 x   300 x   312         659183616000       0.0%    100.0%      0.0%
 flops   876 x   320 x   312         687434342400       0.0%    100.0%      0.0%
 flops  1336 x   320 x   421         712744243200       0.0%    100.0%      0.0%
 flops  1337 x   320 x   421         713277734400       0.0%    100.0%      0.0%
 flops  1336 x   300 x   300         786850560000       0.0%    100.0%      0.0%
 flops  1337 x   300 x   300         787439520000       0.0%    100.0%      0.0%
 flops     4 x     4 x   288         840686469120       0.0%    100.0%      0.0%
 flops   896 x   300 x   421         889475328000       0.0%    100.0%      0.0%
 flops     1 x    32 x     1         908724215040       0.0%    100.0%      0.0%
 flops   876 x   320 x   421         927595699200       0.0%    100.0%      0.0%
 flops  1336 x   288 x   312        1267702824960       0.0%    100.0%      0.0%
 flops  1337 x   288 x   312        1268651704320       0.0%    100.0%      0.0%
 flops  1336 x   320 x   409        1384856985600       0.0%    100.0%      0.0%
 flops  1337 x   320 x   409        1385893555200       0.0%    100.0%      0.0%
 flops   896 x   300 x   300        1424424960000       0.0%    100.0%      0.0%
 flops   876 x   300 x   320        1485471744000       0.0%    100.0%      0.0%
 flops   876 x   320 x   300        1485471744000       0.0%    100.0%      0.0%
 flops   876 x   288 x   312        1649842421760       0.0%    100.0%      0.0%
 flops  1336 x   288 x   421        1710586183680       0.0%    100.0%      0.0%
 flops  1337 x   288 x   421        1711866562560       0.0%    100.0%      0.0%
 flops   896 x   300 x   409        1728244224000       0.0%    100.0%      0.0%
 flops   876 x   320 x   409        1802311833600       0.0%    100.0%      0.0%
 flops   896 x   320 x   312        2109387571200       0.0%    100.0%      0.0%
 flops     1 x    32 x     4        2163709410048       0.0%    100.0%      0.0%
 flops     4 x    32 x     1        2163709410048       0.0%    100.0%      0.0%
 flops   876 x   288 x   421        2226229678080       0.0%    100.0%      0.0%
 flops  1336 x   300 x   320        2517921792000       0.0%    100.0%      0.0%
 flops  1336 x   320 x   300        2517921792000       0.0%    100.0%      0.0%
 flops  1337 x   320 x   300        2519806464000       0.0%    100.0%      0.0%
 flops  1337 x   300 x   320        2519806464000       0.0%    100.0%      0.0%
 flops   896 x   320 x   421        2846321049600       0.0%    100.0%      0.0%
 flops  1336 x   288 x   409        3323656765440       0.0%    100.0%      0.0%
 flops  1337 x   288 x   409        3326144532480       0.0%    100.0%      0.0%
 flops   876 x   288 x   300        3565132185600       0.0%    100.0%      0.0%
 flops   876 x   300 x   288        3565132185600       0.0%    100.0%      0.0%
 flops   876 x   288 x   409        4325548400640       0.0%    100.0%      0.0%
 flops   896 x   320 x   300        4558159872000       0.0%    100.0%      0.0%
 flops   896 x   300 x   320        4558159872000       0.0%    100.0%      0.0%
 flops   876 x   320 x   320        4753509580800       0.0%    100.0%      0.0%
 flops   896 x   288 x   312        5062530170880       0.0%    100.0%      0.0%
 flops     4 x    32 x     4        5140105792512       0.0%    100.0%      0.0%
 flops   896 x   320 x   409        5530381516800       0.0%    100.0%      0.0%
 flops  1336 x   288 x   300        6043012300800       0.0%    100.0%      0.0%
 flops  1336 x   300 x   288        6043012300800       0.0%    100.0%      0.0%
 flops  1337 x   288 x   300        6047535513600       0.0%    100.0%      0.0%
 flops  1337 x   300 x   288        6047535513600       0.0%    100.0%      0.0%
 flops   896 x   288 x   421        6831170519040       0.0%    100.0%      0.0%
 flops  1336 x   320 x   320        8057349734400       0.0%    100.0%      0.0%
 flops  1337 x   320 x   320        8063380684800       0.0%    100.0%      0.0%
 flops   896 x   288 x   300       10939583692800       0.0%    100.0%      0.0%
 flops   896 x   300 x   288       10939583692800       0.0%    100.0%      0.0%
 flops   876 x   288 x   320       11408422993920       0.0%    100.0%      0.0%
 flops   876 x   320 x   288       11408422993920       0.0%    100.0%      0.0%
 flops   896 x   288 x   409       13272915640320       0.0%    100.0%      0.0%
 flops   896 x   320 x   320       14586111590400       0.0%    100.0%      0.0%
 flops  1336 x   288 x   320       19337639362560       0.0%    100.0%      0.0%
 flops  1336 x   320 x   288       19337639362560       0.0%    100.0%      0.0%
 flops  1337 x   320 x   288       19352113643520       0.0%    100.0%      0.0%
 flops  1337 x   288 x   320       19352113643520       0.0%    100.0%      0.0%
 flops   876 x   288 x   288       27380215185408       0.0%    100.0%      0.0%
 flops   896 x   320 x   288       35006667816960       0.0%    100.0%      0.0%
 flops   896 x   288 x   320       35006667816960       0.0%    100.0%      0.0%
 flops  1336 x   288 x   288       46410334470144       0.0%    100.0%      0.0%
 flops  1337 x   288 x   288       46445072744448       0.0%    100.0%      0.0%
 flops   896 x   288 x   288       84016002760704       0.0%    100.0%      0.0%
 flops inhomo. stacks             202860602461440     100.0%      0.0%      0.0%
 flops total                       775.742705E+12      26.2%     73.8%      0.0%
 flops max/rank                     17.471191E+12      26.2%     73.8%      0.0%
 matmuls inhomo. stacks                    629760     100.0%      0.0%      0.0%
 matmuls total                        37429254400       0.0%    100.0%      0.0%
 number of processed stacks              44735503       1.4%     98.6%      0.0%
 average stack size                                     1.0     848.6       0.0
 marketing flops                   937.902746E+12
 -------------------------------------------------------------------------------
 # multiplications                           7223
 max memory usage/rank               1.726202E+09
 # max total images/rank                        3
 # max 3D layers                                1
 # MPI messages exchanged                 6934080
 MPI messages size (bytes):
  total size                        12.352463E+12
  min size                           0.000000E+00
  max size                           5.914888E+06
  average size                       1.781414E+06
 MPI breakdown and total messages size (bytes):
             size <=      128                2712                        0
       128 < size <=     8192                   0                        0
      8192 < size <=    32768                   0                        0
     32768 < size <=   131072                  72                  5462784
    131072 < size <=  4194304             6771576           11570193159712
   4194304 < size <= 16777216              159720             781517626560
  16777216 < size                               0                        0
 -------------------------------------------------------------------------------

 *** WARNING in dbcsr_mm.F:294 :: Using a non-square number of MPI ranks ***
 *** might lead to poor performance. Used ranks: 48 Suggested: 49 100    ***

 -------------------------------------------------------------------------------
 -                                                                             -
 -                      DBCSR MESSAGE PASSING PERFORMANCE                      -
 -                                                                             -
 -------------------------------------------------------------------------------
 ROUTINE             CALLS      AVE VOLUME [Bytes]
 MP_Bcast               97                     12.
 MP_Allreduce        39534                    236.
 MP_Alltoall         23536                 515350.
 MP_ISend           334856                 815623.
 MP_IRecv           334856                 811135.
 -------------------------------------------------------------------------------

 -------------------------------------------------------------------------------
 -                                                                             -
 -                                GRID STATISTICS                              -
 -                                                                             -
 -------------------------------------------------------------------------------
 LP    KERNEL             BACKEND                              COUNT     PERCENT
 1     collocate ortho    REF                              460670760      22.23%
 1     integrate ortho    REF                              460578578      22.22%
 0     collocate ortho    REF                              445460730      21.49%
 0     integrate ortho    REF                              442760968      21.36%
 2     integrate ortho    REF                              132023288       6.37%
 2     collocate ortho    REF                              130019340       6.27%
 3     integrate ortho    REF                                 787996       0.04%
 0     collocate general  REF                                 128304       0.01%
 1     integrate general  REF                                 128304       0.01%
 -------------------------------------------------------------------------------

 MEMORY| Estimated peak process memory [MiB]                                1647

 -------------------------------------------------------------------------------
 -                                                                             -
 -                         MESSAGE PASSING PERFORMANCE                         -
 -                                                                             -
 -------------------------------------------------------------------------------

 ROUTINE             CALLS      AVE VOLUME [Bytes]
 MP_Group                4
 MP_Bcast            21124                  27846.
 MP_Allreduce        54042                   2027.
 MP_Sync               330
 MP_Alltoall          6122               81891487.
 MP_SendRecv           188                  14859.
 MP_ISendRecv        62040                 448800.
 MP_Wait             91124
 MP_ISend            23796                1700770.
 MP_IRecv            23796                1700770.
 MP_Recv              1962                1368576.
 -------------------------------------------------------------------------------


 -------------------------------------------------------------------------------
 -                                                                             -
 -                           R E F E R E N C E S                               -
 -                                                                             -
 -------------------------------------------------------------------------------
 
 CP2K version 8.2, the CP2K developers group (2021).
 CP2K is freely available from https://www.cp2k.org/ .

 Kuehne,Thomas D.; Iannuzzi,Marcella; Del Ben,Mauro;
 Rybkin,Vladimir V.; Seewald,Patrick; Stein,Frederick; Laino,Teodoro;
 Khaliullin,Rustam Z.; Schuett,Ole; Schiffmann,Florian; Golze,Dorothea;
 Wilhelm,Jan; Chulkov,Sergey; Bani-Hashemian,Mohammad Hossein;
 Weber,Valery; Borstnik,Urban; Taillefumier,Mathieu;
 Jakobovits,Alice Shoshana; Lazzaro,Alfio; Pabst,Hans; Mueller,Tiziano;
 Schade,Robert; Guidon,Manuel; Andermatt,Samuel; Holmberg,Nico;
 Schenter,Gregory K.; Hehn,Anna; Bussy,Augustin; Belleflamme,Fabian;
 Tabacchi,Gloria; Gloess,Andreas; Lass,Michael; Bethune,Iain;
 Mundy,Christopher J.; Plessl,Christian; Watkins,Matt;
 VandeVondele,Joost; Krack,Matthias; Hutter,Juerg. 
 The Journal of Chemical Physics, 152 (19), (2020). 
 CP2K: An electronic structure and molecular dynamics software package -
 Quickstep: Efficient and accurate electronic structure calculations.
 https://doi.org/10.1063/5.0007045

 Goerigk, Lars; Hansen, Andreas; Bauer, Christoph; Ehrlich, Stephan;
 Najibi, Asim; Grimme, Stefan. , 19 (48), (2017). 
 A look at the density functional theory zoo with the advanced GMTKN55 database
 for general main group thermochemistry, kinetics and noncovalent interactions.
 https://doi.org/10.1039/C7CP04913G

 Schuett, Ole; Messmer, Peter; Hutter, Juerg; VandeVondele, Joost. 
 Electronic Structure Calculations on Graphics Processing Units, John
 Wiley & Sons, Ltd, 173-190 (2016). 
 GPU-Accelerated Sparse Matrix-Matrix Multiplication for
 Linear Scaling Density Functional Theory.
 https://doi.org/10.1002/9781118670712.ch8

 Heinecke, A; Henry, G; Hutchinson, M; Pabst, H. 
 Proceedings of Intl. Supercomputing Conference, 981-991 (2016). 
 LIBXSMM: Accelerating Small Matrix Multiplications
 by Runtime Code Generation.
 https://doi.org/10.1109/SC.2016.83

 Borstnik, U; VandeVondele, J; Weber, V; Hutter, J. 
 PARALLEL COMPUTING, 40 (5-6), 47-58 (2014). 
 Sparse matrix multiplication: The distributed block-compressed sparse
 row library.
 https://doi.org/10.1016/j.parco.2014.03.012

 Hutter, J; Iannuzzi, M; Schiffmann, F; VandeVondele, J. 
 WIREs Comput Mol Sci., 4 (1), 15-25 (2014). 
 CP2K: atomistic simulations of condensed matter systems.
 https://doi.org/10.1002/wcms.1159

 Grimme, S; Ehrlich, S; Goerigk, L. 
 JOURNAL OF COMPUTATIONAL CHEMISTRY, 32, 1456 (2011). 
 Effect of the damping function in dispersion corrected density functional theory.
 https://doi.org/10.1002/jcc.21759

 Grimme, S; Antony, J; Ehrlich, S; Krieg, H. 
 JOURNAL OF CHEMICAL PHYSICS, 132 (15), 154104 (2010). 
 A consistent and accurate ab initio parametrization of density
 functional dispersion correction (DFT-D) for the 94 elements H-Pu.
 https://doi.org/10.1063/1.3382344

 VandeVondele, J; Hutter, J. 
 JOURNAL OF CHEMICAL PHYSICS, 127 (11), 114105 (2007). 
 Gaussian basis sets for accurate calculations on molecular systems in
 gas and condensed phases.
 https://doi.org/10.1063/1.2770708

 Krack, M. 
 THEORETICAL CHEMISTRY ACCOUNTS, 114 (1-3), 145-152 (2005). 
 Pseudopotentials for H to Kr optimized for gradient-corrected
 exchange-correlation functionals.
 https://doi.org/10.1007/s00214-005-0655-y

 VandeVondele, J; Krack, M; Mohamed, F; Parrinello, M; Chassaing, T;
 Hutter, J. COMPUTER PHYSICS COMMUNICATIONS, 167 (2), 103-128 (2005). 
 QUICKSTEP: Fast and accurate density functional calculations using a
 mixed Gaussian and plane waves approach.
 https://doi.org/10.1016/j.cpc.2004.12.014

 Frigo, M; Johnson, SG. 
 PROCEEDINGS OF THE IEEE, 93 (2), 216-231 (2005). 
 The design and implementation of FFTW3.
 https://doi.org/10.1109/JPROC.2004.840301

 VandeVondele, J; Hutter, J. 
 JOURNAL OF CHEMICAL PHYSICS, 118 (10), 4365-4369 (2003). 
 An efficient orbital transformation method for electronic structure
 calculations.
 https://doi.org/10.1063/1.1543154

 Hartwigsen, C; Goedecker, S; Hutter, J. 
 PHYSICAL REVIEW B, 58 (7), 3641-3662 (1998). 
 Relativistic separable dual-space Gaussian pseudopotentials from H to Rn.
 https://doi.org/10.1103/PhysRevB.58.3641

 Lippert, G; Hutter, J; Parrinello, M. 
 MOLECULAR PHYSICS, 92 (3), 477-487 (1997). 
 A hybrid Gaussian and plane wave density functional scheme.
 https://doi.org/10.1080/002689797170220

 Perdew, JP; Burke, K; Ernzerhof, M. 
 PHYSICAL REVIEW LETTERS, 77 (18), 3865-3868 (1996). 
 Generalized gradient approximation made simple.
 https://doi.org/10.1103/PhysRevLett.77.3865

 Goedecker, S; Teter, M; Hutter, J. 
 PHYSICAL REVIEW B, 54 (3), 1703-1710 (1996). 
 Separable dual-space Gaussian pseudopotentials.
 https://doi.org/10.1103/PhysRevB.54.1703


 -------------------------------------------------------------------------------
 -                                                                             -
 -                                T I M I N G                                  -
 -                                                                             -
 -------------------------------------------------------------------------------
 SUBROUTINE                       CALLS  ASD         SELF TIME        TOTAL TIME
                                MAXIMUM       AVERAGE  MAXIMUM  AVERAGE  MAXIMUM
 CP2K                                 1  1.0    0.172    0.190 4183.050 4183.058
 qs_forces                            1  2.0    0.002    0.002 4181.517 4181.521
 qs_energies                          1  3.0    0.000    0.000 4166.759 4166.771
 scf_env_do_scf                       1  4.0    0.000    0.001 4153.275 4153.279
 scf_env_do_scf_inner_loop          164  5.0    0.004    0.028 4138.032 4138.150
 rebuild_ks_matrix                  165  7.0    0.001    0.001 2052.661 2054.484
 qs_ks_build_kohn_sham_matrix       165  8.0    0.028    0.042 2052.661 2054.483
 qs_ks_update_qs_env                165  6.0    0.001    0.001 2038.742 2040.550
 pw_transfer                       5776 10.7    0.370    0.454 1292.579 1396.996
 fft_wrap_pw1pw2                   5446 11.7    0.073    0.088 1287.680 1392.124
 fft_wrap_pw1pw2_140               3466 12.9  109.719  118.785 1228.388 1331.192
 qs_scf_new_mos                     164  6.0    0.001    0.001 1244.366 1245.579
 qs_scf_loop_do_ot                  164  7.0    0.002    0.002 1244.365 1245.578
 ot_scf_mini                        164  8.0    0.010    0.012 1204.927 1205.514
 qs_vxc_create                      165  9.0    0.004    0.005 1176.665 1181.056
 xc_vxc_pw_create                   165 10.0   20.739   22.042 1176.661 1181.052
 fft3d_ps                          5446 13.7  445.247  473.766  962.406 1068.658
 dbcsr_multiply_generic            7223 11.1    0.674    0.746  991.630 1006.246
 qs_rho_update_rho                  165  6.0    0.001    0.002  867.142  867.857
 calculate_rho_elec                 330  7.0    3.696    3.770  867.140  867.856
 multiply_cannon                   7223 12.1    0.737    0.872  750.561  818.478
 multiply_cannon_loop              7223 13.1    1.514    1.726  724.332  789.244
 sum_up_and_integrate               165  9.0    2.490    2.668  745.319  745.352
 integrate_v_rspace                 330 10.0    0.011    0.013  742.828  742.966
 ot_mini                            164  9.0    0.002    0.003  679.670  681.289
 multiply_cannon_multrec          86676 14.1  591.447  662.351  591.598  662.495
 xc_rho_set_and_dset_create         165 11.0    7.702    8.447  616.464  661.746
 qs_ot_get_derivative               328 10.0    0.005    0.013  557.270  558.263
 grid_collocate_task_list           330  8.0  442.241  523.485  442.241  523.485
 grid_integrate_task_list           330 11.0  429.126  509.731  429.126  509.731
 mp_alltoall_z22v                  5446 15.7  345.183  469.518  345.183  469.518
 density_rs2pw                      330  8.0    0.022    0.026  411.336  448.673
 qs_ot_get_derivative_diag          324 11.0    0.017    0.020  411.588  412.561
 qs_ot_get_p                        330  9.0    0.003    0.004  379.253  381.174
 yz_to_x                           2641 14.1   65.474   72.931  259.879  366.125
 qs_ot_p2m_diag                     326 10.0    6.805    7.310  311.803  314.578
 x_to_yz                           2805 15.3  106.358  115.279  257.135  289.535
 rs_pw_transfer                    2642 10.5    0.050    0.059  238.799  276.600
 xc_functional_eval                 165 12.0    0.002    0.002  214.375  259.270
 pbe_lsd_eval                       165 13.0  214.373  259.268  214.373  259.268
 cp_dbcsr_syevd                     326 11.0    0.025    0.033  239.864  239.892
 cp_fm_syevd                        326 12.0    0.009    0.010  231.154  231.511
 cp_fm_syevd_base                   326 13.0  230.800  231.215  230.800  231.215
 potential_pw2rs                    330 11.0    0.292    0.339  223.357  223.705
 mp_waitall_1                    645168 15.0  163.196  214.121  163.196  214.121
 multiply_cannon_metrocomm3       86676 14.1    0.450    0.500   96.049  161.311
 mp_waitany                       23796 12.5  117.939  158.981  117.939  158.981
 rs_pw_transfer_RS2PW_140           331 10.0   18.547   21.805  107.894  139.086
 make_m2s                         14446 12.1    0.640    0.701  133.445  136.509
 mp_alltoall_d11v                  4868 13.5   96.543  134.033   96.543  134.033
 rs_gather_matrices                 330 11.0    0.572    0.640   90.326  127.572
 pw_gather_p                       2641 13.1  116.695  125.737  116.695  125.737
 ot_diis_step                       164 10.0    0.022    0.025  118.452  118.475
 pw_scatter_p                      2805 14.3   96.145  111.217   96.145  111.217
 qs_ot_get_orbitals                 328  9.0    0.003    0.003  104.656  105.599
 mp_sum_l                         35048 12.1   66.859  102.394   66.859  102.394
 apply_preconditioner_dbcsr         330 11.0    0.001    0.001   95.656  100.839
 apply_single                       330 12.0    0.002    0.002   95.655  100.838
 make_images                      14446 13.1    9.391   10.008   86.074   89.185
 -------------------------------------------------------------------------------

 The number of warnings for this run is : 1
 
 -------------------------------------------------------------------------------
  **** **** ******  **  PROGRAM ENDED AT                 2023-12-04 17:06:30.739
 ***** ** ***  *** **   PROGRAM RAN ON                  csl7.int.triton.aalto.fi
 **    ****   ******    PROGRAM RAN BY                                   huangj4
 ***** **    ** ** **   PROGRAM PROCESS ID                                187375
  **** **  *******  **  PROGRAM STOPPED IN /scratch/phys/sin/Jie/Github/cp2kTest
                                           /ab_energy/Cluster_444
