# Projected DOS for atomic kind N at iteration step i = 0, E(Fermi) =    -0.176270 a.u.
#     MO Eigenvalue [a.u.]      Occupation                 s                py                pz                px
       1         -0.963937        1.000000        0.62215602        0.00108630        0.00009074        0.00000566
       2         -0.953663        1.000000        0.61839550        0.00061493        0.00002600        0.00005140
       3         -0.952806        1.000000        0.61412133        0.00000123        0.00007264        0.00022734
       4         -0.951488        1.000000        0.61879278        0.00035205        0.00003931        0.00004324
       5         -0.949093        1.000000        0.61879703        0.00012067        0.00069075        0.00005788
       6         -0.938039        1.000000        0.61092563        0.00000194        0.00010397        0.00000302
       7         -0.931935        1.000000        0.61124904        0.00001125        0.00010449        0.00000791
       8         -0.699145        1.000000        0.01569799        0.02825844        0.01875326        0.16560207
       9         -0.693812        1.000000        0.01755845        0.00094173        0.00130879        0.19854253
      10         -0.692414        1.000000        0.01860951        0.00173099        0.10264499        0.10362917
      11         -0.690399        1.000000        0.01546980        0.01343139        0.01713862        0.17257628
      12         -0.689573        1.000000        0.01900559        0.00390180        0.00732112        0.19661279
      13         -0.685553        1.000000        0.01793800        0.00001175        0.04785695        0.14289531
      14         -0.679878        1.000000        0.01844855        0.00001028        0.08030728        0.11288509
      15         -0.639584        1.000000        0.00025105        0.00562820        0.00007263        0.00030071
      16         -0.620920        1.000000        0.00002770        0.00058111        0.00072742        0.00007719
      17         -0.599559        1.000000        0.00004968        0.00725003        0.00840487        0.00257635
      18         -0.597893        1.000000        0.00050255        0.01327448        0.01143487        0.00334649
      19         -0.592267        1.000000        0.00016815        0.00369939        0.42455280        0.06837229
      20         -0.591964        1.000000        0.00029216        0.04490134        0.06284638        0.01549381
      21         -0.590758        1.000000        0.00011033        0.02132925        0.01767178        0.00347790
      22         -0.589640        1.000000        0.00069154        0.02227506        0.08103005        0.01524874
      23         -0.589147        1.000000        0.00048843        0.01820345        0.03467937        0.02185205
      24         -0.586482        1.000000        0.00028449        0.01298164        0.07217987        0.03259804
      25         -0.584810        1.000000        0.00034549        0.04515398        0.03891053        0.01240536
      26         -0.581279        1.000000        0.00033016        0.11396463        0.11394574        0.01390971
      27         -0.580347        1.000000        0.00015905        0.23382896        0.15564550        0.00831531
      28         -0.579407        1.000000        0.00013765        0.01924621        0.21487630        0.08769725
      29         -0.578825        1.000000        0.00079227        0.11467719        0.02456086        0.01938949
      30         -0.578079        1.000000        0.00009019        0.02681358        0.08914519        0.03104304
      31         -0.577264        1.000000        0.00190980        0.37965243        0.02221002        0.02837702
      32         -0.575668        1.000000        0.00007815        0.33402774        0.13729708        0.00364445
      33         -0.575256        1.000000        0.00004508        0.08788406        0.03924653        0.00441039
      34         -0.574866        1.000000        0.00004761        0.02996847        0.01913285        0.00143214
      35         -0.573925        1.000000        0.00010483        0.02986879        0.03801823        0.01387984
      36         -0.572312        1.000000        0.00013083        0.01685009        0.06303268        0.04336183
      37         -0.571964        1.000000        0.00009427        0.02571177        0.02217821        0.02074129
      38         -0.571519        1.000000        0.00050969        0.07140383        0.02729651        0.01576053
      39         -0.570305        1.000000        0.00004000        0.01378081        0.02602613        0.00811650
      40         -0.570012        1.000000        0.00013480        0.09291276        0.03735216        0.01375067
      41         -0.568460        1.000000        0.00036284        0.16173795        0.01407368        0.00980736
      42         -0.568302        1.000000        0.00067091        0.33186652        0.00612865        0.00434260
      43         -0.568145        1.000000        0.00018722        0.10064128        0.01720590        0.00756434
      44         -0.566670        1.000000        0.00104971        0.33347040        0.02250511        0.01317716
      45         -0.565941        1.000000        0.00054590        0.24459106        0.03027047        0.01210701
      46         -0.563983        1.000000        0.00004256        0.01295086        0.03582927        0.01643958
      47         -0.563928        1.000000        0.00009007        0.00323645        0.01341161        0.00123102
      48         -0.562969        1.000000        0.00024415        0.03803305        0.02549315        0.01079294
      49         -0.561939        1.000000        0.00185266        0.00725907        0.23133839        0.02659875
      50         -0.561417        1.000000        0.00000063        0.00025264        0.00013076        0.00009046
      51         -0.560536        1.000000        0.00056991        0.04384583        0.11036441        0.03693936
      52         -0.560289        1.000000        0.00009139        0.00721304        0.02315451        0.01003962
      53         -0.559855        1.000000        0.00026685        0.02445432        0.04863025        0.01473549
      54         -0.558646        1.000000        0.00028843        0.01051630        0.10414153        0.00696325
      55         -0.557966        1.000000        0.00036179        0.04932195        0.08760804        0.01506507
      56         -0.557730        1.000000        0.00010850        0.02581852        0.01150689        0.00124994
      57         -0.557685        1.000000        0.00002163        0.00564140        0.00623435        0.00007317
      58         -0.556688        1.000000        0.00002983        0.00212590        0.00575261        0.00175518
      59         -0.555022        1.000000        0.00011254        0.09719037        0.05355488        0.00977834
      60         -0.554600        1.000000        0.00005047        0.01478813        0.10788471        0.00395329
      61         -0.553563        1.000000        0.00018067        0.14463655        0.27003218        0.07764110
      62         -0.553093        1.000000        0.00010462        0.26542554        0.11767691        0.03953577
      63         -0.548316        1.000000        0.00075591        0.00311787        0.27165676        0.16028598
      64         -0.540607        1.000000        0.00018378        0.37993150        0.00076718        0.00015938
      65         -0.484832        1.000000        0.00825453        0.03482200        0.05656332        0.34082151
      66         -0.478107        1.000000        0.00817729        0.00368492        0.00321048        0.42757331
      67         -0.477182        1.000000        0.00707846        0.00019065        0.20225403        0.22807756
      68         -0.474453        1.000000        0.00696908        0.01431374        0.03949170        0.37713137
      69         -0.470858        1.000000        0.00895192        0.03354052        0.04779979        0.35267005
      70         -0.464952        1.000000        0.00839761        0.00031994        0.09532764        0.33180972
      71         -0.461342        1.000000        0.00002138        0.00055615        0.00217818        0.00206530
      72         -0.459379        1.000000        0.00708664        0.00032200        0.13067135        0.22799014
      73         -0.459133        1.000000        0.00138040        0.00010895        0.02757658        0.04440932
      74         -0.455305        1.000000        0.00002411        0.00036322        0.00049943        0.00169948
      75         -0.452269        1.000000        0.00002631        0.00043774        0.00112081        0.00317553
      76         -0.451169        1.000000        0.00003308        0.00004757        0.00017950        0.00101747
      77         -0.446819        1.000000        0.00001536        0.00016032        0.00096934        0.00213182
      78         -0.445081        1.000000        0.00000711        0.00006560        0.00079835        0.00297582
      79         -0.442063        1.000000        0.00001453        0.00002977        0.00052843        0.00174864
      80         -0.412103        1.000000        0.00011073        0.02338898        0.01251357        0.00008238
      81         -0.410188        1.000000        0.00001114        0.01160728        0.01552171        0.00606978
      82         -0.408747        1.000000        0.00001045        0.03034149        0.00892205        0.00051294
      83         -0.407133        1.000000        0.00000324        0.00374156        0.03008051        0.00136323
      84         -0.406656        1.000000        0.00000029        0.00384783        0.01778493        0.01501712
      85         -0.406439        1.000000        0.00001263        0.00949544        0.02842318        0.00001365
      86         -0.404633        1.000000        0.00004417        0.04076158        0.00050402        0.00044853
      87         -0.404360        1.000000        0.00003287        0.03050277        0.00258118        0.00290263
      88         -0.404210        1.000000        0.00004079        0.03537804        0.00160792        0.00191759
      89         -0.402917        1.000000        0.00004079        0.01069498        0.02787299        0.00067155
      90         -0.402110        1.000000        0.00012154        0.02390176        0.01302687        0.00398542
      91         -0.401106        1.000000        0.00000916        0.00016944        0.03289110        0.00997352
      92         -0.397428        1.000000        0.00000527        0.00091834        0.02485740        0.01773060
      93         -0.395268        1.000000        0.00000052        0.04222231        0.00030267        0.00052138
      94         -0.318014        1.000000        0.00005488        0.00026497        0.00002665        0.00013043
      95         -0.291566        1.000000        0.00001433        0.00014423        0.00004894        0.00004353
      96         -0.280035        1.000000        0.00038368        0.00062575        0.00049600        0.00007499
      97         -0.276422        1.000000        0.00020997        0.00031963        0.00032012        0.00024849
      98         -0.274716        1.000000        0.00004414        0.00022287        0.00024521        0.00008654
      99         -0.272235        1.000000        0.00011534        0.00095231        0.00024425        0.00000999
     100         -0.270202        1.000000        0.00011834        0.00146505        0.00033172        0.00011135
     101         -0.268677        1.000000        0.00006065        0.00075403        0.00015389        0.00006761
     102         -0.266617        1.000000        0.00017173        0.00081749        0.00028740        0.00031427
     103         -0.265020        1.000000        0.00028872        0.00049067        0.00018901        0.00018849
     104         -0.262610        1.000000        0.00008678        0.00017960        0.00019160        0.00014111
     105         -0.260906        1.000000        0.00000631        0.00008634        0.00001558        0.00005483
     106         -0.259857        1.000000        0.00025264        0.00019902        0.00064265        0.00014142
     107         -0.258058        1.000000        0.00097417        0.00220533        0.00005348        0.00144322
     108         -0.255373        1.000000        0.00003403        0.00021573        0.00005507        0.00003377
     109         -0.254831        1.000000        0.00014273        0.00019394        0.00029227        0.00012732
     110         -0.250003        1.000000        0.00023677        0.00019715        0.00032247        0.00038563
     111         -0.246795        1.000000        0.00025128        0.00023674        0.00011177        0.00021632
     112         -0.245301        1.000000        0.00004650        0.00022883        0.00041093        0.00004544
     113         -0.244162        1.000000        0.00004385        0.00013702        0.00022096        0.00015205
     114         -0.242266        1.000000        0.00014329        0.00017842        0.00123615        0.00032882
     115         -0.239023        1.000000        0.00094840        0.00026412        0.00037458        0.00072990
     116         -0.238110        1.000000        0.00023197        0.00040465        0.00051030        0.00010416
     117         -0.237287        1.000000        0.00105866        0.00024475        0.00052395        0.00043798
     118         -0.236266        1.000000        0.00111721        0.00051067        0.00018170        0.00033804
     119         -0.235603        1.000000        0.00390143        0.00093986        0.00025205        0.00274495
     120         -0.234242        1.000000        0.00037904        0.00106345        0.00051789        0.00039382
     121         -0.232340        1.000000        0.00072967        0.00096301        0.00045267        0.00054049
     122         -0.229915        1.000000        0.00052498        0.00026774        0.00040055        0.00041167
     123         -0.227296        1.000000        0.00030477        0.00038787        0.00013719        0.00091239
     124         -0.225953        1.000000        0.00097096        0.00014969        0.00023410        0.00040492
     125         -0.224537        1.000000        0.00018137        0.00031878        0.00122144        0.00097487
     126         -0.223182        1.000000        0.00148473        0.00223401        0.00094269        0.00067213
     127         -0.222710        1.000000        0.00079454        0.00088558        0.00062648        0.00004940
     128         -0.219579        1.000000        0.00139962        0.00137353        0.00154799        0.00187352
     129         -0.218606        1.000000        0.00074959        0.00859711        0.00165046        0.00129146
     130         -0.216369        1.000000        0.00213731        0.00036876        0.00215059        0.00117272
     131         -0.214857        1.000000        0.00097028        0.00084495        0.00022542        0.00047499
     132         -0.212721        1.000000        0.00031269        0.00101889        0.00085922        0.00015830
     133         -0.212519        1.000000        0.00104982        0.00043753        0.00248646        0.00022707
     134         -0.210876        1.000000        0.00174038        0.00297796        0.00114600        0.00034934
     135         -0.210337        1.000000        0.00196475        0.00102716        0.00246790        0.00125392
     136         -0.208666        1.000000        0.00017824        0.00026086        0.00101460        0.00020558
     137         -0.208182        1.000000        0.00050952        0.00056522        0.00321309        0.00054958
     138         -0.206983        1.000000        0.00034867        0.00013434        0.00088045        0.00111304
     139         -0.206046        1.000000        0.00032214        0.00093468        0.00030660        0.00062815
     140         -0.205745        1.000000        0.00053754        0.00028043        0.00052087        0.00044780
     141         -0.203639        1.000000        0.00025598        0.00092660        0.00091745        0.00012249
     142         -0.203103        1.000000        0.00090208        0.00086859        0.00119332        0.00093390
     143         -0.201832        1.000000        0.00035243        0.00039984        0.00069112        0.00021644
     144         -0.201340        1.000000        0.00018614        0.00056256        0.00024050        0.00020132
     145         -0.200056        1.000000        0.00034600        0.00011713        0.00032007        0.00031948
     146         -0.199877        1.000000        0.00023262        0.00042622        0.00035355        0.00024756
     147         -0.198805        1.000000        0.00027156        0.00048463        0.00018440        0.00013800
     148         -0.196607        1.000000        0.00085382        0.00122887        0.00172453        0.00029764
     149         -0.195952        1.000000        0.00031370        0.00136579        0.00043888        0.00022850
     150         -0.195314        1.000000        0.00029583        0.00250085        0.00110173        0.00022074
     151         -0.194618        1.000000        0.00045765        0.00217410        0.00182529        0.00030135
     152         -0.194331        1.000000        0.00035207        0.00120758        0.00115316        0.00018404
     153         -0.193860        1.000000        0.00034250        0.00105009        0.00142752        0.00014089
     154         -0.192984        1.000000        0.00010520        0.00334601        0.00065274        0.00045046
     155         -0.192557        1.000000        0.00035849        0.00079125        0.00050839        0.00079208
     156         -0.192118        1.000000        0.00024367        0.00037698        0.00028346        0.00024162
     157         -0.191738        1.000000        0.00030992        0.00009290        0.00015077        0.00025982
     158         -0.191149        1.000000        0.00018013        0.00121598        0.00017838        0.00008675
     159         -0.190932        1.000000        0.00008580        0.00101504        0.00113347        0.00008495
     160         -0.190506        1.000000        0.00061845        0.00107581        0.00037384        0.00105774
     161         -0.190059        1.000000        0.00008966        0.00035812        0.00019159        0.00021522
     162         -0.189630        1.000000        0.00037046        0.00046953        0.00044046        0.00017440
     163         -0.189312        1.000000        0.00020798        0.00249518        0.00065533        0.00010533
     164         -0.189142        1.000000        0.00014308        0.00012731        0.00024205        0.00004848
     165         -0.188918        1.000000        0.00047443        0.00181595        0.00161986        0.00027175
     166         -0.188818        1.000000        0.00013591        0.00032760        0.00009763        0.00027637
     167         -0.188545        1.000000        0.00001702        0.00001385        0.00004329        0.00001868
     168         -0.188104        1.000000        0.00003809        0.00006639        0.00008332        0.00004361
     169         -0.187757        1.000000        0.00017867        0.00009475        0.00009076        0.00014160
     170         -0.187234        1.000000        0.00024177        0.00036685        0.00024181        0.00014322
     171         -0.186973        1.000000        0.00037059        0.00055239        0.00043751        0.00021482
     172         -0.186672        1.000000        0.00015500        0.00008622        0.00006468        0.00018551
     173         -0.185618        1.000000        0.00039351        0.00182985        0.00049752        0.00038321
     174         -0.184962        1.000000        0.00047014        0.00156791        0.00047214        0.00076934
     175         -0.184673        1.000000        0.00018376        0.00112605        0.00015446        0.00025014
     176         -0.183819        1.000000        0.00031612        0.00033361        0.00036622        0.00031522
     177         -0.183457        1.000000        0.00020857        0.00002768        0.00009997        0.00012032
     178         -0.183356        1.000000        0.00025504        0.00045103        0.00035133        0.00015487
     179         -0.182906        1.000000        0.00006441        0.00012239        0.00013952        0.00003999
     180         -0.182700        1.000000        0.00008814        0.00178359        0.00076850        0.00006474
     181         -0.182176        1.000000        0.00029620        0.00013957        0.00012730        0.00014951
     182         -0.181920        1.000000        0.00003565        0.00004943        0.00006344        0.00013922
     183         -0.180989        1.000000        0.00008170        0.00008212        0.00005166        0.00008587
     184         -0.180628        1.000000        0.00005085        0.00012521        0.00012514        0.00007624
     185         -0.180219        1.000000        0.00006535        0.00016207        0.00003289        0.00009787
     186         -0.179966        1.000000        0.00003371        0.00005708        0.00004231        0.00003148
     187         -0.179621        1.000000        0.00005364        0.00013847        0.00005258        0.00006485
     188         -0.179136        1.000000        0.00012465        0.00002613        0.00007916        0.00017985
     189         -0.178753        1.000000        0.00001888        0.00002866        0.00000438        0.00003925
     190         -0.178078        1.000000        0.00002899        0.00009244        0.00009684        0.00004573
     191         -0.177822        1.000000        0.00002178        0.00025100        0.00005231        0.00007276
     192         -0.177665        1.000000        0.00006861        0.00017272        0.00005833        0.00012468
     193         -0.177030        1.000000        0.00000805        0.00001308        0.00001187        0.00009374
     194         -0.176270        1.000000        0.00002046        0.00001015        0.00003592        0.00001972
     195         -0.176105        0.000000        0.00002457        0.00005952        0.00012444        0.00005737
     196         -0.175218        0.000000        0.00006102        0.00016967        0.00005517        0.00006895
     197         -0.172859        0.000000        0.00002438        0.00005220        0.00006973        0.00005830
     198         -0.171601        0.000000        0.00002516        0.00001949        0.00000919        0.00000722
     199         -0.170368        0.000000        0.00000958        0.00004293        0.00005653        0.00005210
     200         -0.169876        0.000000        0.00001704        0.00003248        0.00002419        0.00001142
     201         -0.167678        0.000000        0.00002551        0.00008363        0.00000692        0.00003259
     202         -0.062285        0.000000        0.00003010        0.00004606        0.00001437        0.00001143
     203         -0.053471        0.000000        0.00004052        0.00003638        0.00003634        0.00003237
     204         -0.052845        0.000000        0.00039035        0.00010650        0.00013591        0.00016424
     205         -0.047249        0.000000        0.00014826        0.00005959        0.00011172        0.00002495
     206         -0.047000        0.000000        0.00011419        0.00016129        0.00035583        0.00007241
     207         -0.045403        0.000000        0.00012071        0.00005976        0.00012466        0.00001488
     208         -0.042505        0.000000        0.00010021        0.00004699        0.00013582        0.00002868
     209         -0.039013        0.000000        0.00000383        0.00002103        0.00012488        0.00006432
     210         -0.038488        0.000000        0.00003991        0.00003896        0.00004800        0.00000846
     211         -0.036886        0.000000        0.00001085        0.00003745        0.00006868        0.00002853
     212         -0.035974        0.000000        0.00002555        0.00006991        0.00002337        0.00002165
     213         -0.031825        0.000000        0.00002607        0.00007175        0.00006541        0.00002921
     214         -0.030321        0.000000        0.00004543        0.00009121        0.00005987        0.00003962
     215         -0.028273        0.000000        0.00002981        0.00001308        0.00002842        0.00001436
     216         -0.022965        0.000000        0.00016613        0.00007825        0.00014862        0.00005708
     217         -0.021827        0.000000        0.00000677        0.00000873        0.00000755        0.00003138
     218         -0.016972        0.000000        0.00004619        0.00013581        0.00004165        0.00002276
     219         -0.015284        0.000000        0.00002139        0.00000739        0.00003620        0.00000281
     220         -0.014886        0.000000        0.00007008        0.00002608        0.00007147        0.00002932
     221         -0.012213        0.000000        0.00001702        0.00003704        0.00004117        0.00005786
     222         -0.010589        0.000000        0.00006769        0.00002208        0.00011399        0.00002014
     223         -0.005193        0.000000        0.00007594        0.00014434        0.00019371        0.00001367
     224         -0.004408        0.000000        0.00009484        0.00043425        0.00002102        0.00003763
     225         -0.003717        0.000000        0.00019314        0.00033257        0.00013420        0.00003454
     226          0.087864        0.000000        0.11993667        0.04553824        0.02514694        0.16275091
     227          0.093917        0.000000        0.11583332        0.00012257        0.00444607        0.23911479
     228          0.094770        0.000000        0.09820606        0.02079142        0.02870418        0.21074071
     229          0.102985        0.000000        0.11782640        0.00436968        0.11835381        0.11805212
     230          0.106566        0.000000        0.12625314        0.00167689        0.00345364        0.22678366
     231          0.108891        0.000000        0.10230002        0.00020221        0.06166620        0.19933814
     232          0.112691        0.000000        0.10516061        0.00017995        0.09640603        0.16398567
     233          0.167402        0.000000        0.04313729        0.14775692        0.03262675        0.11000932
     234          0.170757        0.000000        0.03674809        0.06173612        0.22926262        0.00810125
     235          0.184073        0.000000        0.04620454        0.22797846        0.01017296        0.05199150
     236          0.208581        0.000000        0.04018729        0.22659519        0.03557582        0.03561967
     237          0.276047        0.000000        0.00466157        0.00024940        0.26140297        0.06398650
     238          0.283009        0.000000        0.00001772        0.21784386        0.11240266        0.00050597
     239          0.288298        0.000000        0.00185241        0.06603647        0.23862664        0.01089607
     240          0.289440        0.000000        0.00051893        0.07947182        0.17223922        0.06671902
     241          0.290441        0.000000        0.00056874        0.01486909        0.17156393        0.13553773
     242          0.296050        0.000000        0.00054480        0.18175907        0.11759526        0.02046988
     243          0.298288        0.000000        0.00104737        0.08029553        0.18057730        0.05617561
     244          0.300019        0.000000        0.00011439        0.01797594        0.19122961        0.11094965
     245          0.304636        0.000000        0.13555292        0.17482608        0.01395283        0.01133981
     246          0.304802        0.000000        0.04720323        0.24838544        0.01998163        0.00704125
     247          0.307556        0.000000        0.00011117        0.29197019        0.01511127        0.00447199
     248          0.319133        0.000000        0.24976705        0.00873178        0.01158741        0.07496867
     249          0.325090        0.000000        0.18472494        0.06935063        0.03724289        0.04901585
     250          0.326557        0.000000        0.18037454        0.06965855        0.02692717        0.05980160
     251          0.328385        0.000000        0.18019490        0.01040592        0.03221260        0.11646076
     252          0.345739        0.000000        0.24156543        0.00399610        0.02920577        0.07081873
     253          0.347511        0.000000        0.24114706        0.00009740        0.03930756        0.06528187
     254          0.454076        0.000000        0.00009026        0.00253763        0.01443632        0.00381405
     255          0.455581        0.000000        0.00067148        0.01322648        0.00776318        0.00033607
     256          0.457192        0.000000        0.00003690        0.00704567        0.01731896        0.00048092
     257          0.458330        0.000000        0.00044359        0.01446397        0.00269935        0.00002329
     258          0.458406        0.000000        0.00001129        0.01952728        0.00097017        0.00104728
     259          0.458522        0.000000        0.00073315        0.01756846        0.00118123        0.00004746