# Projected DOS for atomic kind Pb at iteration step i = 0, E(Fermi) =    -0.176696 a.u.
#     MO Eigenvalue [a.u.]      Occupation                 s                py                pz                px
       1         -0.963976        1.000000        0.00000004        0.00000025        0.00000025        0.00000046
       2         -0.953695        1.000000        0.00000005        0.00000024        0.00000049        0.00000039
       3         -0.952868        1.000000        0.00000028        0.00000402        0.00000642        0.00000341
       4         -0.951524        1.000000        0.00000004        0.00000173        0.00000078        0.00000018
       5         -0.949118        1.000000        0.00000016        0.00000331        0.00000413        0.00000115
       6         -0.938078        1.000000        0.00000029        0.00000321        0.00000314        0.00000194
       7         -0.931984        1.000000        0.00000034        0.00000384        0.00000449        0.00000217
       8         -0.699202        1.000000        0.00001062        0.00001337        0.00001139        0.00001594
       9         -0.693853        1.000000        0.00000378        0.00000725        0.00000142        0.00000123
      10         -0.692470        1.000000        0.00000799        0.00000697        0.00001013        0.00000354
      11         -0.690457        1.000000        0.00001133        0.00000732        0.00001070        0.00001370
      12         -0.689610        1.000000        0.00001779        0.00002434        0.00002003        0.00001871
      13         -0.685594        1.000000        0.00003819        0.00004325        0.00002442        0.00002096
      14         -0.679930        1.000000        0.00003119        0.00002765        0.00002431        0.00000835
      15         -0.639651        1.000000        0.00115860        0.00008071        0.00169667        0.00047304
      16         -0.620652        1.000000        0.02243110        0.00237454        0.01062714        0.00001009
      17         -0.600923        1.000000        0.04599331        0.00186866        0.00306890        0.00867292
      18         -0.598263        1.000000        0.10690974        0.00078850        0.00186915        0.00417920
      19         -0.592654        1.000000        0.03298212        0.00447679        0.00012912        0.00069978
      20         -0.592257        1.000000        0.04419845        0.00754577        0.00281889        0.00827608
      21         -0.591003        1.000000        0.03312655        0.00577473        0.00073507        0.00091126
      22         -0.590572        1.000000        0.03987060        0.00860992        0.00034353        0.00251728
      23         -0.589513        1.000000        0.07789116        0.00884198        0.00362998        0.00070738
      24         -0.586869        1.000000        0.03656955        0.00455456        0.00108774        0.01538575
      25         -0.585107        1.000000        0.04476058        0.00649658        0.00609321        0.00339535
      26         -0.581515        1.000000        0.04967535        0.00507310        0.00292960        0.00221689
      27         -0.580444        1.000000        0.02061444        0.00151269        0.00476644        0.00082423
      28         -0.579569        1.000000        0.02715737        0.00633843        0.00392291        0.00108454
      29         -0.579063        1.000000        0.05618513        0.00290482        0.00993740        0.00383563
      30         -0.578153        1.000000        0.08619381        0.00582278        0.00424723        0.00850980
      31         -0.577713        1.000000        0.05461793        0.00631804        0.00556411        0.01081389
      32         -0.577326        1.000000        0.02100443        0.00200083        0.00359603        0.00362088
      33         -0.575781        1.000000        0.01511653        0.00355891        0.00544552        0.00219109
      34         -0.575491        1.000000        0.02924635        0.00804290        0.00716645        0.00215815
      35         -0.573937        1.000000        0.02018479        0.02044024        0.00945339        0.00420311
      36         -0.572293        1.000000        0.01086716        0.01442596        0.01071581        0.00300950
      37         -0.572062        1.000000        0.01732401        0.01779888        0.01231807        0.00398970
      38         -0.571897        1.000000        0.04597058        0.00270876        0.00843304        0.01601083
      39         -0.570485        1.000000        0.02437312        0.00628205        0.00546405        0.00660208
      40         -0.570152        1.000000        0.01566226        0.00538624        0.00722604        0.00176388
      41         -0.569206        1.000000        0.05318237        0.00593287        0.00363687        0.01094867
      42         -0.568450        1.000000        0.00327499        0.00218002        0.00164713        0.00264723
      43         -0.567887        1.000000        0.00306397        0.00283714        0.00995798        0.00263224
      44         -0.566822        1.000000        0.01290088        0.00081616        0.00592214        0.00808276
      45         -0.566156        1.000000        0.00793481        0.00042662        0.00193540        0.00606936
      46         -0.564826        1.000000        0.00006080        0.00043228        0.02775718        0.01273548
      47         -0.564578        1.000000        0.00359670        0.00730258        0.00515361        0.02392269
      48         -0.564353        1.000000        0.00089093        0.02052003        0.00331578        0.01271827
      49         -0.564004        1.000000        0.02868610        0.00203935        0.02437209        0.01013900
      50         -0.563270        1.000000        0.00868936        0.00196280        0.00444118        0.02518725
      51         -0.562291        1.000000        0.00165714        0.00184000        0.01370877        0.00620249
      52         -0.561660        1.000000        0.00120156        0.01639983        0.00062245        0.01258605
      53         -0.560425        1.000000        0.00350190        0.00210231        0.00087486        0.01007389
      54         -0.559290        1.000000        0.00167150        0.01300344        0.00379341        0.00646784
      55         -0.558796        1.000000        0.00611559        0.00011167        0.00522083        0.01093859
      56         -0.558732        1.000000        0.00465070        0.00964906        0.00192942        0.00906839
      57         -0.558394        1.000000        0.00036994        0.00737203        0.01678673        0.00210857
      58         -0.557063        1.000000        0.00011834        0.02160169        0.00531059        0.00192650
      59         -0.555347        1.000000        0.00259530        0.01339032        0.00366640        0.00476746
      60         -0.555059        1.000000        0.00132284        0.00850264        0.01144071        0.00125436
      61         -0.553642        1.000000        0.00121484        0.00192719        0.00107284        0.00107398
      62         -0.553196        1.000000        0.00099957        0.00093369        0.00237847        0.00088632
      63         -0.548422        1.000000        0.00159301        0.00003022        0.00629130        0.00050238
      64         -0.540525        1.000000        0.00810072        0.00056071        0.00822450        0.00157336
      65         -0.484884        1.000000        0.00048916        0.00000525        0.00001075        0.00002004
      66         -0.478142        1.000000        0.00140797        0.00005522        0.00000101        0.00000486
      67         -0.477240        1.000000        0.00197282        0.00001782        0.00002683        0.00000831
      68         -0.474490        1.000000        0.00154640        0.00000934        0.00003788        0.00003485
      69         -0.470926        1.000000        0.00437612        0.00000364        0.00001189        0.00002975
      70         -0.465005        1.000000        0.01933655        0.00005317        0.00004434        0.00003593
      71         -0.461577        1.000000        0.68126760        0.00081387        0.00142346        0.00036834
      72         -0.459841        1.000000        0.65598939        0.00101284        0.00125865        0.00036527
      73         -0.459378        1.000000        0.04691691        0.00006483        0.00006100        0.00003579
      74         -0.455745        1.000000        0.70731508        0.00196480        0.00144599        0.00206391
      75         -0.453548        1.000000        0.70100678        0.00093802        0.00060706        0.00048531
      76         -0.452639        1.000000        0.70876990        0.00162921        0.00029179        0.00133015
      77         -0.447653        1.000000        0.73996254        0.00074631        0.00086654        0.00072667
      78         -0.445364        1.000000        0.74400902        0.00039632        0.00043107        0.00045206
      79         -0.442283        1.000000        0.75211475        0.00034865        0.00021307        0.00023634
      80         -0.412175        1.000000        0.00016323        0.00009349        0.00009782        0.00003551
      81         -0.410243        1.000000        0.00054388        0.00004422        0.00006208        0.00008863
      82         -0.408804        1.000000        0.00014902        0.00001701        0.00000540        0.00001700
      83         -0.407192        1.000000        0.00037502        0.00000590        0.00003787        0.00008080
      84         -0.406716        1.000000        0.00002683        0.00003910        0.00002027        0.00001386
      85         -0.406482        1.000000        0.00030371        0.00005685        0.00000604        0.00000794
      86         -0.404691        1.000000        0.00030190        0.00004448        0.00004928        0.00005131
      87         -0.404419        1.000000        0.00020520        0.00001337        0.00002524        0.00006920
      88         -0.404267        1.000000        0.00021978        0.00003108        0.00002206        0.00004440
      89         -0.402958        1.000000        0.00029165        0.00011438        0.00003286        0.00010708
      90         -0.402154        1.000000        0.00033436        0.00011084        0.00007947        0.00019784
      91         -0.401142        1.000000        0.00015966        0.00007400        0.00004078        0.00001906
      92         -0.397483        1.000000        0.00008643        0.00000764        0.00006827        0.00001225
      93         -0.395328        1.000000        0.00005255        0.00004241        0.00006204        0.00002186
      94         -0.318151        1.000000        0.00153905        0.00202976        0.00927649        0.00134263
      95         -0.291796        1.000000        0.00175201        0.05625540        0.04761982        0.00176104
      96         -0.280437        1.000000        0.00506500        0.00927326        0.06953657        0.13759739
      97         -0.276463        1.000000        0.00613180        0.02672134        0.11853837        0.06853188
      98         -0.275288        1.000000        0.00196227        0.01809719        0.10325443        0.03991951
      99         -0.273208        1.000000        0.00350320        0.21627168        0.01458976        0.03399507
     100         -0.270933        1.000000        0.00276094        0.19333552        0.01821829        0.02418899
     101         -0.269866        1.000000        0.00238279        0.22301492        0.01847800        0.02011652
     102         -0.267419        1.000000        0.00408125        0.13127364        0.03092456        0.06742302
     103         -0.265338        1.000000        0.00546421        0.03424454        0.04882973        0.18053950
     104         -0.263564        1.000000        0.00084762        0.04948721        0.01118519        0.20012948
     105         -0.261403        1.000000        0.00017903        0.02169145        0.12005114        0.05965836
     106         -0.260370        1.000000        0.00065540        0.01721586        0.17709693        0.05977589
     107         -0.258267        1.000000        0.00042578        0.03512435        0.01887471        0.01970992
     108         -0.256484        1.000000        0.00020164        0.01125267        0.12231148        0.11029431
     109         -0.255798        1.000000        0.00047975        0.02262611        0.23637041        0.01541912
     110         -0.250765        1.000000        0.00039142        0.02410666        0.05475288        0.14449651
     111         -0.248815        1.000000        0.00016934        0.03068264        0.09455126        0.04491629
     112         -0.246998        1.000000        0.00059037        0.05316720        0.05485839        0.13470854
     113         -0.245641        1.000000        0.00040101        0.08404692        0.03475781        0.11881721
     114         -0.243248        1.000000        0.00015510        0.11365164        0.10953563        0.01088326
     115         -0.240615        1.000000        0.00133675        0.11219509        0.05239893        0.04231467
     116         -0.238672        1.000000        0.00054086        0.01057251        0.04652376        0.04677106
     117         -0.237713        1.000000        0.00045858        0.09189419        0.06048469        0.02942866
     118         -0.236552        1.000000        0.00209855        0.07501390        0.04484047        0.03919344
     119         -0.236312        1.000000        0.00296429        0.02126655        0.02696242        0.02862848
     120         -0.234885        1.000000        0.00309898        0.11853803        0.02701342        0.05196944
     121         -0.232900        1.000000        0.00520534        0.08801924        0.01840581        0.05731863
     122         -0.230235        1.000000        0.00806195        0.02117619        0.06078542        0.04778159
     123         -0.227868        1.000000        0.00672424        0.01494573        0.05200225        0.00608455
     124         -0.226573        1.000000        0.00268567        0.00762843        0.02025941        0.02472148
     125         -0.224711        1.000000        0.00562219        0.01478670        0.01220110        0.03979584
     126         -0.223497        1.000000        0.00683636        0.01575206        0.01880271        0.02311342
     127         -0.223198        1.000000        0.00611377        0.02441650        0.02104113        0.03260346
     128         -0.219962        1.000000        0.01503725        0.01611676        0.03927438        0.02186309
     129         -0.218888        1.000000        0.00181104        0.01250786        0.01094013        0.00311060
     130         -0.216976        1.000000        0.00181109        0.00333923        0.01337574        0.00324930
     131         -0.214885        1.000000        0.00270077        0.00555751        0.01059207        0.00409683
     132         -0.213283        1.000000        0.00116156        0.00710696        0.00388972        0.00169616
     133         -0.212349        1.000000        0.00773357        0.00825930        0.01124134        0.00752905
     134         -0.211007        1.000000        0.00074058        0.00401322        0.00151462        0.00306754
     135         -0.210707        1.000000        0.00405188        0.00417110        0.00754778        0.00787019
     136         -0.209040        1.000000        0.00213449        0.00481920        0.00169998        0.00271366
     137         -0.208730        1.000000        0.00270375        0.00439158        0.00351521        0.00353971
     138         -0.207120        1.000000        0.00191579        0.00252510        0.00367479        0.00206830
     139         -0.206629        1.000000        0.00075807        0.00416525        0.00130004        0.00198314
     140         -0.205919        1.000000        0.00447912        0.00570648        0.00574772        0.00971686
     141         -0.203981        1.000000        0.00284367        0.00110905        0.00409202        0.00446731
     142         -0.203235        1.000000        0.00051775        0.00242874        0.00129683        0.00070043
     143         -0.201966        1.000000        0.00375317        0.00558643        0.00124546        0.00118592
     144         -0.201122        1.000000        0.00181169        0.00239901        0.00088123        0.00163595
     145         -0.200361        1.000000        0.00293493        0.00111473        0.00151169        0.00135715
     146         -0.199988        1.000000        0.00349113        0.00106738        0.00270911        0.00178083
     147         -0.199416        1.000000        0.00544283        0.00289186        0.00275684        0.00719515
     148         -0.197507        1.000000        0.00647619        0.00086355        0.00151910        0.00308386
     149         -0.195870        1.000000        0.00175659        0.00055360        0.00057691        0.00111200
     150         -0.195637        1.000000        0.00570346        0.00062496        0.00108892        0.00234139
     151         -0.194805        1.000000        0.00130137        0.00103559        0.00062546        0.00220724
     152         -0.194527        1.000000        0.00356915        0.00062211        0.00107235        0.00107227
     153         -0.194068        1.000000        0.00578455        0.00128915        0.00174102        0.00177983
     154         -0.193646        1.000000        0.00367063        0.00104004        0.00259533        0.00151847
     155         -0.192904        1.000000        0.00227585        0.00114120        0.00169563        0.00112265
     156         -0.192626        1.000000        0.00474229        0.00116212        0.00275632        0.00073392
     157         -0.192468        1.000000        0.00045375        0.00019936        0.00021747        0.00138606
     158         -0.191799        1.000000        0.00346082        0.00089257        0.00156331        0.00032964
     159         -0.191578        1.000000        0.00142144        0.00032815        0.00072701        0.00108326
     160         -0.191333        1.000000        0.00030131        0.00134334        0.00066437        0.00061936
     161         -0.190774        1.000000        0.00151747        0.00025339        0.00106905        0.00054006
     162         -0.190395        1.000000        0.00477531        0.00129708        0.00111367        0.00088520
     163         -0.190122        1.000000        0.00310134        0.00136297        0.00128390        0.00115173
     164         -0.189892        1.000000        0.00118151        0.00064121        0.00033091        0.00038319
     165         -0.189803        1.000000        0.00087520        0.00053141        0.00058661        0.00106814
     166         -0.189478        1.000000        0.00386314        0.00035677        0.00094704        0.00044252
     167         -0.189344        1.000000        0.00468950        0.00177742        0.00279088        0.00341368
     168         -0.188632        1.000000        0.00216318        0.00039648        0.00094219        0.00084858
     169         -0.187849        1.000000        0.00222436        0.00108121        0.00072838        0.00082419
     170         -0.187428        1.000000        0.01483551        0.00255157        0.00283567        0.00835337
     171         -0.187233        1.000000        0.00785969        0.00100278        0.00257497        0.00128574
     172         -0.186230        1.000000        0.01869153        0.00293124        0.00423605        0.00558849
     173         -0.185753        1.000000        0.00403037        0.00103652        0.00041226        0.00245004
     174         -0.185237        1.000000        0.01122442        0.00110652        0.00226905        0.00161871
     175         -0.185161        1.000000        0.00270273        0.00051947        0.00105338        0.00098855
     176         -0.184581        1.000000        0.00321903        0.00042354        0.00092876        0.00049678
     177         -0.184447        1.000000        0.00356863        0.00040445        0.00128100        0.00020849
     178         -0.183932        1.000000        0.00615613        0.00056566        0.00142838        0.00038381
     179         -0.183438        1.000000        0.00740746        0.00063900        0.00208717        0.00062273
     180         -0.183155        1.000000        0.00285688        0.00086540        0.00103515        0.00030526
     181         -0.182704        1.000000        0.00230951        0.00060841        0.00072560        0.00068332
     182         -0.182343        1.000000        0.01689072        0.00129068        0.00497249        0.00152653
     183         -0.181176        1.000000        0.04132389        0.00374109        0.00257235        0.00451561
     184         -0.181014        1.000000        0.00340605        0.00012342        0.00041223        0.00102960
     185         -0.180820        1.000000        0.00531344        0.00021103        0.00077533        0.00206438
     186         -0.180339        1.000000        0.02760515        0.00100337        0.00285803        0.00450233
     187         -0.179803        1.000000        0.02555273        0.00166781        0.00177452        0.00313956
     188         -0.179399        1.000000        0.00962863        0.00092517        0.00074343        0.00141553
     189         -0.179375        1.000000        0.01128326        0.00161898        0.00085527        0.00088395
     190         -0.179088        1.000000        0.01333272        0.00107944        0.00077682        0.00038430
     191         -0.178366        1.000000        0.06044886        0.00464074        0.00569454        0.00375942
     192         -0.178227        1.000000        0.03304654        0.00181206        0.00233510        0.00178930
     193         -0.177803        1.000000        0.01541968        0.00212035        0.00104712        0.00066661
     194         -0.177459        1.000000        0.02111777        0.00201956        0.00255524        0.00350914
     195         -0.176696        1.000000        0.00639311        0.00051543        0.00038919        0.00039567
     196         -0.176649        0.000000        0.01814238        0.00085528        0.00159458        0.00109544
     197         -0.175514        0.000000        0.08536984        0.00405168        0.00485729        0.00333502
     198         -0.172955        0.000000        0.11284038        0.00265070        0.00316503        0.00511029
     199         -0.171735        0.000000        0.11372288        0.00134014        0.00110099        0.00549852
     200         -0.170694        0.000000        0.08989410        0.00115228        0.00102889        0.00150565
     201         -0.167966        0.000000        0.00218666        0.00041620        0.00020957        0.00029773
     202         -0.062221        0.000000        0.00638483        0.01604262        0.03041467        0.68970213
     203         -0.054657        0.000000        0.00845537        0.51760763        0.13030509        0.04813511
     204         -0.053432        0.000000        0.01330546        0.11838859        0.25098197        0.32962819
     205         -0.047593        0.000000        0.00798650        0.37703365        0.08981782        0.23577727
     206         -0.047477        0.000000        0.00800898        0.22934392        0.34444317        0.12763720
     207         -0.045592        0.000000        0.00736889        0.41433019        0.18989888        0.09621636
     208         -0.042851        0.000000        0.00328454        0.23301879        0.34412186        0.11302649
     209         -0.039604        0.000000        0.00220684        0.24682342        0.40167157        0.04498785
     210         -0.039098        0.000000        0.00368702        0.24342449        0.42644106        0.01855259
     211         -0.037369        0.000000        0.00123059        0.16009835        0.14904917        0.38398563
     212         -0.036051        0.000000        0.00257227        0.20399150        0.36420313        0.12999926
     213         -0.032580        0.000000        0.00025531        0.14143922        0.29163817        0.26083694
     214         -0.031364        0.000000        0.00007398        0.08462279        0.37733834        0.23307188
     215         -0.029727        0.000000        0.00020103        0.04807991        0.25869286        0.38658353
     216         -0.023349        0.000000        0.00046747        0.07474503        0.13456714        0.47839051
     217         -0.023179        0.000000        0.00092382        0.09446398        0.09165656        0.50313323
     218         -0.017453        0.000000        0.00026789        0.10378976        0.41199494        0.15882838
     219         -0.016671        0.000000        0.00053218        0.32443372        0.26301605        0.08880615
     220         -0.015131        0.000000        0.00069673        0.02963794        0.56410167        0.08451857
     221         -0.012783        0.000000        0.00035977        0.04403568        0.13827301        0.48737397
     222         -0.010648        0.000000        0.00039506        0.48020979        0.12507198        0.06747476
     223         -0.005950        0.000000        0.00011717        0.60840767        0.01519950        0.05862840
     224         -0.004907        0.000000        0.00039005        0.53851922        0.01367246        0.12576530
     225         -0.003849        0.000000        0.00154735        0.20115580        0.08985550        0.38702667
     226          0.087820        0.000000        0.00001410        0.00007750        0.00005625        0.00021297
     227          0.093888        0.000000        0.00000265        0.00009470        0.00000506        0.00001993
     228          0.094707        0.000000        0.00000132        0.00004402        0.00005569        0.00005684
     229          0.102947        0.000000        0.00000281        0.00004422        0.00001714        0.00005286
     230          0.106539        0.000000        0.00000248        0.00003268        0.00006741        0.00003245
     231          0.108856        0.000000        0.00000153        0.00012725        0.00002385        0.00000827
     232          0.112653        0.000000        0.00000006        0.00000381        0.00000694        0.00000824
     233          0.167330        0.000000        0.00002636        0.00001682        0.00000711        0.00040784
     234          0.170720        0.000000        0.00000382        0.00000649        0.00002500        0.00000804
     235          0.183998        0.000000        0.00000292        0.00001549        0.00000197        0.00003093
     236          0.208541        0.000000        0.00000392        0.00002298        0.00000083        0.00000598
     237          0.276001        0.000000        0.00001533        0.00003022        0.00000754        0.00014965
     238          0.282916        0.000000        0.00000032        0.00010772        0.00038711        0.00007594
     239          0.288240        0.000000        0.00000621        0.00012311        0.00011176        0.00001063
     240          0.289375        0.000000        0.00000093        0.00003433        0.00014464        0.00008203
     241          0.290399        0.000000        0.00000461        0.00001305        0.00005681        0.00006684
     242          0.296017        0.000000        0.00000128        0.00014477        0.00008018        0.00001106
     243          0.298256        0.000000        0.00000405        0.00005005        0.00005381        0.00001833
     244          0.299972        0.000000        0.00000375        0.00006048        0.00006535        0.00002306
     245          0.304592        0.000000        0.00002077        0.00004652        0.00001488        0.00017411
     246          0.304744        0.000000        0.00000758        0.00010788        0.00002496        0.00010844
     247          0.307486        0.000000        0.00000196        0.00008007        0.00009119        0.00001154
     248          0.319053        0.000000        0.00000147        0.00011279        0.00027188        0.00013546
     249          0.325045        0.000000        0.00000848        0.00004354        0.00002343        0.00004363
     250          0.326505        0.000000        0.00000905        0.00006873        0.00002952        0.00002545
     251          0.328342        0.000000        0.00000506        0.00002102        0.00006083        0.00000439
     252          0.345697        0.000000        0.00000276        0.00001827        0.00000954        0.00000538
     253          0.347447        0.000000        0.00000662        0.00001096        0.00011241        0.00002035
     254          0.454029        0.000000        0.00000066        0.00000580        0.00000828        0.00003311
     255          0.455547        0.000000        0.00000087        0.00000478        0.00000027        0.00000715
     256          0.457137        0.000000        0.00000018        0.00000488        0.00000486        0.00000035
     257          0.458265        0.000000        0.00000110        0.00001845        0.00003002        0.00000651
     258          0.458352        0.000000        0.00000052        0.00000223        0.00000730        0.00000238
     259          0.458458        0.000000        0.00000094        0.00001731        0.00000841        0.00000260