# Projected DOS for atomic kind N at iteration step i = 0, E(Fermi) =    -0.176696 a.u.
#     MO Eigenvalue [a.u.]      Occupation                 s                py                pz                px
       1         -0.963976        1.000000        0.62212913        0.00108572        0.00009101        0.00000568
       2         -0.953695        1.000000        0.61837225        0.00061458        0.00002598        0.00005134
       3         -0.952868        1.000000        0.61409526        0.00000122        0.00007296        0.00022751
       4         -0.951524        1.000000        0.61877243        0.00035258        0.00003930        0.00004310
       5         -0.949118        1.000000        0.61876868        0.00012114        0.00068968        0.00005788
       6         -0.938078        1.000000        0.61091491        0.00000194        0.00010347        0.00000302
       7         -0.931984        1.000000        0.61122534        0.00001109        0.00010415        0.00000792
       8         -0.699202        1.000000        0.01570118        0.02824813        0.01874579        0.16560032
       9         -0.693853        1.000000        0.01756107        0.00094000        0.00130852        0.19853439
      10         -0.692470        1.000000        0.01861242        0.00172894        0.10260013        0.10363919
      11         -0.690457        1.000000        0.01546714        0.01342828        0.01712900        0.17258853
      12         -0.689610        1.000000        0.01900475        0.00389810        0.00732306        0.19660441
      13         -0.685594        1.000000        0.01793830        0.00001168        0.04783852        0.14289705
      14         -0.679930        1.000000        0.01845049        0.00001016        0.08029437        0.11289538
      15         -0.639651        1.000000        0.00025135        0.00563328        0.00007267        0.00030238
      16         -0.620652        1.000000        0.00002783        0.00059502        0.00073601        0.00007572
      17         -0.600923        1.000000        0.00002227        0.00378805        0.00409927        0.00146716
      18         -0.598263        1.000000        0.00053210        0.01603474        0.01509171        0.00423636
      19         -0.592654        1.000000        0.00030457        0.00381195        0.33418032        0.05301241
      20         -0.592257        1.000000        0.00028197        0.03967639        0.06622883        0.01536573
      21         -0.591003        1.000000        0.00022293        0.01893759        0.06883454        0.01229612
      22         -0.590572        1.000000        0.00040153        0.01983314        0.11281426        0.02134613
      23         -0.589513        1.000000        0.00052569        0.01873466        0.03022365        0.01982599
      24         -0.586869        1.000000        0.00030174        0.01353237        0.07071907        0.03033305
      25         -0.585107        1.000000        0.00034475        0.04909938        0.03689057        0.01430540
      26         -0.581515        1.000000        0.00029226        0.09931195        0.13998464        0.01677190
      27         -0.580444        1.000000        0.00018164        0.24858791        0.14705675        0.00594796
      28         -0.579569        1.000000        0.00023328        0.02887816        0.20454243        0.09798953
      29         -0.579063        1.000000        0.00056423        0.07719690        0.02729039        0.01328584
      30         -0.578153        1.000000        0.00030742        0.07082329        0.01471005        0.00544794
      31         -0.577713        1.000000        0.00035394        0.05684922        0.05817183        0.02135606
      32         -0.577326        1.000000        0.00142761        0.30305786        0.02501260        0.02374203
      33         -0.575781        1.000000        0.00008004        0.27107384        0.12025251        0.00377337
      34         -0.575491        1.000000        0.00006393        0.16650988        0.07256099        0.00505524
      35         -0.573937        1.000000        0.00015648        0.03116611        0.05145372        0.02472994
      36         -0.572293        1.000000        0.00007505        0.01884178        0.04136922        0.02519523
      37         -0.572062        1.000000        0.00008445        0.02503376        0.02256664        0.02143638
      38         -0.571897        1.000000        0.00054381        0.07367176        0.03775651        0.02736890
      39         -0.570485        1.000000        0.00005952        0.05081546        0.03865272        0.00893426
      40         -0.570152        1.000000        0.00006452        0.05253203        0.01848956        0.00749241
      41         -0.569206        1.000000        0.00017932        0.11725492        0.02145488        0.01860922
      42         -0.568450        1.000000        0.00096806        0.45648968        0.00308268        0.00499092
      43         -0.567887        1.000000        0.00017118        0.04543287        0.01547335        0.00371758
      44         -0.566822        1.000000        0.00071464        0.21412160        0.03604586        0.01746149
      45         -0.566156        1.000000        0.00082519        0.34999378        0.02172372        0.00904898
      46         -0.564826        1.000000        0.00000137        0.00031900        0.00020925        0.00025226
      47         -0.564578        1.000000        0.00001479        0.00969876        0.01927062        0.00944027
      48         -0.564353        1.000000        0.00000226        0.00259142        0.00592236        0.00271081
      49         -0.564004        1.000000        0.00014203        0.00333246        0.01703347        0.00073935
      50         -0.563270        1.000000        0.00022454        0.04704896        0.03407383        0.01433045
      51         -0.562291        1.000000        0.00172474        0.00527919        0.20626004        0.02329631
      52         -0.561660        1.000000        0.00008961        0.00484047        0.01658689        0.01016869
      53         -0.560425        1.000000        0.00087072        0.07139707        0.16486577        0.05308927
      54         -0.559290        1.000000        0.00025549        0.02041128        0.05046157        0.00339735
      55         -0.558796        1.000000        0.00000931        0.00181574        0.00776846        0.00009172
      56         -0.558732        1.000000        0.00053539        0.04358865        0.11195066        0.01818938
      57         -0.558394        1.000000        0.00009640        0.01789091        0.05919994        0.00225866
      58         -0.557063        1.000000        0.00002049        0.00193665        0.00406000        0.00116502
      59         -0.555347        1.000000        0.00005968        0.03728686        0.11137869        0.00564285
      60         -0.555059        1.000000        0.00012986        0.07444638        0.06655060        0.01025186
      61         -0.553642        1.000000        0.00022035        0.08962751        0.32196952        0.09414540
      62         -0.553196        1.000000        0.00006492        0.33461116        0.06872250        0.02417214
      63         -0.548422        1.000000        0.00075275        0.00470200        0.27302516        0.16142029
      64         -0.540525        1.000000        0.00020225        0.37549120        0.00087316        0.00008062
      65         -0.484884        1.000000        0.00825630        0.03482942        0.05656188        0.34080961
      66         -0.478142        1.000000        0.00817872        0.00368613        0.00321166        0.42756152
      67         -0.477240        1.000000        0.00707866        0.00019123        0.20225137        0.22807367
      68         -0.474490        1.000000        0.00697174        0.01431647        0.03948550        0.37710395
      69         -0.470926        1.000000        0.00895073        0.03351466        0.04775865        0.35260142
      70         -0.465005        1.000000        0.00837979        0.00032225        0.09512103        0.33102953
      71         -0.461577        1.000000        0.00002159        0.00056040        0.00218261        0.00210062
      72         -0.459841        1.000000        0.00048584        0.00005515        0.00686450        0.01556426
      73         -0.459378        1.000000        0.00797009        0.00038125        0.15108180        0.25613645
      74         -0.455745        1.000000        0.00003435        0.00036588        0.00067475        0.00213504
      75         -0.453548        1.000000        0.00004928        0.00007144        0.00035114        0.00166641
      76         -0.452639        1.000000        0.00003086        0.00042521        0.00119617        0.00337274
      77         -0.447653        1.000000        0.00001741        0.00014367        0.00097582        0.00197478
      78         -0.445364        1.000000        0.00000814        0.00008063        0.00098285        0.00370200
      79         -0.442283        1.000000        0.00001121        0.00003192        0.00046054        0.00147648
      80         -0.412175        1.000000        0.00011081        0.02345009        0.01246822        0.00008472
      81         -0.410243        1.000000        0.00001102        0.01155483        0.01557497        0.00606489
      82         -0.408804        1.000000        0.00001046        0.03028434        0.00897870        0.00051223
      83         -0.407192        1.000000        0.00000318        0.00378748        0.03004510        0.00134684
      84         -0.406716        1.000000        0.00000030        0.00394031        0.01775814        0.01497070
      85         -0.406482        1.000000        0.00001264        0.00955558        0.02836924        0.00001264
      86         -0.404691        1.000000        0.00004579        0.04067170        0.00054222        0.00047855
      87         -0.404419        1.000000        0.00003177        0.03039951        0.00263090        0.00291574
      88         -0.404267        1.000000        0.00004037        0.03544312        0.00161650        0.00190320
      89         -0.402958        1.000000        0.00003882        0.01112087        0.02737119        0.00063175
      90         -0.402154        1.000000        0.00012338        0.02347675        0.01353251        0.00402430
      91         -0.401142        1.000000        0.00000917        0.00016731        0.03290796        0.00996942
      92         -0.397483        1.000000        0.00000530        0.00089382        0.02488228        0.01773368
      93         -0.395328        1.000000        0.00000051        0.04224362        0.00029270        0.00050888
      94         -0.318151        1.000000        0.00005479        0.00026372        0.00002647        0.00013027
      95         -0.291796        1.000000        0.00001361        0.00014941        0.00004461        0.00003708
      96         -0.280437        1.000000        0.00038523        0.00064834        0.00049340        0.00007076
      97         -0.276463        1.000000        0.00006780        0.00030059        0.00030255        0.00007730
      98         -0.275288        1.000000        0.00016396        0.00020928        0.00024684        0.00023304
      99         -0.273208        1.000000        0.00009689        0.00142087        0.00023610        0.00002356
     100         -0.270933        1.000000        0.00012726        0.00105212        0.00035878        0.00010082
     101         -0.269866        1.000000        0.00006410        0.00053527        0.00011381        0.00003896
     102         -0.267419        1.000000        0.00024527        0.00093309        0.00019853        0.00038444
     103         -0.265338        1.000000        0.00020008        0.00029329        0.00029137        0.00009938
     104         -0.263564        1.000000        0.00009366        0.00019238        0.00019161        0.00012930
     105         -0.261403        1.000000        0.00001063        0.00005197        0.00001294        0.00005316
     106         -0.260370        1.000000        0.00016871        0.00012155        0.00060471        0.00008286
     107         -0.258267        1.000000        0.00111540        0.00250138        0.00008423        0.00159259
     108         -0.256484        1.000000        0.00003127        0.00009418        0.00021511        0.00004398
     109         -0.255798        1.000000        0.00005688        0.00020176        0.00010589        0.00002824
     110         -0.250765        1.000000        0.00023655        0.00018293        0.00030585        0.00039781
     111         -0.248815        1.000000        0.00028904        0.00031917        0.00016135        0.00023548
     112         -0.246998        1.000000        0.00004158        0.00021846        0.00039322        0.00004902
     113         -0.245641        1.000000        0.00000811        0.00011759        0.00023178        0.00011333
     114         -0.243248        1.000000        0.00011318        0.00015081        0.00116807        0.00032698
     115         -0.240615        1.000000        0.00049476        0.00012465        0.00025141        0.00042574
     116         -0.238672        1.000000        0.00054684        0.00038979        0.00062615        0.00039102
     117         -0.237713        1.000000        0.00041053        0.00033284        0.00046415        0.00017322
     118         -0.236552        1.000000        0.00044452        0.00088791        0.00021220        0.00019854
     119         -0.236312        1.000000        0.00501717        0.00113215        0.00042555        0.00266396
     120         -0.234885        1.000000        0.00060023        0.00068450        0.00039868        0.00075159
     121         -0.232900        1.000000        0.00087434        0.00072211        0.00046722        0.00057565
     122         -0.230235        1.000000        0.00054881        0.00027453        0.00032504        0.00047597
     123         -0.227868        1.000000        0.00029577        0.00029347        0.00018388        0.00094105
     124         -0.226573        1.000000        0.00084091        0.00017566        0.00022331        0.00040740
     125         -0.224711        1.000000        0.00010026        0.00014595        0.00090375        0.00072528
     126         -0.223497        1.000000        0.00189386        0.00247852        0.00126316        0.00072051
     127         -0.223198        1.000000        0.00049520        0.00064130        0.00055266        0.00007448
     128         -0.219962        1.000000        0.00143392        0.00089715        0.00166037        0.00172161
     129         -0.218888        1.000000        0.00071991        0.00866691        0.00192351        0.00156974
     130         -0.216976        1.000000        0.00217133        0.00083701        0.00198325        0.00120162
     131         -0.214885        1.000000        0.00102991        0.00101601        0.00038219        0.00047788
     132         -0.213283        1.000000        0.00039507        0.00108436        0.00116765        0.00025587
     133         -0.212349        1.000000        0.00102206        0.00044336        0.00224807        0.00022223
     134         -0.211007        1.000000        0.00193331        0.00197009        0.00063687        0.00060150
     135         -0.210707        1.000000        0.00152836        0.00197037        0.00286906        0.00077534
     136         -0.209040        1.000000        0.00007108        0.00009793        0.00096140        0.00036556
     137         -0.208730        1.000000        0.00054631        0.00081079        0.00213863        0.00051026
     138         -0.207120        1.000000        0.00065884        0.00022419        0.00160679        0.00155214
     139         -0.206629        1.000000        0.00020033        0.00087248        0.00059177        0.00030051
     140         -0.205919        1.000000        0.00047818        0.00034750        0.00054437        0.00029881
     141         -0.203981        1.000000        0.00036504        0.00069618        0.00102131        0.00021062
     142         -0.203235        1.000000        0.00094528        0.00085335        0.00118441        0.00102421
     143         -0.201966        1.000000        0.00029218        0.00047754        0.00063354        0.00018264
     144         -0.201122        1.000000        0.00018925        0.00055554        0.00023678        0.00024698
     145         -0.200361        1.000000        0.00023117        0.00085328        0.00039557        0.00012052
     146         -0.199988        1.000000        0.00020832        0.00015994        0.00026590        0.00021321
     147         -0.199416        1.000000        0.00033790        0.00009833        0.00026396        0.00025787
     148         -0.197507        1.000000        0.00077766        0.00120531        0.00148149        0.00030111
     149         -0.195870        1.000000        0.00019632        0.00048258        0.00066123        0.00014815
     150         -0.195637        1.000000        0.00059656        0.00291056        0.00221056        0.00022733
     151         -0.194805        1.000000        0.00033206        0.00102133        0.00050397        0.00010820
     152         -0.194527        1.000000        0.00067169        0.00263480        0.00146711        0.00045225
     153         -0.194068        1.000000        0.00035137        0.00094738        0.00187269        0.00013240
     154         -0.193646        1.000000        0.00011570        0.00227544        0.00046357        0.00032910
     155         -0.192904        1.000000        0.00026361        0.00031167        0.00036511        0.00012670
     156         -0.192626        1.000000        0.00039726        0.00148664        0.00065804        0.00098957
     157         -0.192468        1.000000        0.00011671        0.00021908        0.00018332        0.00014921
     158         -0.191799        1.000000        0.00006131        0.00203770        0.00031405        0.00004723
     159         -0.191578        1.000000        0.00010225        0.00060632        0.00024514        0.00002667
     160         -0.191333        1.000000        0.00014198        0.00003577        0.00025205        0.00052596
     161         -0.190774        1.000000        0.00057376        0.00173524        0.00036127        0.00066961
     162         -0.190395        1.000000        0.00035984        0.00101006        0.00022621        0.00035078
     163         -0.190122        1.000000        0.00014548        0.00043201        0.00040821        0.00020895
     164         -0.189892        1.000000        0.00005976        0.00017244        0.00011033        0.00004287
     165         -0.189803        1.000000        0.00006948        0.00050357        0.00010594        0.00009690
     166         -0.189478        1.000000        0.00014339        0.00053742        0.00021714        0.00006382
     167         -0.189344        1.000000        0.00054535        0.00118999        0.00180563        0.00027763
     168         -0.188632        1.000000        0.00005396        0.00028440        0.00011970        0.00028655
     169         -0.187849        1.000000        0.00003198        0.00052780        0.00011808        0.00004000
     170         -0.187428        1.000000        0.00031712        0.00078008        0.00024711        0.00031405
     171         -0.187233        1.000000        0.00027341        0.00016779        0.00011907        0.00027669
     172         -0.186230        1.000000        0.00027086        0.00120090        0.00022564        0.00040690
     173         -0.185753        1.000000        0.00030372        0.00061217        0.00059095        0.00016010
     174         -0.185237        1.000000        0.00014439        0.00188110        0.00017019        0.00030577
     175         -0.185161        1.000000        0.00050505        0.00133193        0.00060058        0.00049476
     176         -0.184581        1.000000        0.00015953        0.00017683        0.00020638        0.00008609
     177         -0.184447        1.000000        0.00062761        0.00046180        0.00019402        0.00044449
     178         -0.183932        1.000000        0.00013880        0.00032195        0.00031592        0.00008791
     179         -0.183438        1.000000        0.00011090        0.00125623        0.00062110        0.00010229
     180         -0.183155        1.000000        0.00005360        0.00058811        0.00032925        0.00004880
     181         -0.182704        1.000000        0.00004603        0.00004670        0.00007386        0.00009800
     182         -0.182343        1.000000        0.00021093        0.00021057        0.00011425        0.00013724
     183         -0.181176        1.000000        0.00013992        0.00030688        0.00002492        0.00012546
     184         -0.181014        1.000000        0.00003437        0.00001123        0.00005025        0.00006361
     185         -0.180820        1.000000        0.00002133        0.00004456        0.00019324        0.00001608
     186         -0.180339        1.000000        0.00004460        0.00015378        0.00003303        0.00002520
     187         -0.179803        1.000000        0.00007703        0.00008089        0.00006752        0.00016705
     188         -0.179399        1.000000        0.00013853        0.00001331        0.00008385        0.00021116
     189         -0.179375        1.000000        0.00005964        0.00002734        0.00003130        0.00014045
     190         -0.179088        1.000000        0.00001197        0.00002501        0.00001884        0.00003150
     191         -0.178366        1.000000        0.00004119        0.00012748        0.00000545        0.00005424
     192         -0.178227        1.000000        0.00002691        0.00006263        0.00007226        0.00007290
     193         -0.177803        1.000000        0.00002458        0.00013903        0.00001183        0.00002328
     194         -0.177459        1.000000        0.00000670        0.00015246        0.00010804        0.00003334
     195         -0.176696        1.000000        0.00011391        0.00040691        0.00006671        0.00013309
     196         -0.176649        0.000000        0.00001965        0.00004175        0.00011561        0.00004517
     197         -0.175514        0.000000        0.00005722        0.00004561        0.00002433        0.00002736
     198         -0.172955        0.000000        0.00002298        0.00009567        0.00006745        0.00005923
     199         -0.171735        0.000000        0.00002024        0.00002815        0.00004284        0.00002906
     200         -0.170694        0.000000        0.00000828        0.00002788        0.00005302        0.00003811
     201         -0.167966        0.000000        0.00002531        0.00007959        0.00000614        0.00003788
     202         -0.062221        0.000000        0.00003041        0.00004785        0.00001450        0.00001173
     203         -0.054657        0.000000        0.00003535        0.00001979        0.00003650        0.00002680
     204         -0.053432        0.000000        0.00038861        0.00013009        0.00012579        0.00015929
     205         -0.047593        0.000000        0.00015544        0.00008786        0.00028538        0.00005669
     206         -0.047477        0.000000        0.00013225        0.00013303        0.00020888        0.00005203
     207         -0.045592        0.000000        0.00010524        0.00005397        0.00011358        0.00001363
     208         -0.042851        0.000000        0.00009958        0.00004852        0.00013776        0.00002923
     209         -0.039604        0.000000        0.00000775        0.00001991        0.00010584        0.00006941
     210         -0.039098        0.000000        0.00003566        0.00003678        0.00006440        0.00000558
     211         -0.037369        0.000000        0.00001073        0.00003514        0.00006723        0.00002764
     212         -0.036051        0.000000        0.00002453        0.00007296        0.00002074        0.00002200
     213         -0.032580        0.000000        0.00002989        0.00007410        0.00006113        0.00002402
     214         -0.031364        0.000000        0.00003537        0.00008657        0.00005927        0.00003076
     215         -0.029727        0.000000        0.00003298        0.00001929        0.00003248        0.00002741
     216         -0.023349        0.000000        0.00015034        0.00007875        0.00011442        0.00004512
     217         -0.023179        0.000000        0.00002101        0.00001001        0.00003994        0.00004156
     218         -0.017453        0.000000        0.00006080        0.00011785        0.00002902        0.00002206
     219         -0.016671        0.000000        0.00001308        0.00002954        0.00004119        0.00000612
     220         -0.015131        0.000000        0.00006830        0.00002048        0.00008177        0.00002666
     221         -0.012783        0.000000        0.00001690        0.00003773        0.00004821        0.00005983
     222         -0.010648        0.000000        0.00006723        0.00002329        0.00010978        0.00001891
     223         -0.005950        0.000000        0.00006259        0.00019602        0.00018523        0.00001939
     224         -0.004907        0.000000        0.00009385        0.00042641        0.00006765        0.00001694
     225         -0.003849        0.000000        0.00020603        0.00028706        0.00009463        0.00004901
     226          0.087820        0.000000        0.11996986        0.04555371        0.02514318        0.16273169
     227          0.093888        0.000000        0.11584662        0.00012886        0.00445284        0.23910681
     228          0.094707        0.000000        0.09822755        0.02078777        0.02870254        0.21076245
     229          0.102947        0.000000        0.11784722        0.00437488        0.11834329        0.11804893
     230          0.106539        0.000000        0.12627365        0.00167633        0.00345350        0.22677827
     231          0.108856        0.000000        0.10231299        0.00020203        0.06166308        0.19934380
     232          0.112653        0.000000        0.10517135        0.00018000        0.09640656        0.16398941
     233          0.167330        0.000000        0.04313623        0.14775873        0.03263891        0.11005297
     234          0.170720        0.000000        0.03674929        0.06174314        0.22927778        0.00810768
     235          0.183998        0.000000        0.04620724        0.22800292        0.01017861        0.05201603
     236          0.208541        0.000000        0.04018174        0.22662332        0.03557081        0.03562060
     237          0.276001        0.000000        0.00470305        0.00025823        0.26133678        0.06403606
     238          0.282916        0.000000        0.00001777        0.21797796        0.11230186        0.00050999
     239          0.288240        0.000000        0.00187267        0.06612822        0.23852948        0.01091512
     240          0.289375        0.000000        0.00053534        0.07936376        0.17229008        0.06680184
     241          0.290399        0.000000        0.00056721        0.01488305        0.17149057        0.13560318
     242          0.296017        0.000000        0.00052435        0.18277813        0.11687077        0.02021054
     243          0.298256        0.000000        0.00106170        0.07953580        0.18103309        0.05647777
     244          0.299972        0.000000        0.00011256        0.01798296        0.19120051        0.11097973
     245          0.304592        0.000000        0.12205002        0.18613925        0.01484143        0.01064695
     246          0.304744        0.000000        0.06064877        0.23693589        0.01929264        0.00774056
     247          0.307486        0.000000        0.00010749        0.29199632        0.01509555        0.00448921
     248          0.319053        0.000000        0.24976279        0.00876402        0.01165419        0.07488661
     249          0.325045        0.000000        0.18477323        0.06903635        0.03728167        0.04924717
     250          0.326505        0.000000        0.18033942        0.06989680        0.02703033        0.05952730
     251          0.328342        0.000000        0.18020966        0.01030489        0.03232762        0.11647119
     252          0.345697        0.000000        0.24156028        0.00399540        0.02930545        0.07074038
     253          0.347447        0.000000        0.24116341        0.00009411        0.03935983        0.06524619
     254          0.454029        0.000000        0.00009039        0.00253719        0.01444387        0.00381503
     255          0.455547        0.000000        0.00066984        0.01317764        0.00782097        0.00033410
     256          0.457137        0.000000        0.00003753        0.00709328        0.01726758        0.00048266
     257          0.458265        0.000000        0.00044497        0.01448714        0.00268756        0.00002481
     258          0.458352        0.000000        0.00001133        0.01952710        0.00097563        0.00104555
     259          0.458458        0.000000        0.00073296        0.01757693        0.00117705        0.00005188