# Projected DOS for atomic kind C at iteration step i = 0, E(Fermi) =    -0.176696 a.u.
#     MO Eigenvalue [a.u.]      Occupation                 s                py                pz                px
       1         -0.963976        1.000000        0.05935082        0.00417183        0.00514531        0.03602065
       2         -0.953695        1.000000        0.06378027        0.00000746        0.02281663        0.02422091
       3         -0.952868        1.000000        0.05844753        0.00322659        0.00464290        0.03603215
       4         -0.951524        1.000000        0.06206366        0.00052435        0.00023812        0.04464075
       5         -0.949118        1.000000        0.06474789        0.00133372        0.00328919        0.04273159
       6         -0.938078        1.000000        0.06279368        0.00000269        0.01077758        0.03369427
       7         -0.931984        1.000000        0.06397908        0.00000384        0.01730387        0.02771758
       8         -0.699202        1.000000        0.43478351        0.00018091        0.00001243        0.00048204
       9         -0.693853        1.000000        0.43736988        0.00000913        0.00001962        0.00127417
      10         -0.692470        1.000000        0.43088544        0.00012823        0.00044141        0.00058971
      11         -0.690457        1.000000        0.44003897        0.00000846        0.00000054        0.00073954
      12         -0.689610        1.000000        0.42993818        0.00000388        0.00000065        0.00125962
      13         -0.685594        1.000000        0.43705726        0.00000026        0.00030060        0.00147044
      14         -0.679930        1.000000        0.43757222        0.00000121        0.00084161        0.00075717
      15         -0.639651        1.000000        0.00023108        0.00063569        0.00000500        0.00001733
      16         -0.620652        1.000000        0.00035653        0.00025210        0.00003218        0.00043906
      17         -0.600923        1.000000        0.00023223        0.00129331        0.00084647        0.00011698
      18         -0.598263        1.000000        0.00014672        0.00176875        0.00124612        0.00087662
      19         -0.592654        1.000000        0.00035793        0.00027746        0.03167700        0.00439460
      20         -0.592257        1.000000        0.00010393        0.00434395        0.00688209        0.00125958
      21         -0.591003        1.000000        0.00009516        0.00163802        0.00647555        0.00079298
      22         -0.590572        1.000000        0.00041553        0.00165047        0.01039243        0.00157347
      23         -0.589513        1.000000        0.00042393        0.00166089        0.00383730        0.00160778
      24         -0.586869        1.000000        0.00011591        0.00125449        0.00629011        0.00373303
      25         -0.585107        1.000000        0.00020406        0.00458965        0.00348100        0.00159949
      26         -0.581515        1.000000        0.00010261        0.01021202        0.01398627        0.00174198
      27         -0.580444        1.000000        0.00008527        0.02429429        0.01405974        0.00050467
      28         -0.579569        1.000000        0.00014410        0.00296359        0.01945237        0.00992131
      29         -0.579063        1.000000        0.00022746        0.00852917        0.00303888        0.00175511
      30         -0.578153        1.000000        0.00009909        0.00771598        0.00133080        0.00082202
      31         -0.577713        1.000000        0.00009227        0.00573373        0.00519896        0.00265462
      32         -0.577326        1.000000        0.00037055        0.03037429        0.00290071        0.00330897
      33         -0.575781        1.000000        0.00001179        0.02575102        0.01232664        0.00044244
      34         -0.575491        1.000000        0.00001597        0.01565067        0.00762853        0.00060014
      35         -0.573937        1.000000        0.00006179        0.00294183        0.00533048        0.00289790
      36         -0.572293        1.000000        0.00005749        0.00193627        0.00328365        0.00326100
      37         -0.572062        1.000000        0.00006028        0.00289833        0.00235012        0.00228165
      38         -0.571897        1.000000        0.00026568        0.00660277        0.00375518        0.00369281
      39         -0.570485        1.000000        0.00004478        0.00537332        0.00391911        0.00090650
      40         -0.570152        1.000000        0.00005443        0.00511601        0.00222904        0.00046194
      41         -0.569206        1.000000        0.00009969        0.01272954        0.00227025        0.00193382
      42         -0.568450        1.000000        0.00010786        0.04925352        0.00017060        0.00043271
      43         -0.567887        1.000000        0.00008661        0.00565008        0.00176775        0.00025723
      44         -0.566822        1.000000        0.00025204        0.02318525        0.00394955        0.00215059
      45         -0.566156        1.000000        0.00026104        0.03876529        0.00241848        0.00112266
      46         -0.564826        1.000000        0.00000812        0.00011387        0.00011926        0.00002287
      47         -0.564578        1.000000        0.00003600        0.00101340        0.00219991        0.00082568
      48         -0.564353        1.000000        0.00001424        0.00017811        0.00083186        0.00025328
      49         -0.564004        1.000000        0.00018149        0.00043095        0.00226151        0.00040171
      50         -0.563270        1.000000        0.00009726        0.00491360        0.00418096        0.00093854
      51         -0.562291        1.000000        0.00060452        0.00092974        0.02576918        0.00054629
      52         -0.561660        1.000000        0.00002465        0.00038447        0.00174640        0.00068991
      53         -0.560425        1.000000        0.00039958        0.00836301        0.02008449        0.00306132
      54         -0.559290        1.000000        0.00017662        0.00174167        0.00604778        0.00089580
      55         -0.558796        1.000000        0.00012256        0.00002093        0.00018038        0.00008429
      56         -0.558732        1.000000        0.00026018        0.00552254        0.01445808        0.00121442
      57         -0.558394        1.000000        0.00008416        0.00193994        0.00719415        0.00065411
      58         -0.557063        1.000000        0.00002715        0.00041732        0.00042516        0.00019542
      59         -0.555347        1.000000        0.00005821        0.00423504        0.01376810        0.00048908
      60         -0.555059        1.000000        0.00007963        0.00858749        0.00845628        0.00066656
      61         -0.553642        1.000000        0.00007856        0.01045576        0.03475500        0.01320957
      62         -0.553196        1.000000        0.00001305        0.04055484        0.00800558        0.00281252
      63         -0.548422        1.000000        0.00036622        0.00064261        0.02774598        0.02531806
      64         -0.540525        1.000000        0.00011138        0.04851108        0.00014947        0.00011440
      65         -0.484884        1.000000        0.03057121        0.02836904        0.03534479        0.27296153
      66         -0.478142        1.000000        0.02608910        0.00442450        0.00129102        0.33511063
      67         -0.477240        1.000000        0.02810087        0.00022448        0.15976832        0.17798339
      68         -0.474490        1.000000        0.02761838        0.01005804        0.02133575        0.30703221
      69         -0.470926        1.000000        0.02832367        0.02136107        0.03077095        0.28721152
      70         -0.465005        1.000000        0.02199202        0.00011310        0.07851070        0.25724448
      71         -0.461577        1.000000        0.00025652        0.00001935        0.00053646        0.00286678
      72         -0.459841        1.000000        0.00129049        0.00029305        0.00674076        0.01091244
      73         -0.459378        1.000000        0.02244080        0.00009041        0.13131954        0.19231020
      74         -0.455745        1.000000        0.00013149        0.00028506        0.00096059        0.00148638
      75         -0.453548        1.000000        0.00020792        0.00016085        0.00030685        0.00144422
      76         -0.452639        1.000000        0.00022199        0.00035353        0.00173104        0.00188322
      77         -0.447653        1.000000        0.00010312        0.00021934        0.00101681        0.00116445
      78         -0.445364        1.000000        0.00017538        0.00010180        0.00153993        0.00205659
      79         -0.442283        1.000000        0.00009546        0.00010721        0.00041675        0.00117885
      80         -0.412175        1.000000        0.00000096        0.33089858        0.20482884        0.00013365
      81         -0.410243        1.000000        0.00000210        0.16163706        0.27858048        0.10377877
      82         -0.408804        1.000000        0.00001371        0.39322158        0.13190891        0.00965423
      83         -0.407192        1.000000        0.00002948        0.06452203        0.44764826        0.02548712
      84         -0.406716        1.000000        0.00002826        0.05466022        0.25726293        0.22570842
      85         -0.406482        1.000000        0.00001181        0.13392603        0.40380343        0.00011176
      86         -0.404691        1.000000        0.00000197        0.50850121        0.00863863        0.00853232
      87         -0.404419        1.000000        0.00003925        0.45039229        0.03531296        0.05203787
      88         -0.404267        1.000000        0.00001771        0.47897855        0.02235877        0.03071372
      89         -0.402958        1.000000        0.00000138        0.18592884        0.34110430        0.00820658
      90         -0.402154        1.000000        0.00000262        0.33522657        0.14730157        0.04727664
      91         -0.401142        1.000000        0.00003451        0.00149892        0.40414934        0.12044936
      92         -0.397483        1.000000        0.00001878        0.00896381        0.31414730        0.20475789
      93         -0.395328        1.000000        0.00000203        0.51961061        0.00559468        0.00357401
      94         -0.318151        1.000000        0.00007392        0.00063519        0.00019021        0.00020173
      95         -0.291796        1.000000        0.00002709        0.00012413        0.00004151        0.00002879
      96         -0.280437        1.000000        0.00003476        0.00009679        0.00012677        0.00007815
      97         -0.276463        1.000000        0.00014772        0.00019349        0.00009953        0.00012796
      98         -0.275288        1.000000        0.00010650        0.00026884        0.00018163        0.00030490
      99         -0.273208        1.000000        0.00002473        0.00024375        0.00016796        0.00005088
     100         -0.270933        1.000000        0.00008657        0.00027111        0.00009425        0.00008296
     101         -0.269866        1.000000        0.00001739        0.00048836        0.00013674        0.00001549
     102         -0.267419        1.000000        0.00007428        0.00031054        0.00008671        0.00013888
     103         -0.265338        1.000000        0.00003559        0.00011954        0.00004822        0.00009048
     104         -0.263564        1.000000        0.00018840        0.00047138        0.00006088        0.00005200
     105         -0.261403        1.000000        0.00016476        0.00004487        0.00021715        0.00005845
     106         -0.260370        1.000000        0.00002360        0.00020078        0.00010987        0.00024660
     107         -0.258267        1.000000        0.00009817        0.00006986        0.00003673        0.00046299
     108         -0.256484        1.000000        0.00002826        0.00009611        0.00009817        0.00003564
     109         -0.255798        1.000000        0.00001694        0.00005341        0.00013646        0.00001969
     110         -0.250765        1.000000        0.00031564        0.00058291        0.00011059        0.00030037
     111         -0.248815        1.000000        0.00010156        0.00027143        0.00011596        0.00014186
     112         -0.246998        1.000000        0.00008776        0.00016488        0.00025108        0.00002665
     113         -0.245641        1.000000        0.00006923        0.00008074        0.00008901        0.00005295
     114         -0.243248        1.000000        0.00001794        0.00001167        0.00036634        0.00006427
     115         -0.240615        1.000000        0.00005758        0.00010456        0.00007820        0.00032774
     116         -0.238672        1.000000        0.00060538        0.00113726        0.00025762        0.00042166
     117         -0.237713        1.000000        0.00021905        0.00045888        0.00009685        0.00038640
     118         -0.236552        1.000000        0.00027481        0.00065978        0.00009071        0.00026738
     119         -0.236312        1.000000        0.00015061        0.00032686        0.00069858        0.00177858
     120         -0.234885        1.000000        0.00022188        0.00014295        0.00019754        0.00029829
     121         -0.232900        1.000000        0.00018027        0.00015383        0.00030899        0.00049662
     122         -0.230235        1.000000        0.00031831        0.00007500        0.00003754        0.00035313
     123         -0.227868        1.000000        0.00027407        0.00026526        0.00052052        0.00014294
     124         -0.226573        1.000000        0.00081919        0.00063302        0.00054102        0.00035365
     125         -0.224711        1.000000        0.00014809        0.00049277        0.00025597        0.00007795
     126         -0.223497        1.000000        0.00027890        0.00021031        0.00034659        0.00037975
     127         -0.223198        1.000000        0.00025254        0.00014588        0.00066648        0.00021112
     128         -0.219962        1.000000        0.00004306        0.00050223        0.00026389        0.00048757
     129         -0.218888        1.000000        0.00007820        0.00007340        0.00009366        0.00024244
     130         -0.216976        1.000000        0.00014208        0.00014520        0.00089784        0.00077004
     131         -0.214885        1.000000        0.00003782        0.00033496        0.00035806        0.00016292
     132         -0.213283        1.000000        0.00021165        0.00057606        0.00064660        0.00016464
     133         -0.212349        1.000000        0.00006667        0.00024163        0.00027197        0.00020585
     134         -0.211007        1.000000        0.00024436        0.00034678        0.00049696        0.00061227
     135         -0.210707        1.000000        0.00008964        0.00016556        0.00037417        0.00045899
     136         -0.209040        1.000000        0.00005691        0.00015029        0.00032751        0.00015048
     137         -0.208730        1.000000        0.00019501        0.00010010        0.00058538        0.00013756
     138         -0.207120        1.000000        0.00014539        0.00011398        0.00058614        0.00031100
     139         -0.206629        1.000000        0.00026138        0.00021602        0.00033027        0.00003911
     140         -0.205919        1.000000        0.00021836        0.00008340        0.00017662        0.00022166
     141         -0.203981        1.000000        0.00008343        0.00013019        0.00013215        0.00011539
     142         -0.203235        1.000000        0.00012051        0.00006003        0.00045967        0.00031258
     143         -0.201966        1.000000        0.00009305        0.00006041        0.00025585        0.00009942
     144         -0.201122        1.000000        0.00007024        0.00024961        0.00008974        0.00004691
     145         -0.200361        1.000000        0.00009187        0.00021056        0.00027621        0.00009414
     146         -0.199988        1.000000        0.00006379        0.00010796        0.00008136        0.00013571
     147         -0.199416        1.000000        0.00009133        0.00004484        0.00017797        0.00016711
     148         -0.197507        1.000000        0.00005191        0.00007324        0.00007889        0.00014398
     149         -0.195870        1.000000        0.00018594        0.00022204        0.00011034        0.00006284
     150         -0.195637        1.000000        0.00016135        0.00020229        0.00009417        0.00029211
     151         -0.194805        1.000000        0.00008014        0.00012166        0.00014535        0.00010413
     152         -0.194527        1.000000        0.00004107        0.00021737        0.00011944        0.00016066
     153         -0.194068        1.000000        0.00004081        0.00014898        0.00024510        0.00009462
     154         -0.193646        1.000000        0.00023872        0.00010094        0.00027741        0.00036837
     155         -0.192904        1.000000        0.00011611        0.00013555        0.00019231        0.00015337
     156         -0.192626        1.000000        0.00002219        0.00011961        0.00001824        0.00004539
     157         -0.192468        1.000000        0.00001926        0.00007267        0.00004434        0.00004626
     158         -0.191799        1.000000        0.00007544        0.00038441        0.00016096        0.00007082
     159         -0.191578        1.000000        0.00012346        0.00010660        0.00007605        0.00003627
     160         -0.191333        1.000000        0.00010726        0.00010060        0.00023018        0.00006647
     161         -0.190774        1.000000        0.00005576        0.00015783        0.00017564        0.00012967
     162         -0.190395        1.000000        0.00008899        0.00009539        0.00011694        0.00006191
     163         -0.190122        1.000000        0.00013031        0.00011528        0.00012054        0.00007619
     164         -0.189892        1.000000        0.00004064        0.00040905        0.00022129        0.00007040
     165         -0.189803        1.000000        0.00005649        0.00010259        0.00026525        0.00012569
     166         -0.189478        1.000000        0.00005674        0.00016628        0.00008247        0.00004744
     167         -0.189344        1.000000        0.00004287        0.00028485        0.00033758        0.00023099
     168         -0.188632        1.000000        0.00014577        0.00026451        0.00005412        0.00009169
     169         -0.187849        1.000000        0.00014224        0.00026231        0.00003600        0.00007801
     170         -0.187428        1.000000        0.00017340        0.00041348        0.00009837        0.00007770
     171         -0.187233        1.000000        0.00006920        0.00012896        0.00014933        0.00004503
     172         -0.186230        1.000000        0.00032566        0.00065465        0.00004864        0.00026435
     173         -0.185753        1.000000        0.00003490        0.00015223        0.00006060        0.00003390
     174         -0.185237        1.000000        0.00011011        0.00055701        0.00015260        0.00020975
     175         -0.185161        1.000000        0.00006848        0.00011480        0.00015125        0.00009506
     176         -0.184581        1.000000        0.00005688        0.00012254        0.00023915        0.00019881
     177         -0.184447        1.000000        0.00008019        0.00010537        0.00016330        0.00029597
     178         -0.183932        1.000000        0.00001501        0.00011207        0.00009408        0.00002590
     179         -0.183438        1.000000        0.00002034        0.00008446        0.00008915        0.00014726
     180         -0.183155        1.000000        0.00008565        0.00005032        0.00007877        0.00013488
     181         -0.182704        1.000000        0.00005825        0.00023117        0.00011909        0.00014062
     182         -0.182343        1.000000        0.00009532        0.00023864        0.00029077        0.00013018
     183         -0.181176        1.000000        0.00006290        0.00013893        0.00006977        0.00004688
     184         -0.181014        1.000000        0.00009203        0.00002410        0.00008431        0.00003267
     185         -0.180820        1.000000        0.00011274        0.00023966        0.00045332        0.00007493
     186         -0.180339        1.000000        0.00004844        0.00010594        0.00002461        0.00003813
     187         -0.179803        1.000000        0.00010477        0.00005856        0.00011112        0.00004885
     188         -0.179399        1.000000        0.00006463        0.00010605        0.00009510        0.00008060
     189         -0.179375        1.000000        0.00011059        0.00018038        0.00005224        0.00005328
     190         -0.179088        1.000000        0.00007424        0.00014161        0.00007384        0.00004886
     191         -0.178366        1.000000        0.00001253        0.00002925        0.00004183        0.00001857
     192         -0.178227        1.000000        0.00004166        0.00010068        0.00016565        0.00004057
     193         -0.177803        1.000000        0.00004672        0.00006166        0.00003168        0.00001536
     194         -0.177459        1.000000        0.00003982        0.00005375        0.00001592        0.00001324
     195         -0.176696        1.000000        0.00002199        0.00004601        0.00005963        0.00008562
     196         -0.176649        0.000000        0.00004429        0.00013805        0.00003761        0.00002300
     197         -0.175514        0.000000        0.00001254        0.00003573        0.00002670        0.00005095
     198         -0.172955        0.000000        0.00000982        0.00003608        0.00004077        0.00001345
     199         -0.171735        0.000000        0.00001160        0.00004867        0.00001163        0.00001718
     200         -0.170694        0.000000        0.00001541        0.00005159        0.00002166        0.00000714
     201         -0.167966        0.000000        0.00000746        0.00002203        0.00001995        0.00001162
     202         -0.062221        0.000000        0.00001565        0.00002581        0.00002973        0.00001078
     203         -0.054657        0.000000        0.00003861        0.00001817        0.00001853        0.00003052
     204         -0.053432        0.000000        0.00001341        0.00003320        0.00003634        0.00009185
     205         -0.047593        0.000000        0.00002309        0.00001189        0.00000423        0.00004363
     206         -0.047477        0.000000        0.00001126        0.00002626        0.00003584        0.00005389
     207         -0.045592        0.000000        0.00001188        0.00001407        0.00002762        0.00004603
     208         -0.042851        0.000000        0.00001174        0.00001928        0.00001127        0.00005495
     209         -0.039604        0.000000        0.00001246        0.00000481        0.00003772        0.00001256
     210         -0.039098        0.000000        0.00001301        0.00001357        0.00001363        0.00002712
     211         -0.037369        0.000000        0.00001964        0.00002917        0.00001257        0.00000445
     212         -0.036051        0.000000        0.00004210        0.00000953        0.00000296        0.00001660
     213         -0.032580        0.000000        0.00001335        0.00001199        0.00000480        0.00003175
     214         -0.031364        0.000000        0.00000588        0.00000374        0.00000728        0.00002219
     215         -0.029727        0.000000        0.00001565        0.00000613        0.00001638        0.00001277
     216         -0.023349        0.000000        0.00001566        0.00001873        0.00004352        0.00005179
     217         -0.023179        0.000000        0.00001693        0.00003495        0.00002680        0.00004203
     218         -0.017453        0.000000        0.00000283        0.00000462        0.00000216        0.00001013
     219         -0.016671        0.000000        0.00003175        0.00000540        0.00000190        0.00000946
     220         -0.015131        0.000000        0.00001352        0.00000737        0.00000487        0.00004447
     221         -0.012783        0.000000        0.00002457        0.00003052        0.00001111        0.00003084
     222         -0.010648        0.000000        0.00000245        0.00001019        0.00001425        0.00001073
     223         -0.005950        0.000000        0.00001701        0.00000148        0.00001719        0.00004047
     224         -0.004907        0.000000        0.00001478        0.00000524        0.00003076        0.00006122
     225         -0.003849        0.000000        0.00000993        0.00000818        0.00000752        0.00008625
     226          0.087820        0.000000        0.08245918        0.04848202        0.06066741        0.43547298
     227          0.093888        0.000000        0.08431915        0.00757934        0.00282090        0.53158776
     228          0.094707        0.000000        0.07800625        0.03936003        0.05839439        0.46119360
     229          0.102947        0.000000        0.08224197        0.00019827        0.26009515        0.28260921
     230          0.106539        0.000000        0.08126342        0.01289401        0.03601455        0.48440217
     231          0.108856        0.000000        0.07727317        0.00020173        0.12860531        0.42119735
     232          0.112653        0.000000        0.07799152        0.00007377        0.21356558        0.33535199
     233          0.167330        0.000000        0.00376587        0.00012950        0.00118962        0.00962919
     234          0.170720        0.000000        0.00508838        0.00075897        0.00241567        0.01268148
     235          0.183998        0.000000        0.00333661        0.00045937        0.00292861        0.00416794
     236          0.208541        0.000000        0.00300151        0.00224140        0.00000522        0.00545103
     237          0.276001        0.000000        0.00012532        0.00003725        0.00383589        0.00097777
     238          0.282916        0.000000        0.00000239        0.00326089        0.00163406        0.00002500
     239          0.288240        0.000000        0.00004443        0.00055651        0.00664342        0.00020109
     240          0.289375        0.000000        0.00003013        0.00147598        0.00253799        0.00122610
     241          0.290399        0.000000        0.00001192        0.00044823        0.00302010        0.00263065
     242          0.296017        0.000000        0.00001219        0.00419211        0.00229012        0.00038268
     243          0.298256        0.000000        0.00002132        0.00170948        0.00391972        0.00125162
     244          0.299972        0.000000        0.00000409        0.00013954        0.00452812        0.00247877
     245          0.304592        0.000000        0.00223269        0.00382604        0.00015192        0.00039765
     246          0.304744        0.000000        0.00110172        0.00558131        0.00033406        0.00029894
     247          0.307486        0.000000        0.00002460        0.00754758        0.00026483        0.00000136
     248          0.319053        0.000000        0.00484873        0.00000384        0.00002866        0.00000204
     249          0.325045        0.000000        0.00380271        0.00345555        0.00038878        0.00003722
     250          0.326505        0.000000        0.00364220        0.00398481        0.00029026        0.00001968
     251          0.328342        0.000000        0.00352720        0.00080686        0.00281561        0.00028413
     252          0.345697        0.000000        0.00507539        0.00034336        0.00015175        0.00000966
     253          0.347447        0.000000        0.00603895        0.00000841        0.00001216        0.00010324
     254          0.454029        0.000000        0.00001583        0.05099427        0.26754077        0.07085101
     255          0.455547        0.000000        0.00066816        0.28699795        0.09974453        0.00305476
     256          0.457137        0.000000        0.00025918        0.09733541        0.28721671        0.00684802
     257          0.458265        0.000000        0.00015348        0.32659799        0.06161542        0.00575689
     258          0.458352        0.000000        0.00048224        0.36021080        0.01943113        0.01334398
     259          0.458458        0.000000        0.00044558        0.36599930        0.02142937        0.00400962