# Projected DOS for atomic kind I at iteration step i = 0, E(Fermi) =    -0.176696 a.u.
#     MO Eigenvalue [a.u.]      Occupation                 s                py                pz                px
       1         -0.963976        1.000000        0.00001576        0.00008005        0.00008060        0.00000769
       2         -0.953695        1.000000        0.00005066        0.00021005        0.00008659        0.00009375
       3         -0.952868        1.000000        0.00011432        0.00022330        0.00032682        0.00007296
       4         -0.951524        1.000000        0.00005580        0.00007810        0.00024758        0.00007374
       5         -0.949118        1.000000        0.00005377        0.00019215        0.00014012        0.00007764
       6         -0.938078        1.000000        0.00019342        0.00046358        0.00038382        0.00023471
       7         -0.931984        1.000000        0.00016228        0.00046873        0.00014491        0.00022177
       8         -0.699202        1.000000        0.00035845        0.00016329        0.00021227        0.00007049
       9         -0.693853        1.000000        0.00043946        0.00005144        0.00022453        0.00005036
      10         -0.692470        1.000000        0.00106933        0.00018447        0.00014140        0.00036384
      11         -0.690457        1.000000        0.00099733        0.00022870        0.00022695        0.00007751
      12         -0.689610        1.000000        0.00057402        0.00026575        0.00008566        0.00024629
      13         -0.685594        1.000000        0.00251043        0.00049813        0.00056635        0.00038954
      14         -0.679930        1.000000        0.00137345        0.00027731        0.00021188        0.00014545
      15         -0.639651        1.000000        0.95048605        0.00157339        0.01522510        0.01629001
      16         -0.620652        1.000000        0.94549549        0.00623365        0.00779624        0.00153148
      17         -0.600923        1.000000        0.90615558        0.00181224        0.00721008        0.00702381
      18         -0.598263        1.000000        0.80729536        0.00502013        0.00466645        0.00613927
      19         -0.592654        1.000000        0.31356608        0.00180927        0.00178840        0.00139652
      20         -0.592257        1.000000        0.71390035        0.00483990        0.00364753        0.00366443
      21         -0.591003        1.000000        0.78264143        0.00287996        0.00450454        0.00311894
      22         -0.590572        1.000000        0.68486821        0.00217991        0.00338400        0.00255338
      23         -0.589513        1.000000        0.77506183        0.00465176        0.00370191        0.00507358
      24         -0.586869        1.000000        0.73460324        0.00292602        0.00419650        0.00297953
      25         -0.585107        1.000000        0.75759793        0.00266198        0.00228613        0.00295364
      26         -0.581515        1.000000        0.50268698        0.00309747        0.00359010        0.00258740
      27         -0.580444        1.000000        0.29781661        0.00280998        0.00227197        0.00191223
      28         -0.579569        1.000000        0.40686140        0.00235005        0.00303478        0.00146027
      29         -0.579063        1.000000        0.71711543        0.00296048        0.00485249        0.00306342
      30         -0.578153        1.000000        0.73102255        0.00437612        0.00461490        0.00385280
      31         -0.577713        1.000000        0.68842068        0.00322324        0.00383384        0.00197100
      32         -0.577326        1.000000        0.38371306        0.00182762        0.00167385        0.00096257
      33         -0.575781        1.000000        0.31683603        0.00242597        0.00181196        0.00150774
      34         -0.575491        1.000000        0.53802370        0.00352039        0.00230662        0.00234422
      35         -0.573937        1.000000        0.76264855        0.00204326        0.00266814        0.00159695
      36         -0.572293        1.000000        0.81466813        0.00172391        0.00436764        0.00136672
      37         -0.572062        1.000000        0.83085905        0.00111105        0.00206989        0.00168961
      38         -0.571897        1.000000        0.69107634        0.00267055        0.00239111        0.00387599
      39         -0.570485        1.000000        0.78149707        0.00406745        0.00255112        0.00214361
      40         -0.570152        1.000000        0.83103024        0.00357924        0.00282273        0.00140080
      41         -0.569206        1.000000        0.66380322        0.00223894        0.00273915        0.00353374
      42         -0.568450        1.000000        0.21750771        0.00303140        0.00054693        0.00077849
      43         -0.567887        1.000000        0.86839828        0.00446738        0.00050830        0.00077581
      44         -0.566822        1.000000        0.52284496        0.00232630        0.00063337        0.00194895
      45         -0.566156        1.000000        0.34960481        0.00225099        0.00030824        0.00125081
      46         -0.564826        1.000000        0.95502825        0.00031976        0.00163666        0.00049425
      47         -0.564578        1.000000        0.89295179        0.00129560        0.00050464        0.00111582
      48         -0.564353        1.000000        0.94123513        0.00128940        0.00018278        0.00090085
      49         -0.564004        1.000000        0.89245984        0.00210395        0.00333392        0.00074190
      50         -0.563270        1.000000        0.79144867        0.00279326        0.00052656        0.00214925
      51         -0.562291        1.000000        0.58198736        0.00139590        0.00193466        0.00081744
      52         -0.561660        1.000000        0.91344810        0.00185874        0.00050166        0.00057131
      53         -0.560425        1.000000        0.51957108        0.00073626        0.00067409        0.00152037
      54         -0.559290        1.000000        0.85074848        0.00064768        0.00089584        0.00112943
      55         -0.558796        1.000000        0.95955785        0.00032113        0.00063620        0.00216048
      56         -0.558732        1.000000        0.68457885        0.00126994        0.00117507        0.00028087
      57         -0.558394        1.000000        0.84180359        0.00083659        0.00126642        0.00066648
      58         -0.557063        1.000000        0.95659554        0.00093328        0.00126550        0.00018777
      59         -0.555347        1.000000        0.72552552        0.00149318        0.00057800        0.00020218
      60         -0.555059        1.000000        0.73111031        0.00088954        0.00104748        0.00017673
      61         -0.553642        1.000000        0.16007644        0.00163997        0.00141407        0.00119067
      62         -0.553196        1.000000        0.29265905        0.00202074        0.00040011        0.00101527
      63         -0.548422        1.000000        0.26759483        0.00042496        0.00126820        0.00055660
      64         -0.540525        1.000000        0.36721764        0.00140465        0.00143173        0.00115633
      65         -0.484884        1.000000        0.00105693        0.00043268        0.00053818        0.00027656
      66         -0.478142        1.000000        0.00187664        0.00054802        0.00111971        0.00022513
      67         -0.477240        1.000000        0.00182343        0.00116647        0.00067278        0.00140046
      68         -0.474490        1.000000        0.00193247        0.00105391        0.00061599        0.00066498
      69         -0.470926        1.000000        0.00182955        0.00131617        0.00150556        0.00031192
      70         -0.465005        1.000000        0.00583971        0.00330896        0.00415651        0.00301616
      71         -0.461577        1.000000        0.17475453        0.04533725        0.03917773        0.04662410
      72         -0.459841        1.000000        0.16632238        0.04403424        0.03897245        0.04019441
      73         -0.459378        1.000000        0.01149679        0.00462178        0.00358993        0.00370677
      74         -0.455745        1.000000        0.14335888        0.05455239        0.04499801        0.03668024
      75         -0.453548        1.000000        0.17532932        0.03152612        0.04035374        0.04429918
      76         -0.452639        1.000000        0.15236914        0.05142373        0.03295015        0.04003982
      77         -0.447653        1.000000        0.14063042        0.03213301        0.04010381        0.03813573
      78         -0.445364        1.000000        0.14495937        0.02989685        0.03212087        0.03742998
      79         -0.442283        1.000000        0.14966501        0.03156462        0.03435633        0.02698443
      80         -0.412175        1.000000        0.00182972        0.00166906        0.00213026        0.00082274
      81         -0.410243        1.000000        0.00119119        0.00164912        0.00151292        0.00026270
      82         -0.408804        1.000000        0.00034652        0.00043472        0.00074076        0.00028983
      83         -0.407192        1.000000        0.00115317        0.00152961        0.00140830        0.00036136
      84         -0.406716        1.000000        0.00043241        0.00153532        0.00052279        0.00101204
      85         -0.406482        1.000000        0.00075804        0.00156056        0.00132010        0.00030464
      86         -0.404691        1.000000        0.00142894        0.00286618        0.00237847        0.00257237
      87         -0.404419        1.000000        0.00103823        0.00231256        0.00153103        0.00110619
      88         -0.404267        1.000000        0.00098256        0.00267545        0.00127727        0.00135773
      89         -0.402958        1.000000        0.00042633        0.00069586        0.00045757        0.00127669
      90         -0.402154        1.000000        0.00138214        0.00155970        0.00065418        0.00252264
      91         -0.401142        1.000000        0.00108679        0.00168341        0.00152369        0.00381805
      92         -0.397483        1.000000        0.00053778        0.00081425        0.00019718        0.00067484
      93         -0.395328        1.000000        0.00138990        0.00254167        0.00022891        0.00070584
      94         -0.318151        1.000000        0.03193744        0.01405847        0.50587728        0.43189611
      95         -0.291796        1.000000        0.02088658        0.26746101        0.56994419        0.03372233
      96         -0.280437        1.000000        0.01214426        0.06184210        0.25747940        0.44465523
      97         -0.276463        1.000000        0.01429873        0.16638812        0.31541281        0.28237535
      98         -0.275288        1.000000        0.01083821        0.41536828        0.26995768        0.13823929
      99         -0.273208        1.000000        0.01309026        0.63447592        0.04066241        0.04093187
     100         -0.270933        1.000000        0.01171172        0.54725849        0.10334188        0.09678221
     101         -0.269866        1.000000        0.01355614        0.57491872        0.07363163        0.07210044
     102         -0.267419        1.000000        0.01387000        0.45156195        0.14168689        0.15632256
     103         -0.265338        1.000000        0.01417072        0.11017141        0.14893933        0.45618950
     104         -0.263564        1.000000        0.01999827        0.11229479        0.05274760        0.55164995
     105         -0.261403        1.000000        0.01686577        0.05961641        0.40895363        0.31213815
     106         -0.260370        1.000000        0.01683837        0.09430221        0.45323586        0.17894418
     107         -0.258267        1.000000        0.00545740        0.57841387        0.14252468        0.19253040
     108         -0.256484        1.000000        0.01771713        0.14192842        0.35764832        0.23783623
     109         -0.255798        1.000000        0.01994047        0.12074664        0.44425039        0.13938488
     110         -0.250765        1.000000        0.01948490        0.11912160        0.15220923        0.48257504
     111         -0.248815        1.000000        0.01676302        0.31336344        0.32396884        0.17360678
     112         -0.246998        1.000000        0.01702150        0.15351878        0.16854974        0.41605369
     113         -0.245641        1.000000        0.02002166        0.23734341        0.17644086        0.32727348
     114         -0.243248        1.000000        0.01777335        0.29889429        0.31045750        0.13591588
     115         -0.240615        1.000000        0.01662402        0.21289605        0.30212729        0.25783166
     116         -0.238672        1.000000        0.00807418        0.18883875        0.17440035        0.51906790
     117         -0.237713        1.000000        0.01402204        0.15263076        0.24621730        0.40190584
     118         -0.236552        1.000000        0.01067684        0.23081632        0.25290853        0.34088102
     119         -0.236312        1.000000        0.00617241        0.42095495        0.34525660        0.13323238
     120         -0.234885        1.000000        0.01426370        0.42936735        0.19476322        0.15717053
     121         -0.232900        1.000000        0.01235252        0.37074447        0.22708057        0.21642875
     122         -0.230235        1.000000        0.01142151        0.20266521        0.33614685        0.30900198
     123         -0.227868        1.000000        0.00478746        0.29909820        0.44919740        0.16339339
     124         -0.226573        1.000000        0.00322436        0.35616757        0.28643357        0.29411349
     125         -0.224711        1.000000        0.00537583        0.29151311        0.29299654        0.33437843
     126         -0.223497        1.000000        0.00461065        0.36516508        0.32113871        0.23564121
     127         -0.223198        1.000000        0.00426197        0.25616423        0.32211416        0.32956397
     128         -0.219962        1.000000        0.00621145        0.30042301        0.34974212        0.24299177
     129         -0.218888        1.000000        0.00274433        0.56787798        0.24061503        0.14565944
     130         -0.216976        1.000000        0.00129809        0.20011826        0.63558573        0.13136840
     131         -0.214885        1.000000        0.00301274        0.45087232        0.33810075        0.18014258
     132         -0.213283        1.000000        0.00106298        0.31311266        0.30556664        0.36088596
     133         -0.212349        1.000000        0.00287589        0.30133953        0.34751970        0.30774681
     134         -0.211007        1.000000        0.00145347        0.31818763        0.34772443        0.31488843
     135         -0.210707        1.000000        0.00214005        0.33400867        0.35855008        0.27179151
     136         -0.209040        1.000000        0.00098122        0.28045839        0.24994083        0.45472322
     137         -0.208730        1.000000        0.00145513        0.27308265        0.43034955        0.27494197
     138         -0.207120        1.000000        0.00116422        0.22324584        0.43845952        0.32069098
     139         -0.206629        1.000000        0.00070753        0.38332396        0.19405912        0.41021070
     140         -0.205919        1.000000        0.00185317        0.29197217        0.40981664        0.26787832
     141         -0.203981        1.000000        0.00122107        0.38169311        0.42724988        0.17403176
     142         -0.203235        1.000000        0.00087093        0.31863100        0.46366179        0.20550950
     143         -0.201966        1.000000        0.00112984        0.35223825        0.29441731        0.33784054
     144         -0.201122        1.000000        0.00062172        0.23069803        0.46502210        0.29481875
     145         -0.200361        1.000000        0.00063787        0.23192073        0.40161162        0.35610200
     146         -0.199988        1.000000        0.00059914        0.39519804        0.22062430        0.37286357
     147         -0.199416        1.000000        0.00091621        0.37034327        0.15694442        0.45175507
     148         -0.197507        1.000000        0.00154562        0.37564686        0.33491752        0.27065032
     149         -0.195870        1.000000        0.00067418        0.36847532        0.17811175        0.44620386
     150         -0.195637        1.000000        0.00171359        0.33192771        0.37989986        0.26874841
     151         -0.194805        1.000000        0.00090190        0.37394767        0.17678533        0.44014974
     152         -0.194527        1.000000        0.00173275        0.46234088        0.30320701        0.21933136
     153         -0.194068        1.000000        0.00120860        0.30894515        0.33729749        0.33727023
     154         -0.193646        1.000000        0.00133641        0.39782996        0.42326967        0.16402581
     155         -0.192904        1.000000        0.00060951        0.24407667        0.26493806        0.48213359
     156         -0.192626        1.000000        0.00110605        0.27142255        0.25249960        0.46098331
     157         -0.192468        1.000000        0.00059447        0.56511261        0.17686420        0.25408504
     158         -0.191799        1.000000        0.00085644        0.30388795        0.40269150        0.28258567
     159         -0.191578        1.000000        0.00077809        0.30588062        0.21491489        0.47333365
     160         -0.191333        1.000000        0.00039575        0.51920745        0.24874385        0.22694311
     161         -0.190774        1.000000        0.00116377        0.33663988        0.23557816        0.41829154
     162         -0.190395        1.000000        0.00084556        0.28612510        0.38767573        0.31438863
     163         -0.190122        1.000000        0.00069163        0.37051789        0.32377307        0.29610043
     164         -0.189892        1.000000        0.00041442        0.35223283        0.34215648        0.30123889
     165         -0.189803        1.000000        0.00057693        0.33227331        0.29684720        0.36564535
     166         -0.189478        1.000000        0.00067930        0.26771019        0.27583431        0.44855343
     167         -0.189344        1.000000        0.00145294        0.19990652        0.49465723        0.28564378
     168         -0.188632        1.000000        0.00075338        0.43161655        0.40958370        0.15217938
     169         -0.187849        1.000000        0.00044089        0.53992766        0.31769189        0.13560012
     170         -0.187428        1.000000        0.00152964        0.15497311        0.28415791        0.52783140
     171         -0.187233        1.000000        0.00097405        0.32383179        0.37654751        0.28420694
     172         -0.186230        1.000000        0.00157779        0.25141102        0.36564076        0.34588869
     173         -0.185753        1.000000        0.00088949        0.11171419        0.54325234        0.33373732
     174         -0.185237        1.000000        0.00121876        0.24231129        0.38313423        0.35292378
     175         -0.185161        1.000000        0.00097894        0.21482784        0.31723976        0.45759310
     176         -0.184581        1.000000        0.00055271        0.15544541        0.37706021        0.46042458
     177         -0.184447        1.000000        0.00108017        0.33034294        0.35166983        0.30840750
     178         -0.183932        1.000000        0.00049746        0.30723676        0.17312040        0.50915978
     179         -0.183438        1.000000        0.00125686        0.34324615        0.44979037        0.19220620
     180         -0.183155        1.000000        0.00109850        0.36113149        0.35797513        0.27320978
     181         -0.182704        1.000000        0.00084572        0.43822598        0.20341764        0.35204149
     182         -0.182343        1.000000        0.00123589        0.41507534        0.21258150        0.34461352
     183         -0.181176        1.000000        0.00098471        0.26187736        0.26616338        0.41762232
     184         -0.181014        1.000000        0.00026951        0.63142526        0.16473266        0.19802799
     185         -0.180820        1.000000        0.00052102        0.41874598        0.15379218        0.41728195
     186         -0.180339        1.000000        0.00050505        0.23759046        0.20430341        0.52102718
     187         -0.179803        1.000000        0.00071570        0.24108216        0.29896290        0.42623850
     188         -0.179399        1.000000        0.00051943        0.37597362        0.33837937        0.27138453
     189         -0.179375        1.000000        0.00026545        0.44229427        0.32448846        0.21744268
     190         -0.179088        1.000000        0.00117089        0.33604064        0.25186535        0.39478325
     191         -0.178366        1.000000        0.00071267        0.30974357        0.23686006        0.37772066
     192         -0.178227        1.000000        0.00072397        0.30626081        0.25413532        0.39918277
     193         -0.177803        1.000000        0.00020690        0.23485790        0.28798020        0.45724147
     194         -0.177459        1.000000        0.00049986        0.33868433        0.21396801        0.41712242
     195         -0.176696        1.000000        0.00073012        0.27111922        0.45915596        0.26011906
     196         -0.176649        0.000000        0.00349045        0.39669791        0.39137268        0.18614495
     197         -0.175514        0.000000        0.00041603        0.29045149        0.24198684        0.36913679
     198         -0.172955        0.000000        0.00019209        0.21104731        0.31098752        0.35350675
     199         -0.171735        0.000000        0.00027949        0.23498006        0.40583052        0.23693655
     200         -0.170694        0.000000        0.00077440        0.25461420        0.40642934        0.24431428
     201         -0.167966        0.000000        0.00838371        0.01584509        0.50478392        0.46759105
     202         -0.062221        0.000000        0.02017985        0.03155787        0.06775421        0.13767080
     203         -0.054657        0.000000        0.02564355        0.11914186        0.11289024        0.03752802
     204         -0.053432        0.000000        0.02758643        0.04394605        0.10697995        0.10756743
     205         -0.047593        0.000000        0.03028142        0.13491753        0.03286844        0.09023597
     206         -0.047477        0.000000        0.02829771        0.08144149        0.11066507        0.06916152
     207         -0.045592        0.000000        0.03015808        0.16266537        0.05895457        0.03978679
     208         -0.042851        0.000000        0.02517836        0.10532422        0.11301543        0.06236960
     209         -0.039604        0.000000        0.02343909        0.09020973        0.15422273        0.03598061
     210         -0.039098        0.000000        0.02007435        0.08471489        0.18215737        0.02060546
     211         -0.037369        0.000000        0.02436641        0.07361218        0.07026664        0.13706622
     212         -0.036051        0.000000        0.02459698        0.03707689        0.16801516        0.06920734
     213         -0.032580        0.000000        0.02427498        0.06958254        0.10875973        0.10284362
     214         -0.031364        0.000000        0.02439192        0.04239061        0.12569683        0.11200438
     215         -0.029727        0.000000        0.02368858        0.03452143        0.12301454        0.12497017
     216         -0.023349        0.000000        0.02413165        0.01849758        0.08497684        0.18337585
     217         -0.023179        0.000000        0.02054275        0.05743031        0.05104342        0.18047056
     218         -0.017453        0.000000        0.01900881        0.03972086        0.17549715        0.09044121
     219         -0.016671        0.000000        0.02069269        0.15404114        0.09457500        0.05368950
     220         -0.015131        0.000000        0.01651723        0.01163312        0.23219312        0.06025544
     221         -0.012783        0.000000        0.02177519        0.02605933        0.05131049        0.23041881
     222         -0.010648        0.000000        0.01367795        0.25631337        0.03794167        0.01844556
     223         -0.005950        0.000000        0.01396208        0.26519604        0.00766053        0.02995095
     224         -0.004907        0.000000        0.01511765        0.24493520        0.01475014        0.04571201
     225         -0.003849        0.000000        0.01626537        0.05996118        0.06195548        0.18087889
     226          0.087820        0.000000        0.00001646        0.00036434        0.00051069        0.00046931
     227          0.093888        0.000000        0.00003358        0.00028174        0.00100932        0.00021629
     228          0.094707        0.000000        0.00002431        0.00038199        0.00055102        0.00016139
     229          0.102947        0.000000        0.00007491        0.00054951        0.00076129        0.00120984
     230          0.106539        0.000000        0.00006183        0.00108966        0.00052142        0.00037371
     231          0.108856        0.000000        0.00016078        0.00081071        0.00222428        0.00136657
     232          0.112653        0.000000        0.00008957        0.00099738        0.00094659        0.00055396
     233          0.167330        0.000000        0.00000576        0.00034628        0.00064596        0.00070856
     234          0.170720        0.000000        0.00001382        0.00016628        0.00028354        0.00015348
     235          0.183998        0.000000        0.00001156        0.00024207        0.00017298        0.00011412
     236          0.208541        0.000000        0.00000727        0.00024809        0.00003798        0.00004041
     237          0.276001        0.000000        0.00006943        0.00137178        0.00133020        0.00045291
     238          0.282916        0.000000        0.00016363        0.00287079        0.00065099        0.00079859
     239          0.288240        0.000000        0.00035005        0.00059683        0.00551524        0.00122563
     240          0.289375        0.000000        0.00070612        0.00500674        0.00840495        0.00066284
     241          0.290399        0.000000        0.00048672        0.00190807        0.00024242        0.00191143
     242          0.296017        0.000000        0.00026430        0.00477094        0.00051711        0.00150641
     243          0.298256        0.000000        0.00025484        0.00567937        0.00220016        0.00205920
     244          0.299972        0.000000        0.00036167        0.00431776        0.00042130        0.00363232
     245          0.304592        0.000000        0.00030259        0.00545584        0.00218050        0.00097552
     246          0.304744        0.000000        0.00044195        0.00782172        0.00126534        0.00122392
     247          0.307486        0.000000        0.00078372        0.01311246        0.00008790        0.00257498
     248          0.319053        0.000000        0.00071483        0.00584911        0.00813715        0.00120378
     249          0.325045        0.000000        0.00047748        0.00245029        0.00338069        0.00197260
     250          0.326505        0.000000        0.00031787        0.00465760        0.00482015        0.00160327
     251          0.328342        0.000000        0.00031712        0.00562232        0.00199854        0.00188895
     252          0.345697        0.000000        0.00055949        0.01094421        0.00163728        0.00290325
     253          0.347447        0.000000        0.00083727        0.01166518        0.00056829        0.00455830
     254          0.454029        0.000000        0.00003315        0.00062453        0.00071312        0.00003547
     255          0.455547        0.000000        0.00001859        0.00025069        0.00024528        0.00004560
     256          0.457137        0.000000        0.00001660        0.00015075        0.00013593        0.00008543
     257          0.458265        0.000000        0.00000828        0.00009334        0.00007399        0.00016061
     258          0.458352        0.000000        0.00001758        0.00016563        0.00007176        0.00013285
     259          0.458458        0.000000        0.00000935        0.00011357        0.00011297        0.00029711