# Projected DOS for atomic kind I at iteration step i = 0, E(Fermi) =    -0.176270 a.u.
#     MO Eigenvalue [a.u.]      Occupation                 s                py                pz                px
       1         -0.963937        1.000000        0.00001572        0.00008006        0.00008061        0.00000770
       2         -0.953663        1.000000        0.00005058        0.00020999        0.00008655        0.00009371
       3         -0.952806        1.000000        0.00011421        0.00022321        0.00032677        0.00007291
       4         -0.951488        1.000000        0.00005564        0.00007806        0.00024750        0.00007369
       5         -0.949093        1.000000        0.00005371        0.00019211        0.00014017        0.00007761
       6         -0.938039        1.000000        0.00019301        0.00046330        0.00038386        0.00023468
       7         -0.931935        1.000000        0.00016215        0.00046839        0.00014490        0.00022171
       8         -0.699145        1.000000        0.00035452        0.00016327        0.00021195        0.00007034
       9         -0.693812        1.000000        0.00043288        0.00005141        0.00022421        0.00005024
      10         -0.692414        1.000000        0.00107575        0.00018511        0.00014189        0.00036494
      11         -0.690399        1.000000        0.00099180        0.00022887        0.00022752        0.00007754
      12         -0.689573        1.000000        0.00057370        0.00026568        0.00008568        0.00024606
      13         -0.685553        1.000000        0.00246361        0.00049743        0.00056593        0.00038914
      14         -0.679878        1.000000        0.00136414        0.00027699        0.00021167        0.00014527
      15         -0.639584        1.000000        0.95057496        0.00156918        0.01523431        0.01629264
      16         -0.620920        1.000000        0.94615746        0.00618321        0.00773370        0.00153267
      17         -0.599559        1.000000        0.88627613        0.00215411        0.00755463        0.00703123
      18         -0.597893        1.000000        0.82580079        0.00467207        0.00485288        0.00637464
      19         -0.592267        1.000000        0.16308874        0.00152882        0.00126902        0.00064351
      20         -0.591964        1.000000        0.71178767        0.00469204        0.00360745        0.00381354
      21         -0.590758        1.000000        0.87426745        0.00327361        0.00494926        0.00330794
      22         -0.589640        1.000000        0.71572905        0.00239932        0.00328215        0.00318176
      23         -0.589147        1.000000        0.76938356        0.00458174        0.00363465        0.00482237
      24         -0.586482        1.000000        0.73080725        0.00301027        0.00405907        0.00287221
      25         -0.584810        1.000000        0.76828877        0.00230440        0.00220381        0.00269594
      26         -0.581279        1.000000        0.52429894        0.00331939        0.00328834        0.00249150
      27         -0.580347        1.000000        0.30380450        0.00271075        0.00239081        0.00189688
      28         -0.579407        1.000000        0.42181663        0.00225621        0.00349740        0.00130104
      29         -0.578825        1.000000        0.66116089        0.00250661        0.00345276        0.00292767
      30         -0.578079        1.000000        0.67761538        0.00335063        0.00424492        0.00191604
      31         -0.577264        1.000000        0.26600298        0.00127175        0.00150290        0.00065926
      32         -0.575668        1.000000        0.19893472        0.00191181        0.00166464        0.00123416
      33         -0.575256        1.000000        0.68871710        0.00467381        0.00347176        0.00327721
      34         -0.574866        1.000000        0.79308581        0.00506970        0.00469084        0.00384431
      35         -0.573925        1.000000        0.80871638        0.00188896        0.00271186        0.00104342
      36         -0.572312        1.000000        0.75729560        0.00174169        0.00374435        0.00136905
      37         -0.571964        1.000000        0.83236041        0.00093754        0.00266418        0.00158394
      38         -0.571519        1.000000        0.71860144        0.00304880        0.00269270        0.00442064
      39         -0.570305        1.000000        0.88343509        0.00309136        0.00314538        0.00123522
      40         -0.570012        1.000000        0.70619301        0.00341684        0.00195506        0.00213520
      41         -0.568460        1.000000        0.64451279        0.00338888        0.00179970        0.00206643
      42         -0.568302        1.000000        0.41714600        0.00353432        0.00051166        0.00078919
      43         -0.568145        1.000000        0.74447802        0.00373918        0.00163873        0.00191837
      44         -0.566670        1.000000        0.36371783        0.00223698        0.00047970        0.00140051
      45         -0.565941        1.000000        0.49156098        0.00227794        0.00043612        0.00214508
      46         -0.563983        1.000000        0.84708084        0.00154038        0.00059854        0.00148860
      47         -0.563928        1.000000        0.89500703        0.00229060        0.00348763        0.00075321
      48         -0.562969        1.000000        0.82719242        0.00242116        0.00053139        0.00208440
      49         -0.561939        1.000000        0.53292998        0.00133635        0.00178316        0.00101194
      50         -0.561417        1.000000        0.95164725        0.00114791        0.00143599        0.00006623
      51         -0.560536        1.000000        0.66707098        0.00084505        0.00056860        0.00143099
      52         -0.560289        1.000000        0.89919366        0.00186396        0.00054174        0.00053065
      53         -0.559855        1.000000        0.82889265        0.00039746        0.00044302        0.00148730
      54         -0.558646        1.000000        0.77427113        0.00048366        0.00100734        0.00098872
      55         -0.557966        1.000000        0.72097433        0.00100922        0.00101533        0.00045562
      56         -0.557730        1.000000        0.90622944        0.00097848        0.00111869        0.00099957
      57         -0.557685        1.000000        0.95267725        0.00045320        0.00071493        0.00218147
      58         -0.556688        1.000000        0.95256893        0.00096503        0.00125486        0.00019215
      59         -0.555022        1.000000        0.71545159        0.00119936        0.00094570        0.00028800
      60         -0.554600        1.000000        0.77074332        0.00148462        0.00050162        0.00014032
      61         -0.553563        1.000000        0.18207270        0.00188816        0.00119579        0.00107868
      62         -0.553093        1.000000        0.30076656        0.00164808        0.00058900        0.00105360
      63         -0.548316        1.000000        0.27470897        0.00039342        0.00124733        0.00053683
      64         -0.540607        1.000000        0.36056152        0.00142585        0.00139604        0.00115198
      65         -0.484832        1.000000        0.00107814        0.00043184        0.00053718        0.00027475
      66         -0.478107        1.000000        0.00191608        0.00054662        0.00111259        0.00022317
      67         -0.477182        1.000000        0.00184523        0.00116670        0.00067424        0.00139515
      68         -0.474453        1.000000        0.00194282        0.00105159        0.00061116        0.00066013
      69         -0.470858        1.000000        0.00182354        0.00130338        0.00149780        0.00030261
      70         -0.464952        1.000000        0.00560601        0.00322353        0.00403733        0.00290224
      71         -0.461342        1.000000        0.17429159        0.04545929        0.03914850        0.04651748
      72         -0.459379        1.000000        0.03102079        0.00922560        0.00840180        0.00835017
      73         -0.459133        1.000000        0.14754004        0.03864837        0.03454495        0.03482542
      74         -0.455305        1.000000        0.14419268        0.05371760        0.04532462        0.03725346
      75         -0.452269        1.000000        0.15354473        0.05032827        0.03376262        0.04013681
      76         -0.451169        1.000000        0.17927261        0.03184629        0.03954915        0.04435047
      77         -0.446819        1.000000        0.14114015        0.03335725        0.03936548        0.03688576
      78         -0.445081        1.000000        0.14343670        0.03091721        0.03343068        0.03540318
      79         -0.442063        1.000000        0.15138032        0.02978440        0.03392148        0.02913898
      80         -0.412103        1.000000        0.00184850        0.00166845        0.00211982        0.00081765
      81         -0.410188        1.000000        0.00120697        0.00164984        0.00151021        0.00025495
      82         -0.408747        1.000000        0.00034727        0.00043416        0.00073521        0.00028911
      83         -0.407133        1.000000        0.00118406        0.00152400        0.00142550        0.00036464
      84         -0.406656        1.000000        0.00044069        0.00154402        0.00052712        0.00102072
      85         -0.406439        1.000000        0.00077376        0.00155318        0.00130941        0.00030039
      86         -0.404633        1.000000        0.00145221        0.00291720        0.00239164        0.00252062
      87         -0.404360        1.000000        0.00105489        0.00229795        0.00152788        0.00114102
      88         -0.404210        1.000000        0.00099984        0.00263693        0.00126972        0.00136728
      89         -0.402917        1.000000        0.00042049        0.00068475        0.00045458        0.00127556
      90         -0.402110        1.000000        0.00139798        0.00156198        0.00065682        0.00250909
      91         -0.401106        1.000000        0.00110035        0.00168123        0.00152090        0.00380413
      92         -0.397428        1.000000        0.00054120        0.00081237        0.00019589        0.00067401
      93         -0.395268        1.000000        0.00138318        0.00253788        0.00022733        0.00070240
      94         -0.318014        1.000000        0.03199977        0.01396765        0.50696193        0.43127577
      95         -0.291566        1.000000        0.02086774        0.25746051        0.58167580        0.03112467
      96         -0.280035        1.000000        0.01218828        0.06338730        0.25987548        0.44188736
      97         -0.276422        1.000000        0.01363846        0.43572472        0.30892984        0.06728398
      98         -0.274716        1.000000        0.01077222        0.17182676        0.29184098        0.31884180
      99         -0.272235        1.000000        0.01424349        0.59478936        0.07363757        0.05140017
     100         -0.270202        1.000000        0.01179001        0.54829643        0.09601440        0.09612446
     101         -0.268677        1.000000        0.01233558        0.59170406        0.07003657        0.05888742
     102         -0.266617        1.000000        0.01389743        0.39332619        0.15787243        0.17879567
     103         -0.265020        1.000000        0.01388515        0.16647362        0.10268786        0.46148184
     104         -0.262610        1.000000        0.02030523        0.09744558        0.08561207        0.53352996
     105         -0.260906        1.000000        0.01624584        0.06685595        0.39295857        0.32283653
     106         -0.259857        1.000000        0.01634572        0.13493723        0.42929953        0.16916638
     107         -0.258058        1.000000        0.00696504        0.51940123        0.17393550        0.20117159
     108         -0.255373        1.000000        0.02032207        0.17799682        0.41981833        0.11897393
     109         -0.254831        1.000000        0.01516904        0.15613502        0.34074412        0.25617057
     110         -0.250003        1.000000        0.01969231        0.11426865        0.15027155        0.48537877
     111         -0.246795        1.000000        0.01898681        0.22952181        0.33198974        0.22186034
     112         -0.245301        1.000000        0.01695188        0.13766385        0.19217345        0.40742646
     113         -0.244162        1.000000        0.02032524        0.25460357        0.20868995        0.27273160
     114         -0.242266        1.000000        0.01772959        0.28670986        0.31724644        0.14021089
     115         -0.239023        1.000000        0.01316685        0.26855869        0.21129326        0.34418492
     116         -0.238110        1.000000        0.01434795        0.15505590        0.27914666        0.37537620
     117         -0.237287        1.000000        0.01247363        0.21766705        0.20281729        0.39974736
     118         -0.236266        1.000000        0.01084351        0.30837809        0.19593863        0.33057496
     119         -0.235603        1.000000        0.00771989        0.39369960        0.33840103        0.14396199
     120         -0.234242        1.000000        0.01316186        0.33585801        0.22535392        0.21820247
     121         -0.232340        1.000000        0.01227119        0.36428389        0.22598927        0.21919692
     122         -0.229915        1.000000        0.01092951        0.19380021        0.33516590        0.31705473
     123         -0.227296        1.000000        0.00463690        0.30957447        0.44511008        0.15834262
     124         -0.225953        1.000000        0.00350747        0.30712051        0.30248749        0.31184826
     125         -0.224537        1.000000        0.00435397        0.35389440        0.27056617        0.30852356
     126         -0.223182        1.000000        0.00536611        0.29536819        0.36247855        0.24288809
     127         -0.222710        1.000000        0.00433317        0.29525108        0.29681905        0.33621979
     128         -0.219579        1.000000        0.00621588        0.32860805        0.34431076        0.21884242
     129         -0.218606        1.000000        0.00307902        0.55671316        0.22100461        0.17336178
     130         -0.216369        1.000000        0.00139694        0.17007078        0.66734942        0.12822655
     131         -0.214857        1.000000        0.00312171        0.43805441        0.34247409        0.18898221
     132         -0.212721        1.000000        0.00100643        0.29023698        0.35343962        0.33378655
     133         -0.212519        1.000000        0.00262905        0.31273956        0.33882107        0.31087380
     134         -0.210876        1.000000        0.00194837        0.33401355        0.39200327        0.25407772
     135         -0.210337        1.000000        0.00183274        0.32971736        0.29079676        0.34373469
     136         -0.208666        1.000000        0.00103797        0.34259530        0.19728910        0.44264060
     137         -0.208182        1.000000        0.00184649        0.12629992        0.60202336        0.24854778
     138         -0.206983        1.000000        0.00111177        0.31434823        0.30762559        0.36023875
     139         -0.206046        1.000000        0.00058890        0.37907060        0.21378919        0.39307115
     140         -0.205745        1.000000        0.00167183        0.28500224        0.44371847        0.24588727
     141         -0.203639        1.000000        0.00122334        0.37209988        0.43322420        0.17699646
     142         -0.203103        1.000000        0.00102696        0.30554747        0.46110903        0.22102932
     143         -0.201832        1.000000        0.00101775        0.39806605        0.23441139        0.35292511
     144         -0.201340        1.000000        0.00073374        0.19223862        0.58168191        0.21666729
     145         -0.200056        1.000000        0.00090767        0.28088767        0.22632761        0.47300765
     146         -0.199877        1.000000        0.00070144        0.38975826        0.22253577        0.37424692
     147         -0.198805        1.000000        0.00071457        0.31836911        0.36037408        0.31118439
     148         -0.196607        1.000000        0.00184672        0.38482018        0.34237184        0.25476526
     149         -0.195952        1.000000        0.00109534        0.34453583        0.16516431        0.48111620
     150         -0.195314        1.000000        0.00134470        0.37466830        0.36044912        0.24792753
     151         -0.194618        1.000000        0.00161008        0.40111761        0.27025276        0.31152513
     152         -0.194331        1.000000        0.00094740        0.37196601        0.20705727        0.41064755
     153         -0.193860        1.000000        0.00110661        0.31352729        0.30570696        0.36532486
     154         -0.192984        1.000000        0.00155820        0.40194931        0.33243419        0.24616374
     155         -0.192557        1.000000        0.00095263        0.50208214        0.20247894        0.28727047
     156         -0.192118        1.000000        0.00081570        0.22825967        0.19137604        0.57020636
     157         -0.191738        1.000000        0.00066074        0.24136205        0.33084533        0.41224911
     158         -0.191149        1.000000        0.00096654        0.42761535        0.24644225        0.32018934
     159         -0.190932        1.000000        0.00082212        0.21938563        0.37394348        0.39737878
     160         -0.190506        1.000000        0.00118689        0.33553220        0.24888715        0.40363043
     161         -0.190059        1.000000        0.00058380        0.53292802        0.21289436        0.24756221
     162         -0.189630        1.000000        0.00100423        0.22974746        0.32832759        0.42874542
     163         -0.189312        1.000000        0.00143955        0.35238168        0.33298953        0.30167019
     164         -0.189142        1.000000        0.00055361        0.40481356        0.26775182        0.31668438
     165         -0.188918        1.000000        0.00122128        0.21403733        0.42722947        0.34430783
     166         -0.188818        1.000000        0.00082762        0.41874867        0.28173772        0.29319469
     167         -0.188545        1.000000        0.00026563        0.76914933        0.15567580        0.07358238
     168         -0.188104        1.000000        0.00026262        0.39898631        0.38684799        0.20995110
     169         -0.187757        1.000000        0.00058636        0.18227874        0.43442628        0.37343530
     170         -0.187234        1.000000        0.00111680        0.15669714        0.27265045        0.54816801
     171         -0.186973        1.000000        0.00075883        0.10193526        0.43848512        0.45318544
     172         -0.186672        1.000000        0.00060556        0.24696333        0.32454617        0.41966347
     173         -0.185618        1.000000        0.00170738        0.34320213        0.36522381        0.26054259
     174         -0.184962        1.000000        0.00121579        0.27416330        0.30640825        0.40373725
     175         -0.184673        1.000000        0.00118005        0.21427616        0.34498006        0.42411674
     176         -0.183819        1.000000        0.00082688        0.27960040        0.22792487        0.48291406
     177         -0.183457        1.000000        0.00064480        0.22189809        0.41524022        0.35846805
     178         -0.183356        1.000000        0.00113564        0.28075135        0.34827114        0.35629293
     179         -0.182906        1.000000        0.00114211        0.34902815        0.28250639        0.36103646
     180         -0.182700        1.000000        0.00154788        0.35233444        0.39285694        0.24443776
     181         -0.182176        1.000000        0.00118818        0.35375183        0.35659078        0.26345621
     182         -0.181920        1.000000        0.00040348        0.44476196        0.33098735        0.21929548
     183         -0.180989        1.000000        0.00040693        0.22611666        0.20158406        0.55497972
     184         -0.180628        1.000000        0.00037431        0.36875515        0.19464195        0.43295231
     185         -0.180219        1.000000        0.00076408        0.26082054        0.37781575        0.34772426
     186         -0.179966        1.000000        0.00063268        0.21781562        0.25974648        0.49796432
     187         -0.179621        1.000000        0.00085704        0.34681757        0.31292099        0.27852688
     188         -0.179136        1.000000        0.00092635        0.40392413        0.34937299        0.22102248
     189         -0.178753        1.000000        0.00083499        0.42321865        0.38259269        0.18622977
     190         -0.178078        1.000000        0.00047213        0.39505775        0.16181011        0.42787439
     191         -0.177822        1.000000        0.00030658        0.28987164        0.21754760        0.48249166
     192         -0.177665        1.000000        0.00054800        0.30020123        0.19598329        0.47777685
     193         -0.177030        1.000000        0.00016683        0.43929517        0.43365776        0.12308625
     194         -0.176270        1.000000        0.00059289        0.31007450        0.44135463        0.23515798
     195         -0.176105        0.000000        0.00330593        0.36383691        0.41233272        0.19332459
     196         -0.175218        0.000000        0.00094994        0.40543117        0.23385359        0.25855774
     197         -0.172859        0.000000        0.00031442        0.29617471        0.25426291        0.31461086
     198         -0.171601        0.000000        0.00051669        0.23785795        0.36360371        0.29349455
     199         -0.170368        0.000000        0.00076060        0.27432214        0.33602475        0.27406132
     200         -0.169876        0.000000        0.00066045        0.22026052        0.29832835        0.34770657
     201         -0.167678        0.000000        0.00801094        0.02342771        0.47269132        0.48616036
     202         -0.062285        0.000000        0.02006670        0.03161683        0.06759815        0.13727471
     203         -0.053471        0.000000        0.02568130        0.11849261        0.11131892        0.04184711
     204         -0.052845        0.000000        0.02776989        0.05100551        0.10190579        0.10709722
     205         -0.047249        0.000000        0.03032062        0.15106744        0.05062977        0.05809959
     206         -0.047000        0.000000        0.02792259        0.07842664        0.09446850        0.09085738
     207         -0.045403        0.000000        0.03007346        0.15380315        0.06286220        0.04495922
     208         -0.042505        0.000000        0.02504086        0.10463631        0.11706234        0.06154071
     209         -0.039013        0.000000        0.02487637        0.10270527        0.13999631        0.03534366
     210         -0.038488        0.000000        0.01913171        0.07592757        0.19881069        0.01732210
     211         -0.036886        0.000000        0.02404856        0.06995328        0.07016349        0.14379871
     212         -0.035974        0.000000        0.02465890        0.03920272        0.16566350        0.06944535
     213         -0.031825        0.000000        0.02401132        0.06602337        0.09292509        0.12475736
     214         -0.030321        0.000000        0.02431992        0.03887735        0.11043119        0.13322435
     215         -0.028273        0.000000        0.02257248        0.04285204        0.15993926        0.09081557
     216         -0.022965        0.000000        0.02486384        0.01149233        0.08985469        0.18643438
     217         -0.021827        0.000000        0.01963906        0.06982557        0.04286158        0.18225644
     218         -0.016972        0.000000        0.01814200        0.01618683        0.21018534        0.08081850
     219         -0.015284        0.000000        0.02105685        0.16190172        0.07103120        0.07488645
     220         -0.014886        0.000000        0.01682495        0.02295593        0.22396071        0.05593995
     221         -0.012213        0.000000        0.02166742        0.03246835        0.04629345        0.23166124
     222         -0.010589        0.000000        0.01379964        0.25294543        0.03875295        0.02025450
     223         -0.005193        0.000000        0.01426565        0.24345059        0.00872169        0.05616861
     224         -0.004408        0.000000        0.01507075        0.20859569        0.02745857        0.07002747
     225         -0.003717        0.000000        0.01584477        0.12789677        0.04715232        0.12897905
     226          0.087864        0.000000        0.00001650        0.00036434        0.00051230        0.00047086
     227          0.093917        0.000000        0.00003363        0.00028271        0.00101319        0.00021772
     228          0.094770        0.000000        0.00002436        0.00038213        0.00055305        0.00016626
     229          0.102985        0.000000        0.00007535        0.00054742        0.00074990        0.00121032
     230          0.106566        0.000000        0.00006186        0.00108901        0.00052278        0.00037479
     231          0.108891        0.000000        0.00016135        0.00081039        0.00223342        0.00136777
     232          0.112691        0.000000        0.00008973        0.00099767        0.00095043        0.00055536
     233          0.167402        0.000000        0.00000578        0.00034425        0.00064580        0.00070494
     234          0.170757        0.000000        0.00001388        0.00016601        0.00028481        0.00015452
     235          0.184073        0.000000        0.00001155        0.00024359        0.00017175        0.00011451
     236          0.208581        0.000000        0.00000726        0.00025083        0.00003762        0.00004076
     237          0.276047        0.000000        0.00007014        0.00137893        0.00133762        0.00045701
     238          0.283009        0.000000        0.00016362        0.00286817        0.00065194        0.00079801
     239          0.288298        0.000000        0.00035057        0.00059930        0.00553626        0.00122822
     240          0.289440        0.000000        0.00070748        0.00501063        0.00841443        0.00066251
     241          0.290441        0.000000        0.00048650        0.00191073        0.00024733        0.00191403
     242          0.296050        0.000000        0.00026517        0.00475471        0.00051436        0.00151508
     243          0.298288        0.000000        0.00025359        0.00566229        0.00221694        0.00205949
     244          0.300019        0.000000        0.00036166        0.00432427        0.00042316        0.00363255
     245          0.304636        0.000000        0.00027425        0.00498994        0.00239394        0.00091132
     246          0.304802        0.000000        0.00047137        0.00828453        0.00106109        0.00129249
     247          0.307556        0.000000        0.00078196        0.01309282        0.00008949        0.00257656
     248          0.319133        0.000000        0.00071458        0.00584655        0.00812927        0.00120422
     249          0.325090        0.000000        0.00047687        0.00247394        0.00334651        0.00197035
     250          0.326557        0.000000        0.00031947        0.00463651        0.00487342        0.00161089
     251          0.328385        0.000000        0.00031768        0.00560705        0.00200495        0.00189521
     252          0.345739        0.000000        0.00055948        0.01094438        0.00164253        0.00290486
     253          0.347511        0.000000        0.00083678        0.01166655        0.00056846        0.00456048
     254          0.454076        0.000000        0.00003327        0.00062427        0.00071497        0.00003588
     255          0.455581        0.000000        0.00001860        0.00025129        0.00024572        0.00004572
     256          0.457192        0.000000        0.00001665        0.00015053        0.00013694        0.00008565
     257          0.458330        0.000000        0.00000825        0.00009385        0.00007384        0.00016053
     258          0.458406        0.000000        0.00001758        0.00016611        0.00007119        0.00013202
     259          0.458522        0.000000        0.00000933        0.00011303        0.00011289        0.00029799