# Projected DOS for atomic kind H at iteration step i = 0, E(Fermi) =    -0.176696 a.u.
#     MO Eigenvalue [a.u.]      Occupation                 s
       1         -0.963976        1.000000        0.27181476
       2         -0.953695        1.000000        0.26966834
       3         -0.952868        1.000000        0.28250233
       4         -0.951524        1.000000        0.27286777
       5         -0.949118        1.000000        0.26778780
       6         -0.938078        1.000000        0.28042434
       7         -0.931984        1.000000        0.27863861
       8         -0.699202        1.000000        0.33538987
       9         -0.693853        1.000000        0.34220372
      10         -0.692470        1.000000        0.33958686
      11         -0.690457        1.000000        0.33902597
      12         -0.689610        1.000000        0.34071478
      13         -0.685594        1.000000        0.34839463
      14         -0.679930        1.000000        0.34707782
      15         -0.639651        1.000000        0.00586766
      16         -0.620652        1.000000        0.00098581
      17         -0.600923        1.000000        0.00632877
      18         -0.598263        1.000000        0.02319908
      19         -0.592654        1.000000        0.21513568
      20         -0.592257        1.000000        0.07696614
      21         -0.591003        1.000000        0.05701464
      22         -0.590572        1.000000        0.08724619
      23         -0.589513        1.000000        0.04360052
      24         -0.586869        1.000000        0.07141736
      25         -0.585107        1.000000        0.06324031
      26         -0.581515        1.000000        0.14573949
      27         -0.580444        1.000000        0.22675318
      28         -0.579569        1.000000        0.18366547
      29         -0.579063        1.000000        0.06725721
      30         -0.578153        1.000000        0.05010342
      31         -0.577713        1.000000        0.07482662
      32         -0.577326        1.000000        0.19140611
      33         -0.575781        1.000000        0.21739460
      34         -0.575491        1.000000        0.13910585
      35         -0.573937        1.000000        0.05802332
      36         -0.572293        1.000000        0.04483547
      37         -0.572062        1.000000        0.03612812
      38         -0.571897        1.000000        0.07320539
      39         -0.570485        1.000000        0.05831377
      40         -0.570152        1.000000        0.04468864
      41         -0.569206        1.000000        0.07945253
      42         -0.568450        1.000000        0.25289006
      43         -0.567887        1.000000        0.03480225
      44         -0.566822        1.000000        0.14664346
      45         -0.566156        1.000000        0.20605982
      46         -0.564826        1.000000        0.00048936
      47         -0.564578        1.000000        0.02165712
      48         -0.564353        1.000000        0.00644249
      49         -0.564004        1.000000        0.01160088
      50         -0.563270        1.000000        0.05699353
      51         -0.562291        1.000000        0.12604622
      52         -0.561660        1.000000        0.01827919
      53         -0.560425        1.000000        0.13881403
      54         -0.559290        1.000000        0.03825481
      55         -0.558796        1.000000        0.00484426
      56         -0.558732        1.000000        0.09167840
      57         -0.558394        1.000000        0.03947137
      58         -0.557063        1.000000        0.00381359
      59         -0.555347        1.000000        0.07486312
      60         -0.555059        1.000000        0.07508673
      61         -0.553642        1.000000        0.26592834
      62         -0.553196        1.000000        0.21975006
      63         -0.548422        1.000000        0.22776543
      64         -0.540525        1.000000        0.18479677
      65         -0.484884        1.000000        0.18946668
      66         -0.478142        1.000000        0.18520817
      67         -0.477240        1.000000        0.18923908
      68         -0.474490        1.000000        0.19018214
      69         -0.470926        1.000000        0.18012272
      70         -0.465005        1.000000        0.17149576
      71         -0.461577        1.000000        0.00168878
      72         -0.459841        1.000000        0.00964387
      73         -0.459378        1.000000        0.16777565
      74         -0.455745        1.000000        0.00154715
      75         -0.453548        1.000000        0.00119634
      76         -0.452639        1.000000        0.00198134
      77         -0.447653        1.000000        0.00107957
      78         -0.445364        1.000000        0.00165714
      79         -0.442283        1.000000        0.00073838
      80         -0.412175        1.000000        0.42118229
      81         -0.410243        1.000000        0.41744116
      82         -0.408804        1.000000        0.42341559
      83         -0.407192        1.000000        0.42217850
      84         -0.406716        1.000000        0.42206809
      85         -0.406482        1.000000        0.41987901
      86         -0.404691        1.000000        0.42289468
      87         -0.404419        1.000000        0.41993870
      88         -0.404267        1.000000        0.42231774
      89         -0.402958        1.000000        0.42219386
      90         -0.402154        1.000000        0.42219450
      91         -0.401142        1.000000        0.42240859
      92         -0.397483        1.000000        0.42619852
      93         -0.395328        1.000000        0.42312777
      94         -0.318151        1.000000        0.00046648
      95         -0.291796        1.000000        0.00013137
      96         -0.280437        1.000000        0.00047259
      97         -0.276463        1.000000        0.00028466
      98         -0.275288        1.000000        0.00064813
      99         -0.273208        1.000000        0.00021509
     100         -0.270933        1.000000        0.00022808
     101         -0.269866        1.000000        0.00039073
     102         -0.267419        1.000000        0.00048441
     103         -0.265338        1.000000        0.00027310
     104         -0.263564        1.000000        0.00028028
     105         -0.261403        1.000000        0.00023213
     106         -0.260370        1.000000        0.00037663
     107         -0.258267        1.000000        0.00097755
     108         -0.256484        1.000000        0.00016709
     109         -0.255798        1.000000        0.00016295
     110         -0.250765        1.000000        0.00042910
     111         -0.248815        1.000000        0.00034255
     112         -0.246998        1.000000        0.00029916
     113         -0.245641        1.000000        0.00013491
     114         -0.243248        1.000000        0.00051409
     115         -0.240615        1.000000        0.00041090
     116         -0.238672        1.000000        0.00083491
     117         -0.237713        1.000000        0.00041602
     118         -0.236552        1.000000        0.00053507
     119         -0.236312        1.000000        0.00236847
     120         -0.234885        1.000000        0.00051968
     121         -0.232900        1.000000        0.00066567
     122         -0.230235        1.000000        0.00055098
     123         -0.227868        1.000000        0.00084979
     124         -0.226573        1.000000        0.00077186
     125         -0.224711        1.000000        0.00048023
     126         -0.223497        1.000000        0.00136819
     127         -0.223198        1.000000        0.00068114
     128         -0.219962        1.000000        0.00133035
     129         -0.218888        1.000000        0.00136583
     130         -0.216976        1.000000        0.00170578
     131         -0.214885        1.000000        0.00112467
     132         -0.213283        1.000000        0.00101547
     133         -0.212349        1.000000        0.00103297
     134         -0.211007        1.000000        0.00156795
     135         -0.210707        1.000000        0.00163724
     136         -0.209040        1.000000        0.00034784
     137         -0.208730        1.000000        0.00099640
     138         -0.207120        1.000000        0.00105698
     139         -0.206629        1.000000        0.00068033
     140         -0.205919        1.000000        0.00046061
     141         -0.203981        1.000000        0.00053781
     142         -0.203235        1.000000        0.00142297
     143         -0.201966        1.000000        0.00050844
     144         -0.201122        1.000000        0.00042647
     145         -0.200361        1.000000        0.00053596
     146         -0.199988        1.000000        0.00043032
     147         -0.199416        1.000000        0.00031503
     148         -0.197507        1.000000        0.00118337
     149         -0.195870        1.000000        0.00046634
     150         -0.195637        1.000000        0.00125675
     151         -0.194805        1.000000        0.00062887
     152         -0.194527        1.000000        0.00128774
     153         -0.194068        1.000000        0.00085063
     154         -0.193646        1.000000        0.00054440
     155         -0.192904        1.000000        0.00034241
     156         -0.192626        1.000000        0.00085692
     157         -0.192468        1.000000        0.00023619
     158         -0.191799        1.000000        0.00058016
     159         -0.191578        1.000000        0.00021012
     160         -0.191333        1.000000        0.00032121
     161         -0.190774        1.000000        0.00108787
     162         -0.190395        1.000000        0.00058360
     163         -0.190122        1.000000        0.00038005
     164         -0.189892        1.000000        0.00029378
     165         -0.189803        1.000000        0.00026993
     166         -0.189478        1.000000        0.00029858
     167         -0.189344        1.000000        0.00095317
     168         -0.188632        1.000000        0.00021586
     169         -0.187849        1.000000        0.00024489
     170         -0.187428        1.000000        0.00051050
     171         -0.187233        1.000000        0.00048706
     172         -0.186230        1.000000        0.00063682
     173         -0.185753        1.000000        0.00052891
     174         -0.185237        1.000000        0.00066231
     175         -0.185161        1.000000        0.00073432
     176         -0.184581        1.000000        0.00020278
     177         -0.184447        1.000000        0.00066425
     178         -0.183932        1.000000        0.00033998
     179         -0.183438        1.000000        0.00031232
     180         -0.183155        1.000000        0.00015301
     181         -0.182704        1.000000        0.00032859
     182         -0.182343        1.000000        0.00038542
     183         -0.181176        1.000000        0.00028362
     184         -0.181014        1.000000        0.00018068
     185         -0.180820        1.000000        0.00013882
     186         -0.180339        1.000000        0.00013128
     187         -0.179803        1.000000        0.00015031
     188         -0.179399        1.000000        0.00023704
     189         -0.179375        1.000000        0.00021248
     190         -0.179088        1.000000        0.00014072
     191         -0.178366        1.000000        0.00008895
     192         -0.178227        1.000000        0.00013087
     193         -0.177803        1.000000        0.00010565
     194         -0.177459        1.000000        0.00010039
     195         -0.176696        1.000000        0.00024837
     196         -0.176649        0.000000        0.00014121
     197         -0.175514        0.000000        0.00011457
     198         -0.172955        0.000000        0.00015448
     199         -0.171735        0.000000        0.00010148
     200         -0.170694        0.000000        0.00006376
     201         -0.167966        0.000000        0.00007611
     202         -0.062221        0.000000        0.00010657
     203         -0.054657        0.000000        0.00006885
     204         -0.053432        0.000000        0.00063735
     205         -0.047593        0.000000        0.00041319
     206         -0.047477        0.000000        0.00034748
     207         -0.045592        0.000000        0.00023487
     208         -0.042851        0.000000        0.00024838
     209         -0.039604        0.000000        0.00018770
     210         -0.039098        0.000000        0.00013301
     211         -0.037369        0.000000        0.00011825
     212         -0.036051        0.000000        0.00012604
     213         -0.032580        0.000000        0.00011844
     214         -0.031364        0.000000        0.00015820
     215         -0.029727        0.000000        0.00008484
     216         -0.023349        0.000000        0.00032960
     217         -0.023179        0.000000        0.00010214
     218         -0.017453        0.000000        0.00020154
     219         -0.016671        0.000000        0.00007515
     220         -0.015131        0.000000        0.00017873
     221         -0.012783        0.000000        0.00013404
     222         -0.010648        0.000000        0.00021303
     223         -0.005950        0.000000        0.00033830
     224         -0.004907        0.000000        0.00042112
     225         -0.003849        0.000000        0.00060512
     226          0.087820        0.000000        0.01779835
     227          0.093888        0.000000        0.01249446
     228          0.094707        0.000000        0.00328886
     229          0.102947        0.000000        0.01352848
     230          0.106539        0.000000        0.02506245
     231          0.108856        0.000000        0.00447731
     232          0.112653        0.000000        0.00466325
     233          0.167330        0.000000        0.64953429
     234          0.170720        0.000000        0.64251712
     235          0.183998        0.000000        0.65211064
     236          0.208541        0.000000        0.65093689
     237          0.276001        0.000000        0.66126262
     238          0.282916        0.000000        0.65921497
     239          0.288240        0.000000        0.66716960
     240          0.289375        0.000000        0.66069620
     241          0.290399        0.000000        0.66665513
     242          0.296017        0.000000        0.66544306
     243          0.298256        0.000000        0.66466969
     244          0.299972        0.000000        0.66368803
     245          0.304592        0.000000        0.65054331
     246          0.304744        0.000000        0.65706433
     247          0.307486        0.000000        0.66372924
     248          0.319053        0.000000        0.63362266
     249          0.325045        0.000000        0.64357719
     250          0.326505        0.000000        0.64373753
     251          0.328342        0.000000        0.64333462
     252          0.345697        0.000000        0.63273816
     253          0.347447        0.000000        0.63019433
     254          0.454029        0.000000        0.58825751
     255          0.455547        0.000000        0.58695882
     256          0.457137        0.000000        0.58306066
     257          0.458265        0.000000        0.58783944
     258          0.458352        0.000000        0.58457201
     259          0.458458        0.000000        0.58801506
     260          0.463069        0.000000        0.58543338
     261          0.463246        0.000000        0.58319569
     262          0.464849        0.000000        0.58514015
     263          0.466988        0.000000        0.58189326
     264          0.469060        0.000000        0.58459689
     265          0.469593        0.000000        0.58013381
     266          0.470318        0.000000        0.57823634
     267          0.472290        0.000000        0.58211742
     268          0.556796        0.000000        0.55416512
     269          0.561431        0.000000        0.55298109
     270          0.563133        0.000000        0.55302977
     271          0.563436        0.000000        0.55242707
     272          0.563707        0.000000        0.55210200
     273          0.568152        0.000000        0.55175652
     274          0.573334        0.000000        0.55101788
