# Projected DOS for atomic kind C at iteration step i = 0, E(Fermi) =    -0.176270 a.u.
#     MO Eigenvalue [a.u.]      Occupation                 s                py                pz                px
       1         -0.963937        1.000000        0.05934274        0.00417166        0.00514550        0.03601838
       2         -0.953663        1.000000        0.06377392        0.00000746        0.02281568        0.02422234
       3         -0.952806        1.000000        0.05844696        0.00322696        0.00464249        0.03602953
       4         -0.951488        1.000000        0.06205757        0.00052429        0.00023809        0.04463826
       5         -0.949093        1.000000        0.06474437        0.00133402        0.00328831        0.04273177
       6         -0.938039        1.000000        0.06279008        0.00000271        0.01077710        0.03369259
       7         -0.931935        1.000000        0.06397366        0.00000382        0.01730266        0.02771593
       8         -0.699145        1.000000        0.43479217        0.00018103        0.00001240        0.00048121
       9         -0.693812        1.000000        0.43738274        0.00000906        0.00001953        0.00127417
      10         -0.692414        1.000000        0.43088436        0.00012876        0.00044177        0.00058599
      11         -0.690399        1.000000        0.44005554        0.00000848        0.00000060        0.00073838
      12         -0.689573        1.000000        0.42994624        0.00000393        0.00000062        0.00125839
      13         -0.685553        1.000000        0.43708870        0.00000027        0.00030106        0.00146897
      14         -0.679878        1.000000        0.43759108        0.00000119        0.00084277        0.00075675
      15         -0.639584        1.000000        0.00022882        0.00063422        0.00000509        0.00001724
      16         -0.620920        1.000000        0.00036131        0.00024933        0.00003074        0.00043785
      17         -0.599559        1.000000        0.00020706        0.00175206        0.00130853        0.00022076
      18         -0.597893        1.000000        0.00016228        0.00138483        0.00085904        0.00078952
      19         -0.592267        1.000000        0.00026346        0.00030774        0.03966716        0.00517264
      20         -0.591964        1.000000        0.00010406        0.00495838        0.00633117        0.00137137
      21         -0.590758        1.000000        0.00003728        0.00178977        0.00196906        0.00022988
      22         -0.589640        1.000000        0.00055693        0.00191818        0.00785080        0.00120106
      23         -0.589147        1.000000        0.00038476        0.00159816        0.00427966        0.00178795
      24         -0.586482        1.000000        0.00010293        0.00117427        0.00641780        0.00394876
      25         -0.584810        1.000000        0.00020788        0.00406786        0.00375524        0.00147033
      26         -0.581279        1.000000        0.00011581        0.01176090        0.01142216        0.00149662
      27         -0.580347        1.000000        0.00008480        0.02271680        0.01496388        0.00070651
      28         -0.579407        1.000000        0.00007051        0.00184952        0.02006202        0.00915761
      29         -0.578825        1.000000        0.00033891        0.01251970        0.00319353        0.00213915
      30         -0.578079        1.000000        0.00003072        0.00217864        0.00782972        0.00357703
      31         -0.577264        1.000000        0.00047860        0.03918244        0.00292665        0.00413772
      32         -0.575668        1.000000        0.00000933        0.03187522        0.01377723        0.00040417
      33         -0.575256        1.000000        0.00000909        0.00870736        0.00413855        0.00058392
      34         -0.574866        1.000000        0.00003485        0.00233786        0.00221062        0.00017166
      35         -0.573925        1.000000        0.00004978        0.00282493        0.00414585        0.00165668
      36         -0.572312        1.000000        0.00010337        0.00162633        0.00523026        0.00533858
      37         -0.571964        1.000000        0.00005964        0.00289998        0.00240701        0.00218505
      38         -0.571519        1.000000        0.00023544        0.00638437        0.00287413        0.00233000
      39         -0.570305        1.000000        0.00001565        0.00149059        0.00275242        0.00078061
      40         -0.570012        1.000000        0.00008620        0.00941352        0.00412816        0.00119757
      41         -0.568460        1.000000        0.00010874        0.01803516        0.00135048        0.00101186
      42         -0.568302        1.000000        0.00006924        0.03589347        0.00047346        0.00045080
      43         -0.568145        1.000000        0.00009334        0.01084573        0.00180162        0.00080306
      44         -0.566670        1.000000        0.00036809        0.03685100        0.00238261        0.00204734
      45         -0.565941        1.000000        0.00018925        0.02670427        0.00348855        0.00112170
      46         -0.563983        1.000000        0.00005902        0.00144487        0.00424884        0.00142924
      47         -0.563928        1.000000        0.00014536        0.00039469        0.00180092        0.00044351
      48         -0.562969        1.000000        0.00009128        0.00385884        0.00324303        0.00062745
      49         -0.561939        1.000000        0.00065805        0.00128960        0.02899575        0.00069174
      50         -0.561417        1.000000        0.00000141        0.00002139        0.00002223        0.00002609
      51         -0.560536        1.000000        0.00019655        0.00598189        0.01470855        0.00202173
      52         -0.560289        1.000000        0.00004441        0.00093381        0.00251446        0.00069386
      53         -0.559855        1.000000        0.00020710        0.00202707        0.00472248        0.00095941
      54         -0.558646        1.000000        0.00012225        0.00072852        0.01258650        0.00117941
      55         -0.557966        1.000000        0.00020178        0.00595006        0.01137885        0.00123697
      56         -0.557730        1.000000        0.00015463        0.00303935        0.00126295        0.00041046
      57         -0.557685        1.000000        0.00012008        0.00044350        0.00021835        0.00013468
      58         -0.556688        1.000000        0.00002476        0.00029773        0.00062216        0.00018740
      59         -0.555022        1.000000        0.00007447        0.01120825        0.00686405        0.00069170
      60         -0.554600        1.000000        0.00006041        0.00168943        0.01333626        0.00033108
      61         -0.553563        1.000000        0.00007778        0.01700504        0.02912592        0.01090866
      62         -0.553093        1.000000        0.00001942        0.03227423        0.01344992        0.00482154
      63         -0.548316        1.000000        0.00036882        0.00044021        0.02757441        0.02517659
      64         -0.540607        1.000000        0.00010297        0.04901699        0.00017928        0.00007589
      65         -0.484832        1.000000        0.03058167        0.02837699        0.03534745        0.27292514
      66         -0.478107        1.000000        0.02609310        0.00442959        0.00128806        0.33509607
      67         -0.477182        1.000000        0.02812302        0.00022656        0.15986185        0.17788684
      68         -0.474453        1.000000        0.02762661        0.01006785        0.02133713        0.30702384
      69         -0.470858        1.000000        0.02833875        0.02139266        0.03081435        0.28716629
      70         -0.464952        1.000000        0.02205751        0.00011077        0.07868924        0.25781878
      71         -0.461342        1.000000        0.00025474        0.00001797        0.00053574        0.00282862
      72         -0.459379        1.000000        0.01969679        0.00008752        0.11651070        0.16849452
      73         -0.459133        1.000000        0.00409516        0.00032275        0.02195909        0.03509180
      74         -0.455305        1.000000        0.00009669        0.00026556        0.00077110        0.00122538
      75         -0.452269        1.000000        0.00019648        0.00031830        0.00163936        0.00173229
      76         -0.451169        1.000000        0.00015030        0.00021049        0.00019705        0.00095823
      77         -0.446819        1.000000        0.00011393        0.00021656        0.00113747        0.00115699
      78         -0.445081        1.000000        0.00013862        0.00009667        0.00126383        0.00165565
      79         -0.442063        1.000000        0.00010684        0.00014092        0.00045114        0.00140287
      80         -0.412103        1.000000        0.00000097        0.33011511        0.20565724        0.00012304
      81         -0.410188        1.000000        0.00000207        0.16242643        0.27775663        0.10380343
      82         -0.408747        1.000000        0.00001370        0.39404252        0.13110337        0.00965745
      83         -0.407133        1.000000        0.00002900        0.06371729        0.44819502        0.02571700
      84         -0.406656        1.000000        0.00002764        0.05345924        0.25786405        0.22634178
      85         -0.406439        1.000000        0.00001156        0.13311785        0.40461280        0.00012544
      86         -0.404633        1.000000        0.00000190        0.50944942        0.00806882        0.00805526
      87         -0.404360        1.000000        0.00003783        0.45145617        0.03468535        0.05155282
      88         -0.404210        1.000000        0.00001767        0.47896126        0.02227474        0.03097104
      89         -0.402917        1.000000        0.00000142        0.17938866        0.34699666        0.00871653
      90         -0.402110        1.000000        0.00000246        0.34176870        0.14143727        0.04677662
      91         -0.401106        1.000000        0.00003424        0.00152492        0.40411253        0.12047360
      92         -0.397428        1.000000        0.00001899        0.00923275        0.31395679        0.20469416
      93         -0.395268        1.000000        0.00000206        0.51936675        0.00575904        0.00368269
      94         -0.318014        1.000000        0.00007427        0.00063504        0.00018907        0.00020138
      95         -0.291566        1.000000        0.00003370        0.00012962        0.00003988        0.00002894
      96         -0.280035        1.000000        0.00003864        0.00010056        0.00013543        0.00007174
      97         -0.276422        1.000000        0.00019531        0.00007857        0.00012638        0.00040182
      98         -0.274716        1.000000        0.00009323        0.00035591        0.00015472        0.00009515
      99         -0.272235        1.000000        0.00002013        0.00037936        0.00010494        0.00004938
     100         -0.270202        1.000000        0.00008739        0.00025709        0.00010305        0.00007440
     101         -0.268677        1.000000        0.00002886        0.00038866        0.00019740        0.00002605
     102         -0.266617        1.000000        0.00004191        0.00023529        0.00011717        0.00009860
     103         -0.265020        1.000000        0.00006146        0.00017332        0.00003018        0.00011615
     104         -0.262610        1.000000        0.00022824        0.00051100        0.00007683        0.00005788
     105         -0.260906        1.000000        0.00015616        0.00004959        0.00020964        0.00007907
     106         -0.259857        1.000000        0.00002415        0.00022154        0.00009420        0.00028451
     107         -0.258058        1.000000        0.00010120        0.00008627        0.00003083        0.00042090
     108         -0.255373        1.000000        0.00002805        0.00012466        0.00010256        0.00002088
     109         -0.254831        1.000000        0.00001451        0.00006658        0.00016721        0.00004677
     110         -0.250003        1.000000        0.00032652        0.00057162        0.00010567        0.00029843
     111         -0.246795        1.000000        0.00009620        0.00025110        0.00013233        0.00015002
     112         -0.245301        1.000000        0.00010507        0.00018235        0.00027840        0.00003680
     113         -0.244162        1.000000        0.00007838        0.00010916        0.00005417        0.00005695
     114         -0.242266        1.000000        0.00001960        0.00001581        0.00039826        0.00007463
     115         -0.239023        1.000000        0.00030309        0.00053025        0.00019046        0.00057811
     116         -0.238110        1.000000        0.00028204        0.00055872        0.00014950        0.00015960
     117         -0.237287        1.000000        0.00022091        0.00057634        0.00005358        0.00071976
     118         -0.236266        1.000000        0.00034243        0.00076733        0.00020228        0.00045917
     119         -0.235603        1.000000        0.00017731        0.00022119        0.00068558        0.00137601
     120         -0.234242        1.000000        0.00012012        0.00014853        0.00010414        0.00021360
     121         -0.232340        1.000000        0.00018130        0.00013193        0.00028650        0.00041625
     122         -0.229915        1.000000        0.00032673        0.00005945        0.00003020        0.00034033
     123         -0.227296        1.000000        0.00035141        0.00028743        0.00050004        0.00016064
     124         -0.225953        1.000000        0.00068281        0.00056467        0.00045819        0.00034995
     125         -0.224537        1.000000        0.00016609        0.00041888        0.00029275        0.00009487
     126         -0.223182        1.000000        0.00018492        0.00024761        0.00038939        0.00034287
     127         -0.222710        1.000000        0.00036220        0.00022641        0.00061897        0.00024493
     128         -0.219579        1.000000        0.00004654        0.00046241        0.00025971        0.00048389
     129         -0.218606        1.000000        0.00007934        0.00005392        0.00011635        0.00023364
     130         -0.216369        1.000000        0.00015135        0.00016766        0.00089388        0.00077591
     131         -0.214857        1.000000        0.00004105        0.00030716        0.00039441        0.00018902
     132         -0.212721        1.000000        0.00022359        0.00046180        0.00058473        0.00015667
     133         -0.212519        1.000000        0.00003923        0.00040930        0.00029878        0.00019170
     134         -0.210876        1.000000        0.00019800        0.00038419        0.00030860        0.00049535
     135         -0.210337        1.000000        0.00013643        0.00009526        0.00059550        0.00061998
     136         -0.208666        1.000000        0.00004200        0.00012879        0.00037173        0.00014954
     137         -0.208182        1.000000        0.00010304        0.00008853        0.00037387        0.00009489
     138         -0.206983        1.000000        0.00025447        0.00018702        0.00053058        0.00027882
     139         -0.206046        1.000000        0.00024587        0.00018314        0.00045992        0.00006222
     140         -0.205745        1.000000        0.00027863        0.00008041        0.00018183        0.00028656
     141         -0.203639        1.000000        0.00008483        0.00012757        0.00012532        0.00008171
     142         -0.203103        1.000000        0.00010936        0.00003687        0.00044922        0.00029333
     143         -0.201832        1.000000        0.00006645        0.00005736        0.00034865        0.00015684
     144         -0.201340        1.000000        0.00009474        0.00024703        0.00009442        0.00001704
     145         -0.200056        1.000000        0.00009652        0.00006776        0.00011536        0.00014895
     146         -0.199877        1.000000        0.00003350        0.00003191        0.00017655        0.00011119
     147         -0.198805        1.000000        0.00009261        0.00027480        0.00016059        0.00015038
     148         -0.196607        1.000000        0.00002843        0.00005166        0.00006126        0.00012144
     149         -0.195952        1.000000        0.00014889        0.00015183        0.00009535        0.00010053
     150         -0.195314        1.000000        0.00022581        0.00020649        0.00007909        0.00020209
     151         -0.194618        1.000000        0.00001146        0.00023384        0.00015067        0.00012752
     152         -0.194331        1.000000        0.00009042        0.00016076        0.00011244        0.00011413
     153         -0.193860        1.000000        0.00005218        0.00016742        0.00032139        0.00007791
     154         -0.192984        1.000000        0.00015157        0.00015886        0.00022023        0.00033065
     155         -0.192557        1.000000        0.00006103        0.00011952        0.00010462        0.00009998
     156         -0.192118        1.000000        0.00007353        0.00008791        0.00004190        0.00010039
     157         -0.191738        1.000000        0.00014786        0.00010662        0.00013611        0.00009878
     158         -0.191149        1.000000        0.00018898        0.00027294        0.00011644        0.00014766
     159         -0.190932        1.000000        0.00003437        0.00030242        0.00028952        0.00002150
     160         -0.190506        1.000000        0.00003613        0.00018106        0.00021719        0.00012892
     161         -0.190059        1.000000        0.00008515        0.00010615        0.00014658        0.00004013
     162         -0.189630        1.000000        0.00005099        0.00012166        0.00015787        0.00009774
     163         -0.189312        1.000000        0.00007338        0.00021506        0.00009476        0.00014382
     164         -0.189142        1.000000        0.00009522        0.00040261        0.00021048        0.00011628
     165         -0.188918        1.000000        0.00007926        0.00017940        0.00010000        0.00010352
     166         -0.188818        1.000000        0.00004207        0.00007164        0.00043779        0.00009731
     167         -0.188545        1.000000        0.00008520        0.00004112        0.00011799        0.00002373
     168         -0.188104        1.000000        0.00005584        0.00018986        0.00008305        0.00007581
     169         -0.187757        1.000000        0.00020332        0.00026768        0.00002977        0.00012282
     170         -0.187234        1.000000        0.00013655        0.00054554        0.00007618        0.00007066
     171         -0.186973        1.000000        0.00003867        0.00020347        0.00002320        0.00002138
     172         -0.186672        1.000000        0.00013403        0.00028889        0.00005557        0.00007866
     173         -0.185618        1.000000        0.00021267        0.00041878        0.00008489        0.00027977
     174         -0.184962        1.000000        0.00012408        0.00026325        0.00018505        0.00013323
     175         -0.184673        1.000000        0.00007633        0.00046310        0.00005742        0.00024169
     176         -0.183819        1.000000        0.00003020        0.00013211        0.00034953        0.00010779
     177         -0.183457        1.000000        0.00011740        0.00018881        0.00018149        0.00011875
     178         -0.183356        1.000000        0.00002871        0.00004853        0.00007418        0.00023013
     179         -0.182906        1.000000        0.00008712        0.00009372        0.00013492        0.00007840
     180         -0.182700        1.000000        0.00005449        0.00004419        0.00003047        0.00023268
     181         -0.182176        1.000000        0.00013959        0.00024782        0.00017388        0.00012106
     182         -0.181920        1.000000        0.00003257        0.00030034        0.00013613        0.00010530
     183         -0.180989        1.000000        0.00003742        0.00007083        0.00019128        0.00005482
     184         -0.180628        1.000000        0.00017465        0.00027386        0.00022384        0.00004447
     185         -0.180219        1.000000        0.00019126        0.00021516        0.00013104        0.00007939
     186         -0.179966        1.000000        0.00006953        0.00005851        0.00006554        0.00004274
     187         -0.179621        1.000000        0.00002479        0.00004239        0.00023910        0.00005088
     188         -0.179136        1.000000        0.00001823        0.00003596        0.00012217        0.00007883
     189         -0.178753        1.000000        0.00001500        0.00003683        0.00002147        0.00001323
     190         -0.178078        1.000000        0.00007928        0.00010170        0.00007711        0.00003258
     191         -0.177822        1.000000        0.00000732        0.00005130        0.00005714        0.00002470
     192         -0.177665        1.000000        0.00004953        0.00004487        0.00016422        0.00009000
     193         -0.177030        1.000000        0.00009174        0.00021056        0.00004449        0.00005295
     194         -0.176270        1.000000        0.00008105        0.00006581        0.00004092        0.00001146
     195         -0.176105        0.000000        0.00000600        0.00002422        0.00001771        0.00003735
     196         -0.175218        0.000000        0.00000689        0.00006142        0.00002994        0.00002625
     197         -0.172859        0.000000        0.00000940        0.00001818        0.00004438        0.00001665
     198         -0.171601        0.000000        0.00000952        0.00004242        0.00001238        0.00001048
     199         -0.170368        0.000000        0.00000904        0.00002282        0.00002515        0.00000380
     200         -0.169876        0.000000        0.00001089        0.00000613        0.00002049        0.00000127
     201         -0.167678        0.000000        0.00000883        0.00002253        0.00001753        0.00001094
     202         -0.062285        0.000000        0.00001563        0.00002592        0.00002998        0.00001049
     203         -0.053471        0.000000        0.00003554        0.00001626        0.00001765        0.00003074
     204         -0.052845        0.000000        0.00001789        0.00003633        0.00003900        0.00009310
     205         -0.047249        0.000000        0.00001944        0.00002736        0.00001886        0.00006168
     206         -0.047000        0.000000        0.00001355        0.00000960        0.00001814        0.00002596
     207         -0.045403        0.000000        0.00001323        0.00001379        0.00002819        0.00005495
     208         -0.042505        0.000000        0.00001174        0.00002035        0.00001033        0.00005655
     209         -0.039013        0.000000        0.00000822        0.00000362        0.00004172        0.00000929
     210         -0.038488        0.000000        0.00001547        0.00001496        0.00001169        0.00002694
     211         -0.036886        0.000000        0.00002048        0.00002912        0.00001026        0.00000516
     212         -0.035974        0.000000        0.00004316        0.00000991        0.00000280        0.00001773
     213         -0.031825        0.000000        0.00001562        0.00000984        0.00000580        0.00003386
     214         -0.030321        0.000000        0.00000557        0.00000247        0.00000947        0.00002266
     215         -0.028273        0.000000        0.00001271        0.00000848        0.00001542        0.00000849
     216         -0.022965        0.000000        0.00000745        0.00002135        0.00003822        0.00005525
     217         -0.021827        0.000000        0.00002636        0.00003264        0.00002962        0.00004112
     218         -0.016972        0.000000        0.00000623        0.00000422        0.00000241        0.00000748
     219         -0.015284        0.000000        0.00002058        0.00000366        0.00000248        0.00001622
     220         -0.014886        0.000000        0.00001997        0.00000832        0.00000426        0.00004258
     221         -0.012213        0.000000        0.00002475        0.00002874        0.00001154        0.00003076
     222         -0.010589        0.000000        0.00000220        0.00001014        0.00001394        0.00001091
     223         -0.005193        0.000000        0.00001327        0.00000299        0.00001524        0.00003180
     224         -0.004408        0.000000        0.00001499        0.00000453        0.00002881        0.00007960
     225         -0.003717        0.000000        0.00001357        0.00000739        0.00001190        0.00007650
     226          0.087864        0.000000        0.08246320        0.04848431        0.06067037        0.43550222
     227          0.093917        0.000000        0.08432561        0.00757096        0.00280567        0.53161761
     228          0.094770        0.000000        0.07800106        0.03936810        0.05841136        0.46120868
     229          0.102985        0.000000        0.08224616        0.00019808        0.26011011        0.28262874
     230          0.106566        0.000000        0.08126701        0.01289464        0.03601199        0.48442220
     231          0.108891        0.000000        0.07727321        0.00020142        0.12861030        0.42119949
     232          0.112691        0.000000        0.07799421        0.00007381        0.21356705        0.33535798
     233          0.167402        0.000000        0.00376301        0.00012911        0.00118820        0.00961781
     234          0.170757        0.000000        0.00508564        0.00075855        0.00241492        0.01267514
     235          0.184073        0.000000        0.00333460        0.00045903        0.00292408        0.00416396
     236          0.208581        0.000000        0.00300043        0.00224132        0.00000524        0.00544979
     237          0.276047        0.000000        0.00012445        0.00003688        0.00383459        0.00097794
     238          0.283009        0.000000        0.00000241        0.00325834        0.00163631        0.00002487
     239          0.288298        0.000000        0.00004388        0.00055485        0.00664362        0.00020109
     240          0.289440        0.000000        0.00002992        0.00147810        0.00254065        0.00122607
     241          0.290441        0.000000        0.00001186        0.00044698        0.00301851        0.00263012
     242          0.296050        0.000000        0.00001248        0.00416614        0.00230622        0.00038823
     243          0.298288        0.000000        0.00002114        0.00172771        0.00390653        0.00124668
     244          0.300019        0.000000        0.00000413        0.00013950        0.00452762        0.00247837
     245          0.304636        0.000000        0.00247157        0.00341620        0.00011504        0.00041701
     246          0.304802        0.000000        0.00086254        0.00599308        0.00036827        0.00027713
     247          0.307556        0.000000        0.00002478        0.00754675        0.00026474        0.00000134
     248          0.319133        0.000000        0.00484893        0.00000384        0.00002809        0.00000202
     249          0.325090        0.000000        0.00379980        0.00345779        0.00038406        0.00003717
     250          0.326557        0.000000        0.00364381        0.00398283        0.00029206        0.00001936
     251          0.328385        0.000000        0.00352701        0.00081313        0.00281035        0.00028372
     252          0.345739        0.000000        0.00507403        0.00034327        0.00015030        0.00000973
     253          0.347511        0.000000        0.00603846        0.00000854        0.00001192        0.00010347
     254          0.454076        0.000000        0.00001584        0.05103297        0.26748652        0.07085671
     255          0.455581        0.000000        0.00066490        0.28781891        0.09892249        0.00307264
     256          0.457192        0.000000        0.00025895        0.09651616        0.28802586        0.00682938
     257          0.458330        0.000000        0.00015236        0.32631329        0.06186958        0.00578511
     258          0.458406        0.000000        0.00048739        0.36023021        0.01932644        0.01337182
     259          0.458522        0.000000        0.00044854        0.36593293        0.02135213        0.00411610