# Projected DOS for atomic kind H at iteration step i = 0, E(Fermi) =    -0.176270 a.u.
#     MO Eigenvalue [a.u.]      Occupation                 s
       1         -0.963937        1.000000        0.27179792
       2         -0.953663        1.000000        0.26965079
       3         -0.952806        1.000000        0.28248029
       4         -0.951488        1.000000        0.27285680
       5         -0.949093        1.000000        0.26776286
       6         -0.938039        1.000000        0.28041957
       7         -0.931935        1.000000        0.27862327
       8         -0.699145        1.000000        0.33537026
       9         -0.693812        1.000000        0.34219078
      10         -0.692414        1.000000        0.33954810
      11         -0.690399        1.000000        0.33901222
      12         -0.689573        1.000000        0.34069756
      13         -0.685553        1.000000        0.34839823
      14         -0.679878        1.000000        0.34706810
      15         -0.639584        1.000000        0.00586132
      16         -0.620920        1.000000        0.00097064
      17         -0.599559        1.000000        0.01217285
      18         -0.597893        1.000000        0.01834950
      19         -0.592267        1.000000        0.27124500
      20         -0.591964        1.000000        0.07893614
      21         -0.590758        1.000000        0.02616635
      22         -0.589640        1.000000        0.06866689
      23         -0.589147        1.000000        0.04703618
      24         -0.586482        1.000000        0.07300224
      25         -0.584810        1.000000        0.06075579
      26         -0.581279        1.000000        0.13757436
      27         -0.580347        1.000000        0.22445123
      28         -0.579407        1.000000        0.17857712
      29         -0.578825        1.000000        0.08912657
      30         -0.578079        1.000000        0.08174968
      31         -0.577264        1.000000        0.23301766
      32         -0.575668        1.000000        0.25857837
      33         -0.575256        1.000000        0.07928131
      34         -0.574866        1.000000        0.02946752
      35         -0.573925        1.000000        0.04446153
      36         -0.572312        1.000000        0.06463888
      37         -0.571964        1.000000        0.03556874
      38         -0.571519        1.000000        0.06085991
      39         -0.570305        1.000000        0.02801184
      40         -0.570012        1.000000        0.08266397
      41         -0.568460        1.000000        0.09740561
      42         -0.568302        1.000000        0.18595896
      43         -0.568145        1.000000        0.06562759
      44         -0.566670        1.000000        0.19976538
      45         -0.565941        1.000000        0.15720784
      46         -0.563983        1.000000        0.03700905
      47         -0.563928        1.000000        0.00994075
      48         -0.562969        1.000000        0.04465105
      49         -0.561939        1.000000        0.14250790
      50         -0.561417        1.000000        0.00025342
      51         -0.560536        1.000000        0.09267584
      52         -0.560289        1.000000        0.02148949
      53         -0.559855        1.000000        0.04147143
      54         -0.558646        1.000000        0.06267018
      55         -0.557966        1.000000        0.07904081
      56         -0.557730        1.000000        0.01910449
      57         -0.557685        1.000000        0.00595840
      58         -0.556688        1.000000        0.00509023
      59         -0.555022        1.000000        0.08160459
      60         -0.554600        1.000000        0.05929828
      61         -0.553563        1.000000        0.25853971
      62         -0.553093        1.000000        0.21749132
      63         -0.548316        1.000000        0.22547215
      64         -0.540607        1.000000        0.18721448
      65         -0.484832        1.000000        0.18946366
      66         -0.478107        1.000000        0.18519564
      67         -0.477182        1.000000        0.18926207
      68         -0.474453        1.000000        0.19018778
      69         -0.470858        1.000000        0.18014863
      70         -0.464952        1.000000        0.17188713
      71         -0.461342        1.000000        0.00167066
      72         -0.459379        1.000000        0.14802535
      73         -0.459133        1.000000        0.02979747
      74         -0.455305        1.000000        0.00131113
      75         -0.452269        1.000000        0.00183425
      76         -0.451169        1.000000        0.00091487
      77         -0.446819        1.000000        0.00112748
      78         -0.445081        1.000000        0.00138230
      79         -0.442063        1.000000        0.00084843
      80         -0.412103        1.000000        0.42115895
      81         -0.410188        1.000000        0.41741021
      82         -0.408747        1.000000        0.42340375
      83         -0.407133        1.000000        0.42213206
      84         -0.406656        1.000000        0.42202204
      85         -0.406439        1.000000        0.41986651
      86         -0.404633        1.000000        0.42291924
      87         -0.404360        1.000000        0.41989997
      88         -0.404210        1.000000        0.42222477
      89         -0.402917        1.000000        0.42223985
      90         -0.402110        1.000000        0.42211868
      91         -0.401106        1.000000        0.42240446
      92         -0.397428        1.000000        0.42618708
      93         -0.395268        1.000000        0.42311214
      94         -0.318014        1.000000        0.00046593
      95         -0.291566        1.000000        0.00013260
      96         -0.280035        1.000000        0.00048011
      97         -0.276422        1.000000        0.00056291
      98         -0.274716        1.000000        0.00040154
      99         -0.272235        1.000000        0.00022871
     100         -0.270202        1.000000        0.00023270
     101         -0.268677        1.000000        0.00040973
     102         -0.266617        1.000000        0.00040235
     103         -0.265020        1.000000        0.00034814
     104         -0.262610        1.000000        0.00029688
     105         -0.260906        1.000000        0.00020723
     106         -0.259857        1.000000        0.00047845
     107         -0.258058        1.000000        0.00086513
     108         -0.255373        1.000000        0.00017312
     109         -0.254831        1.000000        0.00028795
     110         -0.250003        1.000000        0.00041312
     111         -0.246795        1.000000        0.00032271
     112         -0.245301        1.000000        0.00032166
     113         -0.244162        1.000000        0.00014545
     114         -0.242266        1.000000        0.00052284
     115         -0.239023        1.000000        0.00083007
     116         -0.238110        1.000000        0.00038823
     117         -0.237287        1.000000        0.00072613
     118         -0.236266        1.000000        0.00079439
     119         -0.235603        1.000000        0.00195972
     120         -0.234242        1.000000        0.00041602
     121         -0.232340        1.000000        0.00061842
     122         -0.229915        1.000000        0.00054662
     123         -0.227296        1.000000        0.00084530
     124         -0.225953        1.000000        0.00080283
     125         -0.224537        1.000000        0.00047825
     126         -0.223182        1.000000        0.00118903
     127         -0.222710        1.000000        0.00093595
     128         -0.219579        1.000000        0.00137382
     129         -0.218606        1.000000        0.00134008
     130         -0.216369        1.000000        0.00162560
     131         -0.214857        1.000000        0.00103707
     132         -0.212721        1.000000        0.00090768
     133         -0.212519        1.000000        0.00110075
     134         -0.210876        1.000000        0.00171979
     135         -0.210337        1.000000        0.00163811
     136         -0.208666        1.000000        0.00048639
     137         -0.208182        1.000000        0.00081734
     138         -0.206983        1.000000        0.00083919
     139         -0.206046        1.000000        0.00084303
     140         -0.205745        1.000000        0.00050632
     141         -0.203639        1.000000        0.00047896
     142         -0.203103        1.000000        0.00132186
     143         -0.201832        1.000000        0.00054267
     144         -0.201340        1.000000        0.00044346
     145         -0.200056        1.000000        0.00036565
     146         -0.199877        1.000000        0.00040254
     147         -0.198805        1.000000        0.00060372
     148         -0.196607        1.000000        0.00125129
     149         -0.195952        1.000000        0.00064951
     150         -0.195314        1.000000        0.00086497
     151         -0.194618        1.000000        0.00103298
     152         -0.194331        1.000000        0.00074428
     153         -0.193860        1.000000        0.00082043
     154         -0.192984        1.000000        0.00071441
     155         -0.192557        1.000000        0.00070465
     156         -0.192118        1.000000        0.00040836
     157         -0.191738        1.000000        0.00038059
     158         -0.191149        1.000000        0.00038426
     159         -0.190932        1.000000        0.00056832
     160         -0.190506        1.000000        0.00110052
     161         -0.190059        1.000000        0.00025751
     162         -0.189630        1.000000        0.00053811
     163         -0.189312        1.000000        0.00078405
     164         -0.189142        1.000000        0.00032839
     165         -0.188918        1.000000        0.00093887
     166         -0.188818        1.000000        0.00036220
     167         -0.188545        1.000000        0.00005212
     168         -0.188104        1.000000        0.00017148
     169         -0.187757        1.000000        0.00022119
     170         -0.187234        1.000000        0.00040110
     171         -0.186973        1.000000        0.00068687
     172         -0.186672        1.000000        0.00032326
     173         -0.185618        1.000000        0.00085533
     174         -0.184962        1.000000        0.00073454
     175         -0.184673        1.000000        0.00050036
     176         -0.183819        1.000000        0.00050923
     177         -0.183457        1.000000        0.00025671
     178         -0.183356        1.000000        0.00030581
     179         -0.182906        1.000000        0.00024169
     180         -0.182700        1.000000        0.00039796
     181         -0.182176        1.000000        0.00039696
     182         -0.181920        1.000000        0.00023136
     183         -0.180989        1.000000        0.00015362
     184         -0.180628        1.000000        0.00019393
     185         -0.180219        1.000000        0.00030590
     186         -0.179966        1.000000        0.00011663
     187         -0.179621        1.000000        0.00016530
     188         -0.179136        1.000000        0.00021303
     189         -0.178753        1.000000        0.00006939
     190         -0.178078        1.000000        0.00013434
     191         -0.177822        1.000000        0.00012872
     192         -0.177665        1.000000        0.00019148
     193         -0.177030        1.000000        0.00015968
     194         -0.176270        1.000000        0.00009406
     195         -0.176105        0.000000        0.00008688
     196         -0.175218        0.000000        0.00014998
     197         -0.172859        0.000000        0.00014186
     198         -0.171601        0.000000        0.00005756
     199         -0.170368        0.000000        0.00008298
     200         -0.169876        0.000000        0.00008046
     201         -0.167678        0.000000        0.00006916
     202         -0.062285        0.000000        0.00010479
     203         -0.053471        0.000000        0.00008991
     204         -0.052845        0.000000        0.00063352
     205         -0.047249        0.000000        0.00023898
     206         -0.047000        0.000000        0.00047685
     207         -0.045403        0.000000        0.00025712
     208         -0.042505        0.000000        0.00024684
     209         -0.039013        0.000000        0.00020440
     210         -0.038488        0.000000        0.00012702
     211         -0.036886        0.000000        0.00011831
     212         -0.035974        0.000000        0.00012429
     213         -0.031825        0.000000        0.00011854
     214         -0.030321        0.000000        0.00018024
     215         -0.028273        0.000000        0.00006372
     216         -0.022965        0.000000        0.00036917
     217         -0.021827        0.000000        0.00006631
     218         -0.016972        0.000000        0.00019640
     219         -0.015284        0.000000        0.00006960
     220         -0.014886        0.000000        0.00018271
     221         -0.012213        0.000000        0.00012556
     222         -0.010589        0.000000        0.00021636
     223         -0.005193        0.000000        0.00033984
     224         -0.004408        0.000000        0.00041377
     225         -0.003717        0.000000        0.00061791
     226          0.087864        0.000000        0.01778085
     227          0.093917        0.000000        0.01249310
     228          0.094770        0.000000        0.00328248
     229          0.102985        0.000000        0.01351558
     230          0.106566        0.000000        0.02505221
     231          0.108891        0.000000        0.00447422
     232          0.112691        0.000000        0.00466203
     233          0.167402        0.000000        0.64961395
     234          0.170757        0.000000        0.64255499
     235          0.184073        0.000000        0.65217785
     236          0.208581        0.000000        0.65095478
     237          0.276047        0.000000        0.66127779
     238          0.283009        0.000000        0.65925483
     239          0.288298        0.000000        0.66717893
     240          0.289440        0.000000        0.66072004
     241          0.290441        0.000000        0.66665213
     242          0.296050        0.000000        0.66547056
     243          0.298288        0.000000        0.66468328
     244          0.300019        0.000000        0.66368602
     245          0.304636        0.000000        0.64906208
     246          0.304802        0.000000        0.65854806
     247          0.307556        0.000000        0.66377209
     248          0.319133        0.000000        0.63364588
     249          0.325090        0.000000        0.64360007
     250          0.326557        0.000000        0.64372685
     251          0.328385        0.000000        0.64337519
     252          0.345739        0.000000        0.63274937
     253          0.347511        0.000000        0.63022079
     254          0.454076        0.000000        0.58827350
     255          0.455581        0.000000        0.58694938
     256          0.457192        0.000000        0.58308715
     257          0.458330        0.000000        0.58785674
     258          0.458406        0.000000        0.58462880
     259          0.458522        0.000000        0.58805769
     260          0.463116        0.000000        0.58545501
     261          0.463298        0.000000        0.58320327
     262          0.464879        0.000000        0.58514446
     263          0.467018        0.000000        0.58189349
     264          0.469083        0.000000        0.58457357
     265          0.469641        0.000000        0.58014164
     266          0.470365        0.000000        0.57825569
     267          0.472340        0.000000        0.58213737
     268          0.556848        0.000000        0.55417906
     269          0.561477        0.000000        0.55299134
     270          0.563187        0.000000        0.55304568
     271          0.563489        0.000000        0.55240209
     272          0.563753        0.000000        0.55214238
     273          0.568219        0.000000        0.55177268
     274          0.573374        0.000000        0.55102809
