# Projected DOS for atomic kind Pb at iteration step i = 0, E(Fermi) =    -0.176270 a.u.
#     MO Eigenvalue [a.u.]      Occupation                 s                py                pz                px
       1         -0.963937        1.000000        0.00000004        0.00000025        0.00000025        0.00000046
       2         -0.953663        1.000000        0.00000005        0.00000024        0.00000049        0.00000039
       3         -0.952806        1.000000        0.00000028        0.00000402        0.00000643        0.00000340
       4         -0.951488        1.000000        0.00000004        0.00000172        0.00000078        0.00000018
       5         -0.949093        1.000000        0.00000016        0.00000330        0.00000414        0.00000115
       6         -0.938039        1.000000        0.00000029        0.00000320        0.00000314        0.00000194
       7         -0.931935        1.000000        0.00000033        0.00000384        0.00000448        0.00000217
       8         -0.699145        1.000000        0.00001054        0.00001332        0.00001137        0.00001586
       9         -0.693812        1.000000        0.00000370        0.00000716        0.00000141        0.00000121
      10         -0.692414        1.000000        0.00000798        0.00000696        0.00001020        0.00000352
      11         -0.690399        1.000000        0.00001131        0.00000731        0.00001075        0.00001357
      12         -0.689573        1.000000        0.00001779        0.00002434        0.00002001        0.00001870
      13         -0.685553        1.000000        0.00003732        0.00004235        0.00002436        0.00002063
      14         -0.679878        1.000000        0.00003086        0.00002732        0.00002433        0.00000830
      15         -0.639584        1.000000        0.00110247        0.00007846        0.00168158        0.00046713
      16         -0.620920        1.000000        0.02189103        0.00240070        0.01062798        0.00000996
      17         -0.599559        1.000000        0.05046806        0.00216017        0.00308115        0.00733232
      18         -0.597893        1.000000        0.10056756        0.00074307        0.00194774        0.00493770
      19         -0.592267        1.000000        0.01749701        0.00167444        0.00010634        0.00074350
      20         -0.591964        1.000000        0.04260399        0.00654145        0.00328610        0.00843295
      21         -0.590758        1.000000        0.03376395        0.00581903        0.00082969        0.00100748
      22         -0.589640        1.000000        0.06295460        0.00931197        0.00059643        0.00310547
      23         -0.589147        1.000000        0.07403507        0.00848252        0.00374924        0.00100085
      24         -0.586482        1.000000        0.03549275        0.00452836        0.00106446        0.01547558
      25         -0.584810        1.000000        0.04034884        0.00756577        0.00650273        0.00301729
      26         -0.581279        1.000000        0.05065749        0.00515396        0.00351168        0.00275860
      27         -0.580347        1.000000        0.02142659        0.00175203        0.00423191        0.00091450
      28         -0.579407        1.000000        0.02822000        0.00464920        0.00441331        0.00217204
      29         -0.578825        1.000000        0.04795518        0.00341833        0.00714387        0.00469700
      30         -0.578079        1.000000        0.04986999        0.00529021        0.00738835        0.00786669
      31         -0.577264        1.000000        0.01058869        0.00181337        0.00301579        0.00325291
      32         -0.575668        1.000000        0.00960438        0.00182864        0.00332186        0.00180806
      33         -0.575256        1.000000        0.05523371        0.00764309        0.00925931        0.00341772
      34         -0.574866        1.000000        0.08658669        0.00948293        0.00565319        0.00678295
      35         -0.573925        1.000000        0.01395723        0.02734492        0.00636776        0.00295900
      36         -0.572312        1.000000        0.00971299        0.01014489        0.01310793        0.00257065
      37         -0.571964        1.000000        0.01772647        0.01512277        0.01530949        0.00244924
      38         -0.571519        1.000000        0.05510107        0.00336581        0.00727688        0.01783823
      39         -0.570305        1.000000        0.01309089        0.00438140        0.00659618        0.00400993
      40         -0.570012        1.000000        0.02446727        0.00837938        0.00748358        0.00432984
      41         -0.568460        1.000000        0.02937431        0.00449700        0.00476951        0.00569770
      42         -0.568302        1.000000        0.00366260        0.00215766        0.00344751        0.00289644
      43         -0.568145        1.000000        0.02774010        0.00428426        0.00508963        0.00634161
      44         -0.566670        1.000000        0.00873032        0.00062776        0.00520459        0.00598551
      45         -0.565941        1.000000        0.01397240        0.00073980        0.00328098        0.00936065
      46         -0.563983        1.000000        0.00800966        0.00297874        0.00384507        0.02500490
      47         -0.563928        1.000000        0.03228322        0.00209018        0.02408661        0.00930714
      48         -0.562969        1.000000        0.00773189        0.00118138        0.00440661        0.02741581
      49         -0.561939        1.000000        0.00234690        0.00118981        0.01201953        0.00619042
      50         -0.561417        1.000000        0.00012526        0.01264673        0.03126085        0.00087075
      51         -0.560536        1.000000        0.00275498        0.00613880        0.00103670        0.01284985
      52         -0.560289        1.000000        0.00224980        0.01702779        0.00042553        0.01199228
      53         -0.559855        1.000000        0.00137231        0.00885660        0.00212571        0.01895056
      54         -0.558646        1.000000        0.00178867        0.00646909        0.00889367        0.00690134
      55         -0.557966        1.000000        0.00260323        0.00991255        0.00354436        0.01032004
      56         -0.557730        1.000000        0.00149547        0.01056736        0.01091743        0.00503782
      57         -0.557685        1.000000        0.00664720        0.00189650        0.00530825        0.01127564
      58         -0.556688        1.000000        0.00021488        0.02190178        0.00497838        0.00203821
      59         -0.555022        1.000000        0.00066872        0.00875330        0.01062922        0.00098493
      60         -0.554600        1.000000        0.00302096        0.01551744        0.00242222        0.00477746
      61         -0.553563        1.000000        0.00102494        0.00238702        0.00123417        0.00097093
      62         -0.553093        1.000000        0.00097147        0.00126254        0.00195205        0.00095743
      63         -0.548316        1.000000        0.00141550        0.00003274        0.00630195        0.00051457
      64         -0.540607        1.000000        0.00765504        0.00060275        0.00805728        0.00151808
      65         -0.484832        1.000000        0.00048503        0.00000505        0.00001073        0.00002103
      66         -0.478107        1.000000        0.00139078        0.00005651        0.00000095        0.00000485
      67         -0.477182        1.000000        0.00190462        0.00001841        0.00002632        0.00000829
      68         -0.474453        1.000000        0.00150287        0.00000923        0.00003817        0.00003491
      69         -0.470858        1.000000        0.00420369        0.00000318        0.00001198        0.00003086
      70         -0.464952        1.000000        0.01767836        0.00005654        0.00004175        0.00003592
      71         -0.461342        1.000000        0.68188174        0.00080834        0.00141350        0.00035083
      72         -0.459379        1.000000        0.12365530        0.00015751        0.00024826        0.00005557
      73         -0.459133        1.000000        0.57764546        0.00073365        0.00100502        0.00031558
      74         -0.455305        1.000000        0.70780793        0.00195079        0.00139043        0.00210639
      75         -0.452269        1.000000        0.70853874        0.00161053        0.00031974        0.00127748
      76         -0.451169        1.000000        0.69949126        0.00078135        0.00049990        0.00050042
      77         -0.446819        1.000000        0.74008961        0.00078793        0.00073104        0.00061351
      78         -0.445081        1.000000        0.74703216        0.00051547        0.00046395        0.00041670
      79         -0.442063        1.000000        0.74984638        0.00026263        0.00017822        0.00021603
      80         -0.412103        1.000000        0.00016782        0.00009311        0.00009740        0.00003628
      81         -0.410188        1.000000        0.00057461        0.00004422        0.00006251        0.00008802
      82         -0.408747        1.000000        0.00014734        0.00001699        0.00000540        0.00001680
      83         -0.407133        1.000000        0.00039610        0.00000573        0.00003775        0.00008331
      84         -0.406656        1.000000        0.00002883        0.00003954        0.00002043        0.00001371
      85         -0.406439        1.000000        0.00031333        0.00005706        0.00000598        0.00000785
      86         -0.404633        1.000000        0.00031796        0.00004498        0.00005022        0.00005221
      87         -0.404360        1.000000        0.00021739        0.00001310        0.00002478        0.00007142
      88         -0.404210        1.000000        0.00023588        0.00003006        0.00002165        0.00004484
      89         -0.402917        1.000000        0.00029066        0.00011258        0.00003296        0.00010499
      90         -0.402110        1.000000        0.00034453        0.00011223        0.00007781        0.00020023
      91         -0.401106        1.000000        0.00016648        0.00007459        0.00004054        0.00001882
      92         -0.397428        1.000000        0.00008743        0.00000764        0.00006804        0.00001203
      93         -0.395268        1.000000        0.00005413        0.00004210        0.00006201        0.00002139
      94         -0.318014        1.000000        0.00151783        0.00197087        0.00897490        0.00128866
      95         -0.291566        1.000000        0.00183971        0.05567860        0.04935567        0.00138153
      96         -0.280035        1.000000        0.00496876        0.00778535        0.07056647        0.13693409
      97         -0.276422        1.000000        0.00334963        0.01109105        0.14416040        0.01335871
      98         -0.274716        1.000000        0.00486868        0.03279627        0.07908319        0.08827079
      99         -0.272235        1.000000        0.00291644        0.21237098        0.02534915        0.02318842
     100         -0.270202        1.000000        0.00278232        0.20344271        0.01540541        0.02336316
     101         -0.268677        1.000000        0.00307563        0.21463784        0.01406054        0.03317549
     102         -0.266617        1.000000        0.00382893        0.13595198        0.03191997        0.08192117
     103         -0.265020        1.000000        0.00551937        0.03326901        0.04489225        0.16990476
     104         -0.262610        1.000000        0.00071870        0.04401752        0.02030962        0.19629140
     105         -0.260906        1.000000        0.00023899        0.02501614        0.12064880        0.05433441
     106         -0.259857        1.000000        0.00054354        0.01812053        0.16535289        0.06389559
     107         -0.258058        1.000000        0.00047881        0.03981565        0.03114860        0.02090305
     108         -0.255373        1.000000        0.00034394        0.02785688        0.22805983        0.00584031
     109         -0.254831        1.000000        0.00027090        0.00782593        0.09858869        0.12375646
     110         -0.250003        1.000000        0.00041725        0.02480549        0.05250655        0.14980205
     111         -0.246795        1.000000        0.00021079        0.01992457        0.09333810        0.08239936
     112         -0.245301        1.000000        0.00053167        0.05123992        0.06307641        0.12928036
     113         -0.244162        1.000000        0.00040037        0.07757691        0.05936497        0.10530938
     114         -0.242266        1.000000        0.00021013        0.11500174        0.11079347        0.00918006
     115         -0.239023        1.000000        0.00143607        0.09453292        0.02462933        0.03744899
     116         -0.238110        1.000000        0.00070821        0.04536106        0.09420344        0.03301141
     117         -0.237287        1.000000        0.00091545        0.10859729        0.02145234        0.03176752
     118         -0.236266        1.000000        0.00176022        0.09544352        0.02088344        0.03146439
     119         -0.235603        1.000000        0.00257283        0.02963015        0.03074878        0.04100763
     120         -0.234242        1.000000        0.00397967        0.08506019        0.05375473        0.06127254
     121         -0.232340        1.000000        0.00521831        0.08382772        0.02437724        0.06051522
     122         -0.229915        1.000000        0.00823460        0.02225337        0.06198928        0.04766413
     123         -0.227296        1.000000        0.00656037        0.02216386        0.04502155        0.00470311
     124         -0.225953        1.000000        0.00358886        0.00923456        0.02722767        0.03036706
     125         -0.224537        1.000000        0.00419046        0.01161021        0.01048314        0.03223078
     126         -0.223182        1.000000        0.00920375        0.02171819        0.02289268        0.03239704
     127         -0.222710        1.000000        0.00369710        0.01863877        0.01681279        0.02348379
     128         -0.219579        1.000000        0.01502831        0.01646484        0.03919953        0.02250919
     129         -0.218606        1.000000        0.00237610        0.01233286        0.01287873        0.00414179
     130         -0.216369        1.000000        0.00187716        0.00382991        0.01438789        0.00341758
     131         -0.214857        1.000000        0.00259729        0.00627180        0.01022074        0.00379340
     132         -0.212721        1.000000        0.00161367        0.00683750        0.00522024        0.00317543
     133         -0.212519        1.000000        0.00583025        0.00769480        0.00971985        0.00545097
     134         -0.210876        1.000000        0.00070171        0.00255493        0.00107334        0.00430749
     135         -0.210337        1.000000        0.00387143        0.00529151        0.00827472        0.00668179
     136         -0.208666        1.000000        0.00178599        0.00613184        0.00184165        0.00383981
     137         -0.208182        1.000000        0.00372107        0.00202271        0.00524784        0.00397577
     138         -0.206983        1.000000        0.00131128        0.00434122        0.00346083        0.00299576
     139         -0.206046        1.000000        0.00110203        0.00355183        0.00208936        0.00275118
     140         -0.205745        1.000000        0.00328240        0.00461014        0.00478902        0.00791825
     141         -0.203639        1.000000        0.00317038        0.00105776        0.00450125        0.00460583
     142         -0.203103        1.000000        0.00037815        0.00218922        0.00198750        0.00062381
     143         -0.201832        1.000000        0.00399279        0.00454049        0.00107863        0.00113597
     144         -0.201340        1.000000        0.00135285        0.00283347        0.00167013        0.00073477
     145         -0.200056        1.000000        0.00464819        0.00304843        0.00266367        0.00661218
     146         -0.199877        1.000000        0.00447031        0.00090863        0.00377551        0.00158751
     147         -0.198805        1.000000        0.00261610        0.00123267        0.00209483        0.00105356
     148         -0.196607        1.000000        0.00535155        0.00120895        0.00150789        0.00250867
     149         -0.195952        1.000000        0.00191598        0.00059576        0.00067109        0.00141253
     150         -0.195314        1.000000        0.00588818        0.00088753        0.00124096        0.00189608
     151         -0.194618        1.000000        0.00497904        0.00127615        0.00118704        0.00173733
     152         -0.194331        1.000000        0.00179650        0.00132301        0.00055653        0.00158684
     153         -0.193860        1.000000        0.00538639        0.00104894        0.00159459        0.00190401
     154         -0.192984        1.000000        0.00483889        0.00118296        0.00334179        0.00240080
     155         -0.192557        1.000000        0.00106352        0.00028310        0.00075093        0.00157824
     156         -0.192118        1.000000        0.00366334        0.00061721        0.00133061        0.00187326
     157         -0.191738        1.000000        0.00654188        0.00215918        0.00360002        0.00089831
     158         -0.191149        1.000000        0.00069539        0.00039586        0.00051239        0.00041137
     159         -0.190932        1.000000        0.00248200        0.00079516        0.00105273        0.00060472
     160         -0.190506        1.000000        0.00281288        0.00020396        0.00227187        0.00068496
     161         -0.190059        1.000000        0.00173345        0.00119361        0.00128737        0.00032709
     162         -0.189630        1.000000        0.00560007        0.00123384        0.00167879        0.00124139
     163         -0.189312        1.000000        0.00259729        0.00078154        0.00189711        0.00146821
     164         -0.189142        1.000000        0.00517434        0.00072726        0.00150317        0.00107797
     165         -0.188918        1.000000        0.00243236        0.00118284        0.00211368        0.00189216
     166         -0.188818        1.000000        0.00178573        0.00013988        0.00122101        0.00049614
     167         -0.188545        1.000000        0.00010982        0.00041255        0.00026545        0.00012605
     168         -0.188104        1.000000        0.00172382        0.00046135        0.00033097        0.00062836
     169         -0.187757        1.000000        0.00461990        0.00075287        0.00069028        0.00185972
     170         -0.187234        1.000000        0.00850666        0.00172900        0.00163448        0.00727377
     171         -0.186973        1.000000        0.00077246        0.00020339        0.00031818        0.00179242
     172         -0.186672        1.000000        0.00401306        0.00071921        0.00115371        0.00096366
     173         -0.185618        1.000000        0.01353620        0.00297448        0.00255135        0.00530654
     174         -0.184962        1.000000        0.00583834        0.00077853        0.00175819        0.00138067
     175         -0.184673        1.000000        0.00793355        0.00107445        0.00163654        0.00174916
     176         -0.183819        1.000000        0.00423221        0.00022894        0.00057911        0.00123349
     177         -0.183457        1.000000        0.00103253        0.00018708        0.00084607        0.00036345
     178         -0.183356        1.000000        0.00821882        0.00154446        0.00120674        0.00067928
     179         -0.182906        1.000000        0.00267804        0.00038718        0.00139702        0.00082250
     180         -0.182700        1.000000        0.00335504        0.00021382        0.00057686        0.00121250
     181         -0.182176        1.000000        0.01625895        0.00123174        0.00434022        0.00139021
     182         -0.181920        1.000000        0.00213802        0.00076031        0.00038967        0.00017029
     183         -0.180989        1.000000        0.01187003        0.00180037        0.00078509        0.00164782
     184         -0.180628        1.000000        0.00071087        0.00011633        0.00038430        0.00077658
     185         -0.180219        1.000000        0.00801869        0.00101344        0.00088777        0.00167453
     186         -0.179966        1.000000        0.01706250        0.00227419        0.00230071        0.00168598
     187         -0.179621        1.000000        0.04663279        0.00468610        0.00275865        0.00596796
     188         -0.179136        1.000000        0.01954088        0.00141386        0.00095286        0.00196844
     189         -0.178753        1.000000        0.00581143        0.00044327        0.00029646        0.00032565
     190         -0.178078        1.000000        0.01087392        0.00093472        0.00100736        0.00128062
     191         -0.177822        1.000000        0.00671880        0.00052338        0.00071692        0.00115638
     192         -0.177665        1.000000        0.01795250        0.00180866        0.00203582        0.00272922
     193         -0.177030        1.000000        0.00232213        0.00042588        0.00020884        0.00015099
     194         -0.176270        1.000000        0.00986315        0.00058775        0.00077713        0.00121241
     195         -0.176105        0.000000        0.02330085        0.00083421        0.00141188        0.00121486
     196         -0.175218        0.000000        0.08573883        0.00164629        0.00679645        0.00639669
     197         -0.172859        0.000000        0.12003756        0.00283822        0.00539258        0.00593365
     198         -0.171601        0.000000        0.09423545        0.00468910        0.00203986        0.00336927
     199         -0.170368        0.000000        0.10853731        0.00141160        0.00136897        0.00320839
     200         -0.169876        0.000000        0.11614480        0.00866235        0.00368859        0.00434402
     201         -0.167678        0.000000        0.00726728        0.00107551        0.00065182        0.00043742
     202         -0.062285        0.000000        0.00637459        0.01576852        0.02971275        0.69129897
     203         -0.053471        0.000000        0.00771969        0.48928012        0.14058449        0.06474005
     204         -0.052845        0.000000        0.01335240        0.14850769        0.23236879        0.31637587
     205         -0.047249        0.000000        0.00692072        0.38607634        0.17830636        0.13786833
     206         -0.047000        0.000000        0.00837403        0.23900955        0.26398175        0.19571175
     207         -0.045403        0.000000        0.00770700        0.40013831        0.19495628        0.10481308
     208         -0.042505        0.000000        0.00338023        0.22141573        0.35648140        0.10978491
     209         -0.039013        0.000000        0.00130014        0.27683493        0.37754041        0.04092158
     210         -0.038488        0.000000        0.00417223        0.21434733        0.45297646        0.01698051
     211         -0.036886        0.000000        0.00136061        0.14078754        0.14737968        0.40217929
     212         -0.035974        0.000000        0.00253608        0.21018879        0.35939375        0.12857256
     213         -0.031825        0.000000        0.00029036        0.14392012        0.22707016        0.32062611
     214         -0.030321        0.000000        0.00006067        0.09010579        0.33841937        0.26410481
     215         -0.028273        0.000000        0.00022481        0.04705795        0.35466789        0.28167551
     216         -0.022965        0.000000        0.00032842        0.07394505        0.13521786        0.47692190
     217         -0.021827        0.000000        0.00096982        0.10516347        0.07004766        0.50898591
     218         -0.016972        0.000000        0.00027014        0.04998090        0.48258495        0.14136819
     219         -0.015284        0.000000        0.00044993        0.33988102        0.23018412        0.10042838
     220         -0.014886        0.000000        0.00065151        0.04996675        0.54419739        0.08504802
     221         -0.012213        0.000000        0.00040693        0.05435539        0.12637785        0.48639494
     222         -0.010589        0.000000        0.00039281        0.47492792        0.12710813        0.07134117
     223         -0.005193        0.000000        0.00023188        0.58781423        0.01919356        0.06932300
     224         -0.004408        0.000000        0.00071649        0.41923237        0.02748766        0.23028158
     225         -0.003717        0.000000        0.00106003        0.33398734        0.07078559        0.27287242
     226          0.087864        0.000000        0.00001405        0.00007772        0.00005662        0.00021391
     227          0.093917        0.000000        0.00000264        0.00009530        0.00000512        0.00001999
     228          0.094770        0.000000        0.00000135        0.00004417        0.00005589        0.00005874
     229          0.102985        0.000000        0.00000274        0.00004309        0.00001712        0.00005337
     230          0.106566        0.000000        0.00000249        0.00003292        0.00006818        0.00003258
     231          0.108891        0.000000        0.00000154        0.00012793        0.00002412        0.00000825
     232          0.112691        0.000000        0.00000006        0.00000387        0.00000714        0.00000840
     233          0.167402        0.000000        0.00002618        0.00001678        0.00000712        0.00040680
     234          0.170757        0.000000        0.00000384        0.00000647        0.00002508        0.00000806
     235          0.184073        0.000000        0.00000294        0.00001565        0.00000198        0.00003105
     236          0.208581        0.000000        0.00000395        0.00002320        0.00000084        0.00000600
     237          0.276047        0.000000        0.00001529        0.00003038        0.00000760        0.00015093
     238          0.283009        0.000000        0.00000033        0.00010772        0.00038785        0.00007542
     239          0.288298        0.000000        0.00000623        0.00012274        0.00011200        0.00001071
     240          0.289440        0.000000        0.00000095        0.00003419        0.00014431        0.00008172
     241          0.290441        0.000000        0.00000464        0.00001311        0.00005715        0.00006744
     242          0.296050        0.000000        0.00000124        0.00014496        0.00008073        0.00001113
     243          0.298288        0.000000        0.00000402        0.00004970        0.00005427        0.00001854
     244          0.300019        0.000000        0.00000379        0.00006041        0.00006588        0.00002305
     245          0.304636        0.000000        0.00002256        0.00004343        0.00001308        0.00019792
     246          0.304802        0.000000        0.00000566        0.00011113        0.00002686        0.00008623
     247          0.307556        0.000000        0.00000194        0.00008000        0.00009132        0.00001158
     248          0.319133        0.000000        0.00000148        0.00011287        0.00027240        0.00013497
     249          0.325090        0.000000        0.00000843        0.00004316        0.00002343        0.00004412
     250          0.326557        0.000000        0.00000910        0.00006899        0.00002963        0.00002523
     251          0.328385        0.000000        0.00000508        0.00002069        0.00006141        0.00000437
     252          0.345739        0.000000        0.00000275        0.00001829        0.00000959        0.00000540
     253          0.347511        0.000000        0.00000662        0.00001090        0.00011271        0.00002044
     254          0.454076        0.000000        0.00000066        0.00000578        0.00000828        0.00003309
     255          0.455581        0.000000        0.00000087        0.00000481        0.00000027        0.00000719
     256          0.457192        0.000000        0.00000018        0.00000487        0.00000487        0.00000036
     257          0.458330        0.000000        0.00000111        0.00001852        0.00003011        0.00000653
     258          0.458406        0.000000        0.00000051        0.00000223        0.00000730        0.00000238
     259          0.458522        0.000000        0.00000094        0.00001720        0.00000835        0.00000256