# Projected DOS for atomic kind I at iteration step i = 0, E(Fermi) =    -0.172076 a.u.
#     MO Eigenvalue [a.u.]      Occupation                 s                py                pz                px
       1         -0.952917        1.000000        0.00011961        0.00043255        0.00015759        0.00007598
       2         -0.945306        1.000000        0.00015243        0.00021919        0.00041137        0.00010358
       3         -0.942427        1.000000        0.00018441        0.00050974        0.00028087        0.00021964
       4         -0.940424        1.000000        0.00012824        0.00036853        0.00007856        0.00025133
       5         -0.936657        1.000000        0.00018684        0.00033169        0.00032552        0.00019834
       6         -0.936356        1.000000        0.00017248        0.00047239        0.00026617        0.00002931
       7         -0.926083        1.000000        0.00015976        0.00039964        0.00014815        0.00026089
       8         -0.693812        1.000000        0.00075506        0.00025958        0.00013848        0.00004778
       9         -0.690003        1.000000        0.00219697        0.00060478        0.00054846        0.00021059
      10         -0.684866        1.000000        0.00163265        0.00036950        0.00036217        0.00007722
      11         -0.683701        1.000000        0.00216559        0.00023971        0.00028727        0.00033336
      12         -0.683458        1.000000        0.00166085        0.00056281        0.00015162        0.00033559
      13         -0.680384        1.000000        0.00241411        0.00054769        0.00045933        0.00031855
      14         -0.671850        1.000000        0.00164182        0.00031713        0.00025002        0.00019822
      15         -0.640367        1.000000        0.95253703        0.00117525        0.00684739        0.01710635
      16         -0.631081        1.000000        0.95071022        0.00144255        0.01579246        0.00763718
      17         -0.622812        1.000000        0.94024474        0.00642001        0.00255763        0.00938080
      18         -0.619688        1.000000        0.95971349        0.00660757        0.00185456        0.01683612
      19         -0.615428        1.000000        0.91782288        0.00913658        0.00290736        0.00164603
      20         -0.603536        1.000000        0.87347284        0.00330644        0.00742263        0.01463942
      21         -0.597806        1.000000        0.80421495        0.00449501        0.00553425        0.00624412
      22         -0.594684        1.000000        0.81294213        0.00829593        0.00552422        0.00404917
      23         -0.594373        1.000000        0.85535641        0.00501373        0.00470581        0.00879298
      24         -0.593210        1.000000        0.84844121        0.00526918        0.00487893        0.00759692
      25         -0.591256        1.000000        0.75755381        0.00415028        0.00585124        0.00568650
      26         -0.588247        1.000000        0.69412403        0.00691029        0.00273179        0.00589274
      27         -0.587614        1.000000        0.80170607        0.00712044        0.00763297        0.00770611
      28         -0.586131        1.000000        0.76531555        0.00419731        0.00344511        0.00377026
      29         -0.583927        1.000000        0.89464573        0.00417075        0.00426254        0.00963681
      30         -0.583167        1.000000        0.84094500        0.00203640        0.00790105        0.00794515
      31         -0.582586        1.000000        0.73135520        0.00360552        0.00342248        0.00389027
      32         -0.582336        1.000000        0.89548165        0.00088391        0.00341144        0.00847400
      33         -0.580369        1.000000        0.84610993        0.00298462        0.00482723        0.00403085
      34         -0.580076        1.000000        0.83857346        0.00269723        0.00414170        0.00380211
      35         -0.578440        1.000000        0.79099006        0.00680173        0.00183457        0.00095201
      36         -0.577987        1.000000        0.68874050        0.00290811        0.00265431        0.00279443
      37         -0.577674        1.000000        0.33297082        0.00207757        0.00213737        0.00197043
      38         -0.576143        1.000000        0.76822977        0.00199912        0.00227090        0.00207944
      39         -0.575208        1.000000        0.84467070        0.00138869        0.00456175        0.00189441
      40         -0.574826        1.000000        0.82346541        0.00174158        0.00279651        0.00142225
      41         -0.574316        1.000000        0.77635745        0.00169259        0.00328239        0.00378142
      42         -0.573214        1.000000        0.58022505        0.00316132        0.00339687        0.00195709
      43         -0.572805        1.000000        0.92076557        0.00189025        0.00189449        0.00041649
      44         -0.571373        1.000000        0.95991431        0.00235807        0.00052138        0.00245995
      45         -0.570791        1.000000        0.73791311        0.00667600        0.00574940        0.00242495
      46         -0.570480        1.000000        0.50126710        0.00582322        0.00221008        0.00175522
      47         -0.569813        1.000000        0.77395546        0.00459358        0.00430150        0.00138247
      48         -0.568011        1.000000        0.14181163        0.00262946        0.00066220        0.00061868
      49         -0.566927        1.000000        0.80715831        0.00095753        0.00077268        0.00410791
      50         -0.564172        1.000000        0.28212340        0.00110454        0.00188923        0.00098477
      51         -0.562723        1.000000        0.12027945        0.00061152        0.00054926        0.00086052
      52         -0.561039        1.000000        0.78742815        0.00244712        0.00140428        0.00052350
      53         -0.560386        1.000000        0.51576715        0.00456896        0.00127149        0.00197540
      54         -0.559964        1.000000        0.28705889        0.00511611        0.00085125        0.00089777
      55         -0.559374        1.000000        0.89446821        0.00234461        0.00119905        0.00563283
      56         -0.557587        1.000000        0.19297862        0.00128709        0.00104915        0.00055909
      57         -0.556620        1.000000        0.54966478        0.00106761        0.00135828        0.00081210
      58         -0.554432        1.000000        0.64195363        0.00504107        0.00097186        0.00089262
      59         -0.551155        1.000000        0.20424568        0.00638606        0.00240776        0.00162074
      60         -0.545923        1.000000        0.18347714        0.00137445        0.00164722        0.00106406
      61         -0.544889        1.000000        0.34184629        0.00162673        0.00211786        0.00168318
      62         -0.541933        1.000000        0.46196876        0.00072643        0.00137466        0.00045369
      63         -0.538446        1.000000        0.35110436        0.00101250        0.00097648        0.00105562
      64         -0.538039        1.000000        0.22521323        0.00234032        0.00094004        0.00218413
      65         -0.473953        1.000000        0.00260701        0.00193453        0.00112056        0.00026548
      66         -0.469955        1.000000        0.00502465        0.00358407        0.00327724        0.00143297
      67         -0.465112        1.000000        0.12113905        0.03322727        0.04237165        0.01888878
      68         -0.464751        1.000000        0.03367203        0.01045693        0.01331729        0.00522784
      69         -0.464189        1.000000        0.01482934        0.00680900        0.00430067        0.00544188
      70         -0.463812        1.000000        0.00327021        0.00141971        0.00258726        0.00167745
      71         -0.461699        1.000000        0.08302828        0.02419369        0.02195294        0.01756872
      72         -0.460867        1.000000        0.16394908        0.05292388        0.03881962        0.03122506
      73         -0.459447        1.000000        0.10949071        0.03034942        0.02270909        0.02041969
      74         -0.458486        1.000000        0.13148619        0.03329771        0.04254074        0.02813074
      75         -0.454241        1.000000        0.13475665        0.04124731        0.02891609        0.04303704
      76         -0.451607        1.000000        0.03077779        0.00873538        0.00739071        0.00752277
      77         -0.450242        1.000000        0.14828274        0.03666525        0.04327164        0.04287996
      78         -0.443153        1.000000        0.15023228        0.03619552        0.03902074        0.03596117
      79         -0.439585        1.000000        0.14537977        0.04368655        0.04293831        0.00870674
      80         -0.410742        1.000000        0.00173080        0.00392714        0.00041632        0.00073104
      81         -0.409900        1.000000        0.00079283        0.00064915        0.00220330        0.00072934
      82         -0.407698        1.000000        0.00191755        0.00358829        0.00524136        0.00131613
      83         -0.406292        1.000000        0.00265946        0.00628637        0.00384629        0.00257755
      84         -0.402421        1.000000        0.00193814        0.00164731        0.00403535        0.00096585
      85         -0.401821        1.000000        0.00057514        0.00274549        0.00140267        0.00128056
      86         -0.400759        1.000000        0.00133114        0.00476668        0.00201318        0.00132774
      87         -0.400112        1.000000        0.00134288        0.00189511        0.00071990        0.00306931
      88         -0.398917        1.000000        0.00366728        0.00760292        0.00111151        0.00141974
      89         -0.398313        1.000000        0.00208714        0.00193850        0.00283699        0.00314680
      90         -0.398197        1.000000        0.00190050        0.00182617        0.00365278        0.00147434
      91         -0.395468        1.000000        0.00231996        0.00571235        0.00204864        0.00108344
      92         -0.390100        1.000000        0.00076305        0.00132096        0.00112426        0.00082435
      93         -0.386859        1.000000        0.00165961        0.00380493        0.00054869        0.00231653
      94         -0.323842        1.000000        0.02827074        0.01364898        0.23844768        0.69329349
      95         -0.315921        1.000000        0.02623425        0.05090392        0.52008918        0.30518223
      96         -0.305522        1.000000        0.03186319        0.23381132        0.06548706        0.64685223
      97         -0.303267        1.000000        0.01587666        0.21683051        0.05242575        0.62106625
      98         -0.299334        1.000000        0.01550610        0.73860136        0.06332336        0.03850003
      99         -0.276639        1.000000        0.00904568        0.29920949        0.24575438        0.23011001
     100         -0.273909        1.000000        0.01278997        0.20890970        0.27223067        0.30151275
     101         -0.273376        1.000000        0.00762116        0.62429210        0.06943378        0.16182115
     102         -0.269729        1.000000        0.01617817        0.14412920        0.19384689        0.39931619
     103         -0.268748        1.000000        0.01686788        0.35602353        0.28639966        0.16120107
     104         -0.266653        1.000000        0.01783339        0.24403236        0.30296548        0.22087659
     105         -0.265242        1.000000        0.01071589        0.47006054        0.11499680        0.21992897
     106         -0.264939        1.000000        0.01813954        0.22413322        0.16827591        0.33953374
     107         -0.263329        1.000000        0.02015797        0.34819558        0.27985726        0.12830239
     108         -0.260754        1.000000        0.01330880        0.21680549        0.49544756        0.06878256
     109         -0.257655        1.000000        0.01675353        0.34750523        0.18026127        0.25258032
     110         -0.256437        1.000000        0.01966570        0.22606297        0.19677331        0.32340047
     111         -0.256062        1.000000        0.01914776        0.23209833        0.30327430        0.22936136
     112         -0.254499        1.000000        0.01725215        0.37698283        0.20194572        0.20882173
     113         -0.253895        1.000000        0.01262768        0.25270844        0.33990322        0.20859048
     114         -0.252564        1.000000        0.00579060        0.52262424        0.30364344        0.08391520
     115         -0.251026        1.000000        0.01445493        0.25784258        0.36306501        0.16783417
     116         -0.247308        1.000000        0.01293251        0.17078760        0.40936156        0.24000789
     117         -0.245709        1.000000        0.01145333        0.16988016        0.46514709        0.23879824
     118         -0.244702        1.000000        0.01144764        0.19164594        0.36585706        0.26807288
     119         -0.244475        1.000000        0.01232677        0.19924501        0.24872652        0.37640571
     120         -0.243351        1.000000        0.01515560        0.19383614        0.37285291        0.19626780
     121         -0.240288        1.000000        0.01444786        0.22292417        0.37198034        0.23145951
     122         -0.239086        1.000000        0.00487940        0.20654040        0.59047556        0.14666907
     123         -0.237191        1.000000        0.00768756        0.17935398        0.41519203        0.28959371
     124         -0.236269        1.000000        0.01000303        0.23221729        0.32609476        0.29229058
     125         -0.235699        1.000000        0.00971904        0.26781216        0.45699178        0.15537146
     126         -0.234113        1.000000        0.00696439        0.23530103        0.34784179        0.26593562
     127         -0.233479        1.000000        0.00868532        0.37895870        0.31064342        0.16057019
     128         -0.232405        1.000000        0.00953912        0.28258705        0.46847043        0.14250950
     129         -0.229410        1.000000        0.00992590        0.30320017        0.30119290        0.34395698
     130         -0.227763        1.000000        0.00568393        0.27317108        0.28948037        0.33854075
     131         -0.225413        1.000000        0.00474458        0.44695492        0.31039777        0.17745691
     132         -0.224052        1.000000        0.00283252        0.41151511        0.40058864        0.14325431
     133         -0.222361        1.000000        0.00243013        0.24627299        0.43125363        0.24064979
     134         -0.220691        1.000000        0.00612761        0.38277944        0.25734120        0.28364141
     135         -0.219020        1.000000        0.00495017        0.39228647        0.25307175        0.28804780
     136         -0.218327        1.000000        0.00786386        0.37087922        0.16265434        0.41148240
     137         -0.216233        1.000000        0.00547578        0.25657155        0.23060968        0.45021395
     138         -0.215483        1.000000        0.00334164        0.38959139        0.38454161        0.15895994
     139         -0.214606        1.000000        0.00240820        0.27886617        0.61213938        0.07956787
     140         -0.214369        1.000000        0.00185399        0.29870445        0.48046944        0.19597927
     141         -0.213409        1.000000        0.00533806        0.22883710        0.56759960        0.14157866
     142         -0.211776        1.000000        0.00238806        0.41550100        0.32185455        0.23525810
     143         -0.211151        1.000000        0.00272918        0.42256365        0.35556789        0.19627156
     144         -0.210146        1.000000        0.00320934        0.33349691        0.35300328        0.27949986
     145         -0.208580        1.000000        0.00281675        0.57203457        0.21416647        0.17513972
     146         -0.208428        1.000000        0.00199213        0.28952497        0.29046963        0.37537176
     147         -0.207771        1.000000        0.00144586        0.36687573        0.26611874        0.34333057
     148         -0.207417        1.000000        0.00153590        0.43776146        0.21051957        0.33027788
     149         -0.205794        1.000000        0.00212171        0.40707561        0.19840354        0.36719182
     150         -0.205456        1.000000        0.00272024        0.45254269        0.22964314        0.28635240
     151         -0.205045        1.000000        0.00321934        0.35694170        0.25736852        0.35605256
     152         -0.203876        1.000000        0.00286306        0.36156642        0.16860051        0.43649025
     153         -0.203271        1.000000        0.00317464        0.32415195        0.28426862        0.33376465
     154         -0.202406        1.000000        0.00400644        0.31207125        0.14347834        0.51855253
     155         -0.201917        1.000000        0.00353613        0.24962701        0.31259351        0.41196478
     156         -0.201169        1.000000        0.00263436        0.35465813        0.33788052        0.26179451
     157         -0.200652        1.000000        0.00252632        0.25077415        0.24145471        0.48476579
     158         -0.199565        1.000000        0.00251694        0.25786393        0.30269574        0.40334485
     159         -0.198541        1.000000        0.00138766        0.32723032        0.30585094        0.34054927
     160         -0.197965        1.000000        0.00336941        0.22981404        0.25054254        0.49745016
     161         -0.197009        1.000000        0.00101557        0.43165694        0.35277577        0.19735524
     162         -0.196589        1.000000        0.00101987        0.38130148        0.20101428        0.39440490
     163         -0.196293        1.000000        0.00195789        0.38966151        0.31671478        0.26951021
     164         -0.195928        1.000000        0.00156050        0.31015472        0.27172174        0.39069640
     165         -0.195079        1.000000        0.00173441        0.30258394        0.24283782        0.43822745
     166         -0.194735        1.000000        0.00130998        0.43789215        0.27885165        0.25997983
     167         -0.193768        1.000000        0.00289619        0.42345926        0.39760208        0.14864520
     168         -0.193492        1.000000        0.00175649        0.51014766        0.23900952        0.22731489
     169         -0.193361        1.000000        0.00100160        0.19710774        0.30539852        0.48785474
     170         -0.192850        1.000000        0.00081962        0.41291097        0.19665071        0.37200233
     171         -0.191807        1.000000        0.00251033        0.41537384        0.41230501        0.14451024
     172         -0.191160        1.000000        0.00095043        0.21529146        0.43465539        0.33362923
     173         -0.190214        1.000000        0.00194242        0.35144486        0.28451580        0.34005961
     174         -0.190079        1.000000        0.00330727        0.44868344        0.18355108        0.33575602
     175         -0.189442        1.000000        0.00158244        0.35071357        0.36172820        0.26909273
     176         -0.188827        1.000000        0.00150910        0.34056170        0.29915882        0.33833298
     177         -0.188174        1.000000        0.00085099        0.24880963        0.55184353        0.18847027
     178         -0.187748        1.000000        0.00109500        0.22894401        0.13954107        0.61394465
     179         -0.187689        1.000000        0.00088673        0.23291119        0.32379486        0.43415768
     180         -0.187342        1.000000        0.00032771        0.25567716        0.47721911        0.26046647
     181         -0.186849        1.000000        0.00081967        0.45473457        0.39931521        0.12611891
     182         -0.186471        1.000000        0.00069013        0.26046258        0.18677064        0.53762615
     183         -0.186117        1.000000        0.00031575        0.53268399        0.19149546        0.26972113
     184         -0.184686        1.000000        0.00100371        0.21501568        0.60016649        0.17395865
     185         -0.184079        1.000000        0.00117357        0.32135302        0.18443607        0.47324696
     186         -0.183199        1.000000        0.00219820        0.24494801        0.45755861        0.26633018
     187         -0.182472        1.000000        0.00126234        0.29001243        0.34788891        0.34022492
     188         -0.182396        1.000000        0.00049794        0.19777455        0.29600951        0.50038174
     189         -0.181912        1.000000        0.00190406        0.30995993        0.31698739        0.34494347
     190         -0.178394        1.000000        0.00036720        0.28063046        0.57054574        0.14423328
     191         -0.176336        1.000000        0.00115506        0.10711345        0.55458051        0.27929556
     192         -0.174275        1.000000        0.00021879        0.24525679        0.12558344        0.62578736
     193         -0.174209        1.000000        0.00019768        0.12746615        0.10324189        0.76510931
     194         -0.172600        1.000000        0.00087134        0.14233024        0.37390144        0.38892007
     195         -0.172076        1.000000        0.00122925        0.17535997        0.46384392        0.25171962
     196         -0.168825        0.000000        0.00122157        0.28346071        0.26455444        0.32232551
     197         -0.167272        0.000000        0.00984018        0.09845895        0.58726904        0.24086039
     198         -0.160678        0.000000        0.00400856        0.60668435        0.20189932        0.09009728
     199         -0.155514        0.000000        0.01132404        0.06152129        0.20883070        0.67706024
     200         -0.155092        0.000000        0.00482237        0.21009712        0.08627561        0.63259053
     201         -0.129184        0.000000        0.00792074        0.26562212        0.00403397        0.72188980
     202         -0.074147        0.000000        0.01413837        0.06308694        0.11158180        0.07140125
     203         -0.073773        0.000000        0.01224221        0.09916221        0.05871136        0.09471722
     204         -0.072841        0.000000        0.02468253        0.05797096        0.05806530        0.08411579
     205         -0.062705        0.000000        0.02545166        0.10037010        0.07299622        0.07691096
     206         -0.055850        0.000000        0.01545163        0.10656123        0.06632395        0.08843750
     207         -0.052997        0.000000        0.02039383        0.05342337        0.10737859        0.11742563
     208         -0.049522        0.000000        0.01782101        0.14628530        0.02725834        0.09972191
     209         -0.046686        0.000000        0.01277733        0.09718181        0.04619196        0.13676551
     210         -0.040753        0.000000        0.01946264        0.20426917        0.03220961        0.05632149
     211         -0.040501        0.000000        0.02264919        0.04228287        0.17452006        0.06848164
     212         -0.038560        0.000000        0.02068267        0.05428901        0.14576396        0.08799773
     213         -0.034739        0.000000        0.02090177        0.04006079        0.18326507        0.06923182
     214         -0.033646        0.000000        0.02239970        0.03816127        0.19569863        0.06285397
     215         -0.030607        0.000000        0.01760370        0.10733083        0.14371677        0.03660344
     216         -0.026411        0.000000        0.02461712        0.12835457        0.05347973        0.11275414
     217         -0.024009        0.000000        0.02660489        0.03139511        0.24893963        0.02594530
     218         -0.022598        0.000000        0.01846586        0.14367015        0.05011405        0.10032841
     219         -0.020635        0.000000        0.01980866        0.19579624        0.03180510        0.05822416
     220         -0.017987        0.000000        0.02268302        0.12386803        0.02862748        0.14600110
     221         -0.017747        0.000000        0.02354399        0.10835265        0.03639739        0.15429587
     222         -0.014872        0.000000        0.02364570        0.03635175        0.21417704        0.04040180
     223         -0.014478        0.000000        0.02157646        0.16323820        0.09392723        0.03807143
     224         -0.011896        0.000000        0.02659660        0.21258524        0.02468029        0.06966215
     225         -0.008742        0.000000        0.02693511        0.03920812        0.22960396        0.01444987
     226          0.088306        0.000000        0.00002608        0.00070151        0.00043553        0.00002807
     227          0.098884        0.000000        0.00007946        0.00037593        0.00176201        0.00075708
     228          0.102781        0.000000        0.00011781        0.00050608        0.00113845        0.00048900
     229          0.103763        0.000000        0.00006880        0.00126998        0.00024428        0.00111171
     230          0.103953        0.000000        0.00005673        0.00120928        0.00092014        0.00022166
     231          0.109000        0.000000        0.00013455        0.00112364        0.00133205        0.00096870
     232          0.115316        0.000000        0.00004840        0.00096383        0.00076788        0.00063150
     233          0.283666        0.000000        0.00079567        0.01161983        0.00143308        0.00196222
     234          0.284818        0.000000        0.00010198        0.00084687        0.00258819        0.00028787
     235          0.286037        0.000000        0.00210970        0.00018189        0.00334662        0.00890023
     236          0.290041        0.000000        0.00022230        0.00277748        0.00050423        0.00101003
     237          0.293169        0.000000        0.00005896        0.00027275        0.00022643        0.00135425
     238          0.294703        0.000000        0.00053215        0.01069450        0.00601597        0.00293647
     239          0.295023        0.000000        0.00075794        0.00537206        0.00854614        0.00259249
     240          0.295166        0.000000        0.00071841        0.01248018        0.00194804        0.00387779
     241          0.296596        0.000000        0.00042588        0.00542208        0.00242622        0.00012727
     242          0.298059        0.000000        0.00012561        0.00179236        0.00249929        0.00182082
     243          0.300357        0.000000        0.00082200        0.01025244        0.00541031        0.00025778
     244          0.301918        0.000000        0.00015640        0.00051710        0.00215389        0.00080203
     245          0.307551        0.000000        0.00068648        0.00662853        0.00048295        0.00691749
     246          0.311188        0.000000        0.00048504        0.00800673        0.00083080        0.00141706
     247          0.316486        0.000000        0.00084963        0.01163732        0.00282225        0.00255310
     248          0.327639        0.000000        0.00079051        0.00445063        0.00759202        0.00247380
     249          0.336288        0.000000        0.00101463        0.00811451        0.00162984        0.00513793
     250          0.337491        0.000000        0.00145275        0.00310401        0.00473202        0.00731975
     251          0.337677        0.000000        0.00098002        0.01145890        0.00631350        0.00119483
     252          0.344754        0.000000        0.00034224        0.01797781        0.00394984        0.00250154
     253          0.349258        0.000000        0.00086316        0.00960885        0.00091562        0.00670189
     254          0.454596        0.000000        0.00001005        0.00007622        0.00024877        0.00007345
     255          0.459539        0.000000        0.00004238        0.00050416        0.00018581        0.00026973
     256          0.462974        0.000000        0.00004431        0.00022614        0.00017999        0.00020937
     257          0.464494        0.000000        0.00006305        0.00079510        0.00063942        0.00008906
     258          0.466161        0.000000        0.00005791        0.00051701        0.00049957        0.00028451
     259          0.467274        0.000000        0.00003789        0.00037495        0.00029674        0.00016215