# Projected DOS for atomic kind Pb at iteration step i = 0, E(Fermi) =    -0.172076 a.u.
#     MO Eigenvalue [a.u.]      Occupation                 s                py                pz                px
       1         -0.952917        1.000000        0.00000006        0.00000013        0.00000074        0.00000009
       2         -0.945306        1.000000        0.00000041        0.00000303        0.00000698        0.00000353
       3         -0.942427        1.000000        0.00000021        0.00000088        0.00000128        0.00000056
       4         -0.940424        1.000000        0.00000063        0.00000725        0.00000575        0.00000603
       5         -0.936657        1.000000        0.00000063        0.00000659        0.00000722        0.00000364
       6         -0.936356        1.000000        0.00000047        0.00000255        0.00000351        0.00000487
       7         -0.926083        1.000000        0.00000116        0.00001520        0.00001021        0.00000968
       8         -0.693812        1.000000        0.00000321        0.00000211        0.00000538        0.00000016
       9         -0.690003        1.000000        0.00001608        0.00001377        0.00001450        0.00000797
      10         -0.684866        1.000000        0.00003327        0.00002295        0.00003226        0.00001149
      11         -0.683701        1.000000        0.00002430        0.00002991        0.00003801        0.00002333
      12         -0.683458        1.000000        0.00008481        0.00008381        0.00004665        0.00006171
      13         -0.680384        1.000000        0.00004101        0.00003748        0.00005461        0.00003597
      14         -0.671850        1.000000        0.00006852        0.00005107        0.00004000        0.00001953
      15         -0.640367        1.000000        0.00171104        0.00027921        0.00206616        0.00047821
      16         -0.631081        1.000000        0.01278593        0.00034484        0.00628117        0.00080888
      17         -0.622812        1.000000        0.02272304        0.00745957        0.00040805        0.00843864
      18         -0.619688        1.000000        0.00153511        0.00563975        0.00005270        0.00010567
      19         -0.615428        1.000000        0.03865301        0.01114823        0.00069644        0.00074582
      20         -0.603536        1.000000        0.04518488        0.00223429        0.00334446        0.00843520
      21         -0.597806        1.000000        0.11713215        0.00803155        0.00042034        0.00131438
      22         -0.594684        1.000000        0.10251823        0.00345203        0.00127209        0.01323716
      23         -0.594373        1.000000        0.09325895        0.00374008        0.00133658        0.00995063
      24         -0.593210        1.000000        0.07971362        0.00446828        0.00170094        0.01254834
      25         -0.591256        1.000000        0.02289651        0.01175940        0.00085720        0.00408559
      26         -0.588247        1.000000        0.02393469        0.00512255        0.00479952        0.00379973
      27         -0.587614        1.000000        0.06003107        0.00485422        0.00297439        0.00286391
      28         -0.586131        1.000000        0.04343316        0.00478102        0.00130143        0.01296428
      29         -0.583927        1.000000        0.03158766        0.02147233        0.00091572        0.00326079
      30         -0.583167        1.000000        0.00555299        0.00144911        0.00398687        0.00326826
      31         -0.582586        1.000000        0.02692637        0.00698869        0.00702770        0.00725133
      32         -0.582336        1.000000        0.00869998        0.00641019        0.00154589        0.00151050
      33         -0.580369        1.000000        0.02184507        0.00362350        0.02485972        0.00489512
      34         -0.580076        1.000000        0.01762318        0.00535037        0.02522736        0.00347875
      35         -0.578440        1.000000        0.01305033        0.00833514        0.00395226        0.00213840
      36         -0.577987        1.000000        0.02851743        0.00765950        0.00882663        0.00919153
      37         -0.577674        1.000000        0.00513862        0.00571199        0.00199846        0.00156843
      38         -0.576143        1.000000        0.00922209        0.00539901        0.01526033        0.00550602
      39         -0.575208        1.000000        0.02824490        0.00561100        0.02280590        0.00372690
      40         -0.574826        1.000000        0.00386426        0.01902673        0.01175098        0.00446369
      41         -0.574316        1.000000        0.01454464        0.00253577        0.01790324        0.00352768
      42         -0.573214        1.000000        0.00214200        0.00650656        0.00149247        0.01201920
      43         -0.572805        1.000000        0.00023914        0.01474560        0.02573987        0.00646953
      44         -0.571373        1.000000        0.00212187        0.01825694        0.00525673        0.00358158
      45         -0.570791        1.000000        0.07727387        0.00681430        0.01160938        0.00278430
      46         -0.570480        1.000000        0.01059643        0.00176704        0.01091732        0.00250196
      47         -0.569813        1.000000        0.04258720        0.00606817        0.01622781        0.00303427
      48         -0.568011        1.000000        0.00108768        0.00075985        0.00125168        0.00081887
      49         -0.566927        1.000000        0.01381361        0.00061228        0.01223833        0.02558568
      50         -0.564172        1.000000        0.00081376        0.00280108        0.00158072        0.00672039
      51         -0.562723        1.000000        0.00594536        0.00154343        0.00231406        0.00017514
      52         -0.561039        1.000000        0.00376987        0.02035360        0.01625306        0.00036896
      53         -0.560386        1.000000        0.00638151        0.00984504        0.00557971        0.00038896
      54         -0.559964        1.000000        0.00713112        0.00700831        0.00190744        0.00046416
      55         -0.559374        1.000000        0.00089803        0.00226628        0.00258556        0.00130957
      56         -0.557587        1.000000        0.00492786        0.00024454        0.00170251        0.00570232
      57         -0.556620        1.000000        0.00091870        0.00730922        0.00443795        0.00089738
      58         -0.554432        1.000000        0.02719947        0.02344850        0.00197853        0.00045165
      59         -0.551155        1.000000        0.02611240        0.00290371        0.00061431        0.00062518
      60         -0.545923        1.000000        0.00288479        0.00096924        0.00644855        0.00021353
      61         -0.544889        1.000000        0.01168585        0.00239072        0.00396915        0.00694566
      62         -0.541933        1.000000        0.00195987        0.00011899        0.01353897        0.00449434
      63         -0.538446        1.000000        0.00038725        0.00448311        0.00137116        0.00016502
      64         -0.538039        1.000000        0.00902753        0.00115003        0.00759856        0.00016696
      65         -0.473953        1.000000        0.00277381        0.00002435        0.00010052        0.00001030
      66         -0.469955        1.000000        0.01218954        0.00005717        0.00009673        0.00004526
      67         -0.465112        1.000000        0.57285831        0.00008345        0.00180299        0.00013329
      68         -0.464751        1.000000        0.15870949        0.00005413        0.00030701        0.00004291
      69         -0.464189        1.000000        0.06745414        0.00017713        0.00009925        0.00003208
      70         -0.463812        1.000000        0.01177598        0.00003904        0.00003175        0.00003196
      71         -0.461699        1.000000        0.32163501        0.00041685        0.00028722        0.00024809
      72         -0.460867        1.000000        0.58798645        0.00093478        0.00052109        0.00063207
      73         -0.459447        1.000000        0.39460760        0.00045652        0.00022391        0.00033179
      74         -0.458486        1.000000        0.73877855        0.00001646        0.00118036        0.00013668
      75         -0.454241        1.000000        0.59667468        0.00094396        0.00052061        0.00069174
      76         -0.451607        1.000000        0.11037692        0.00013026        0.00015145        0.00023495
      77         -0.450242        1.000000        0.71491492        0.00166219        0.00098081        0.00072196
      78         -0.443153        1.000000        0.70988943        0.00044364        0.00039099        0.00043925
      79         -0.439585        1.000000        0.75001858        0.00047893        0.00022733        0.00078622
      80         -0.410742        1.000000        0.00053678        0.00000285        0.00008006        0.00000615
      81         -0.409900        1.000000        0.00005534        0.00001038        0.00000932        0.00000219
      82         -0.407698        1.000000        0.00071147        0.00007864        0.00001394        0.00009557
      83         -0.406292        1.000000        0.00117627        0.00004863        0.00007392        0.00010756
      84         -0.402421        1.000000        0.00034155        0.00015394        0.00024528        0.00004022
      85         -0.401821        1.000000        0.00026967        0.00008715        0.00015065        0.00001446
      86         -0.400759        1.000000        0.00013077        0.00004380        0.00008746        0.00004830
      87         -0.400112        1.000000        0.00040724        0.00020334        0.00004297        0.00009550
      88         -0.398917        1.000000        0.00093855        0.00043094        0.00028208        0.00020641
      89         -0.398313        1.000000        0.00046309        0.00015802        0.00015775        0.00008800
      90         -0.398197        1.000000        0.00055391        0.00013311        0.00012444        0.00014203
      91         -0.395468        1.000000        0.00087966        0.00005569        0.00027793        0.00026587
      92         -0.390100        1.000000        0.00006614        0.00001286        0.00003578        0.00001045
      93         -0.386859        1.000000        0.00017289        0.00005442        0.00014314        0.00003536
      94         -0.323842        1.000000        0.00592823        0.00689483        0.00791646        0.00204554
      95         -0.315921        1.000000        0.00416384        0.02314884        0.05187562        0.01789479
      96         -0.305522        1.000000        0.00104077        0.00851617        0.00863573        0.00270672
      97         -0.303267        1.000000        0.00924364        0.05931206        0.00820233        0.01636077
      98         -0.299334        1.000000        0.00541929        0.10440041        0.00525745        0.02770743
      99         -0.276639        1.000000        0.00605939        0.08814138        0.08215332        0.03581334
     100         -0.273909        1.000000        0.00407630        0.11972595        0.04890986        0.02736907
     101         -0.273376        1.000000        0.00563435        0.05304513        0.03723512        0.02850783
     102         -0.269729        1.000000        0.00231931        0.07169750        0.08783851        0.08278115
     103         -0.268748        1.000000        0.00217725        0.08672557        0.06744385        0.01987584
     104         -0.266653        1.000000        0.00428045        0.05637971        0.09947197        0.05156978
     105         -0.265242        1.000000        0.00220564        0.04584821        0.02645955        0.10669622
     106         -0.264939        1.000000        0.00092663        0.01680807        0.04321354        0.18490647
     107         -0.263329        1.000000        0.00130077        0.06393626        0.08425713        0.07112516
     108         -0.260754        1.000000        0.00116053        0.02495108        0.13451562        0.04051901
     109         -0.257655        1.000000        0.00191754        0.06720272        0.07691304        0.05353475
     110         -0.256437        1.000000        0.00043967        0.12258892        0.04168245        0.06720811
     111         -0.256062        1.000000        0.00056018        0.06615017        0.09966869        0.04730066
     112         -0.254499        1.000000        0.00023541        0.03909714        0.09874693        0.05243149
     113         -0.253895        1.000000        0.00171514        0.05836506        0.06896817        0.05431319
     114         -0.252564        1.000000        0.00084398        0.04410882        0.01960211        0.01446641
     115         -0.251026        1.000000        0.00132388        0.03292207        0.12097195        0.03905214
     116         -0.247308        1.000000        0.00417952        0.03799276        0.10021464        0.02205754
     117         -0.245709        1.000000        0.00834727        0.03563145        0.03205291        0.03506563
     118         -0.244702        1.000000        0.00093649        0.04947216        0.06191496        0.04765013
     119         -0.244475        1.000000        0.00285777        0.05714077        0.02354223        0.07731083
     120         -0.243351        1.000000        0.00779746        0.05883431        0.04945069        0.10298070
     121         -0.240288        1.000000        0.00462950        0.05352402        0.07141823        0.02667554
     122         -0.239086        1.000000        0.00068295        0.01026373        0.02660039        0.00887045
     123         -0.237191        1.000000        0.00434952        0.03505358        0.01135317        0.05268560
     124         -0.236269        1.000000        0.00736324        0.04304242        0.02349150        0.06180703
     125         -0.235699        1.000000        0.00071105        0.05104875        0.04061853        0.01398172
     126         -0.234113        1.000000        0.00514370        0.03395201        0.03653220        0.05990673
     127         -0.233479        1.000000        0.00278374        0.02696161        0.02847277        0.07904081
     128         -0.232405        1.000000        0.00688786        0.01349483        0.05233186        0.02066944
     129         -0.229410        1.000000        0.00279124        0.01536909        0.00402911        0.01310523
     130         -0.227763        1.000000        0.00619093        0.03354551        0.01682629        0.03148606
     131         -0.225413        1.000000        0.00676435        0.01711937        0.01410854        0.01541330
     132         -0.224052        1.000000        0.00381523        0.00929524        0.00546815        0.00631669
     133         -0.222361        1.000000        0.00616989        0.00712209        0.03678514        0.01912073
     134         -0.220691        1.000000        0.01186210        0.02372241        0.00443830        0.02592525
     135         -0.219020        1.000000        0.01156284        0.01994997        0.00751281        0.01582369
     136         -0.218327        1.000000        0.00550106        0.01170736        0.01405174        0.01072762
     137         -0.216233        1.000000        0.00930633        0.01775758        0.00970756        0.01527219
     138         -0.215483        1.000000        0.00862534        0.01697519        0.01753146        0.00552513
     139         -0.214606        1.000000        0.00316322        0.00401023        0.00622931        0.00325260
     140         -0.214369        1.000000        0.00198375        0.00230935        0.00380144        0.00408558
     141         -0.213409        1.000000        0.01042872        0.01397464        0.01519792        0.00729744
     142         -0.211776        1.000000        0.00185123        0.00486602        0.00131894        0.00443009
     143         -0.211151        1.000000        0.00271703        0.00689313        0.00285009        0.00407083
     144         -0.210146        1.000000        0.00551268        0.00550613        0.00688301        0.00514804
     145         -0.208580        1.000000        0.00559439        0.01142302        0.00432184        0.00329823
     146         -0.208428        1.000000        0.01423931        0.00656204        0.00555385        0.01195375
     147         -0.207771        1.000000        0.00176906        0.00423897        0.00119142        0.00610050
     148         -0.207417        1.000000        0.00376240        0.00433063        0.00190794        0.00252004
     149         -0.205794        1.000000        0.00308779        0.00203272        0.00273771        0.00722693
     150         -0.205456        1.000000        0.00774805        0.00575394        0.00367087        0.00554706
     151         -0.205045        1.000000        0.00365166        0.00401755        0.00208409        0.00954209
     152         -0.203876        1.000000        0.00652456        0.00785201        0.00351494        0.00751059
     153         -0.203271        1.000000        0.01317637        0.00914699        0.00783041        0.02021549
     154         -0.202406        1.000000        0.00719891        0.00180700        0.00203895        0.00381199
     155         -0.201917        1.000000        0.00294426        0.00231521        0.00302770        0.00612683
     156         -0.201169        1.000000        0.01116176        0.01022695        0.00431295        0.01399096
     157         -0.200652        1.000000        0.00515639        0.00475782        0.00307337        0.00221457
     158         -0.199565        1.000000        0.01059553        0.00477238        0.00225674        0.01245161
     159         -0.198541        1.000000        0.00776531        0.00253732        0.00266336        0.00757213
     160         -0.197965        1.000000        0.00210238        0.00189707        0.00160509        0.00278429
     161         -0.197009        1.000000        0.00328030        0.00277840        0.00102067        0.00487360
     162         -0.196589        1.000000        0.01035999        0.00175581        0.00228367        0.00360704
     163         -0.196293        1.000000        0.00426456        0.00087691        0.00114771        0.00586330
     164         -0.195928        1.000000        0.00787748        0.00235131        0.00180610        0.00588641
     165         -0.195079        1.000000        0.00132341        0.00094961        0.00069391        0.00227540
     166         -0.194735        1.000000        0.00758671        0.00252979        0.00165452        0.00509339
     167         -0.193768        1.000000        0.00935305        0.00379018        0.00272738        0.00220541
     168         -0.193492        1.000000        0.01103708        0.00064118        0.00266126        0.00309845
     169         -0.193361        1.000000        0.00331686        0.00043102        0.00093511        0.00054028
     170         -0.192850        1.000000        0.00781446        0.00151752        0.00277478        0.00194627
     171         -0.191807        1.000000        0.00472851        0.00189594        0.00267407        0.00169668
     172         -0.191160        1.000000        0.00173317        0.00259717        0.00040136        0.00673566
     173         -0.190214        1.000000        0.00303431        0.00505586        0.00229950        0.00557790
     174         -0.190079        1.000000        0.00441794        0.00151292        0.00064210        0.00317387
     175         -0.189442        1.000000        0.00282121        0.00081076        0.00241800        0.00349413
     176         -0.188827        1.000000        0.00721461        0.00207348        0.00119748        0.00401923
     177         -0.188174        1.000000        0.00397509        0.00126519        0.00066463        0.00212725
     178         -0.187748        1.000000        0.00584405        0.00238590        0.00143765        0.00473400
     179         -0.187689        1.000000        0.00312068        0.00088008        0.00084525        0.00173340
     180         -0.187342        1.000000        0.00283957        0.00151049        0.00036325        0.00017130
     181         -0.186849        1.000000        0.00662960        0.00236949        0.00264300        0.00302670
     182         -0.186471        1.000000        0.00479575        0.00109343        0.00131520        0.00412065
     183         -0.186117        1.000000        0.00222834        0.00056780        0.00124924        0.00082715
     184         -0.184686        1.000000        0.00090562        0.00092734        0.00033102        0.00091015
     185         -0.184079        1.000000        0.00634762        0.00214739        0.00054610        0.00685367
     186         -0.183199        1.000000        0.01706148        0.00273521        0.00280196        0.00299590
     187         -0.182472        1.000000        0.01293617        0.00215920        0.00088018        0.00351368
     188         -0.182396        1.000000        0.00103439        0.00015612        0.00024024        0.00211760
     189         -0.181912        1.000000        0.01373348        0.00319593        0.00078219        0.00656725
     190         -0.178394        1.000000        0.00087092        0.00081837        0.00011447        0.00010972
     191         -0.176336        1.000000        0.04344820        0.00824173        0.00149231        0.00398096
     192         -0.174275        1.000000        0.00146844        0.00055885        0.00017839        0.00049744
     193         -0.174209        1.000000        0.00224070        0.00009919        0.00130169        0.00003558
     194         -0.172600        1.000000        0.07695715        0.01010803        0.00232942        0.00421877
     195         -0.172076        1.000000        0.08731549        0.01027825        0.00356841        0.00592434
     196         -0.168825        0.000000        0.11760039        0.00367227        0.00336732        0.00339003
     197         -0.167272        0.000000        0.05114084        0.00077144        0.00194985        0.00954470
     198         -0.160678        0.000000        0.09031439        0.00141151        0.00074502        0.00449246
     199         -0.155514        0.000000        0.00862890        0.01482946        0.00710081        0.00992633
     200         -0.155092        0.000000        0.05811687        0.00515244        0.00123570        0.00140384
     201         -0.129184        0.000000        0.00008409        0.00015179        0.00006801        0.00012984
     202         -0.074147        0.000000        0.00598388        0.14727161        0.09365216        0.49123148
     203         -0.073773        0.000000        0.00019185        0.06026364        0.01009540        0.66431002
     204         -0.072841        0.000000        0.00131078        0.06576692        0.09509050        0.61210189
     205         -0.062705        0.000000        0.00617019        0.21736318        0.13794276        0.36022242
     206         -0.055850        0.000000        0.01185831        0.15023485        0.08621978        0.47416853
     207         -0.052997        0.000000        0.00481821        0.06007253        0.03908727        0.59685158
     208         -0.049522        0.000000        0.00190811        0.38579949        0.05098637        0.26948192
     209         -0.046686        0.000000        0.00426570        0.16721730        0.14658967        0.38847940
     210         -0.040753        0.000000        0.00287011        0.55172050        0.08043290        0.05211110
     211         -0.040501        0.000000        0.00467212        0.11548554        0.55313826        0.01820818
     212         -0.038560        0.000000        0.00533154        0.09548926        0.29097638        0.29817870
     213         -0.034739        0.000000        0.00317137        0.10465154        0.46099883        0.11722515
     214         -0.033646        0.000000        0.00158281        0.22299044        0.42952916        0.02597816
     215         -0.030607        0.000000        0.00523099        0.28605758        0.33938839        0.06287972
     216         -0.026411        0.000000        0.00064791        0.28266100        0.15841111        0.23808854
     217         -0.024009        0.000000        0.00221319        0.05266631        0.59242312        0.01937125
     218         -0.022598        0.000000        0.00130957        0.39605007        0.19648100        0.09147718
     219         -0.020635        0.000000        0.00209665        0.54063594        0.12595560        0.02519013
     220         -0.017987        0.000000        0.00040500        0.24628963        0.09181437        0.33975313
     221         -0.017747        0.000000        0.00031529        0.20357663        0.10543246        0.36756461
     222         -0.014872        0.000000        0.00023917        0.08668891        0.55208249        0.04479070
     223         -0.014478        0.000000        0.00069020        0.42341631        0.23378167        0.02433621
     224         -0.011896        0.000000        0.00030108        0.56379500        0.02777574        0.07348660
     225         -0.008742        0.000000        0.00014521        0.07827967        0.59806837        0.01112151
     226          0.088306        0.000000        0.00000080        0.00003718        0.00007439        0.00001593
     227          0.098884        0.000000        0.00000187        0.00020538        0.00005951        0.00001347
     228          0.102781        0.000000        0.00000975        0.00015952        0.00003946        0.00005420
     229          0.103763        0.000000        0.00000449        0.00051361        0.00015731        0.00007655
     230          0.103953        0.000000        0.00000047        0.00007421        0.00003272        0.00001421
     231          0.109000        0.000000        0.00000657        0.00008514        0.00007090        0.00017496
     232          0.115316        0.000000        0.00000097        0.00005879        0.00008930        0.00001735
     233          0.283666        0.000000        0.00001483        0.00012114        0.00030541        0.00000311
     234          0.284818        0.000000        0.00000555        0.00009384        0.00004503        0.00000607
     235          0.286037        0.000000        0.00000636        0.00005489        0.00022976        0.00000890
     236          0.290041        0.000000        0.00000524        0.00003235        0.00001931        0.00000052
     237          0.293169        0.000000        0.00000089        0.00004247        0.00005111        0.00012508
     238          0.294703        0.000000        0.00001262        0.00033486        0.00005127        0.00002904
     239          0.295023        0.000000        0.00000689        0.00014889        0.00007201        0.00002151
     240          0.295166        0.000000        0.00000587        0.00006822        0.00015479        0.00006521
     241          0.296596        0.000000        0.00000548        0.00006952        0.00002837        0.00006186
     242          0.298059        0.000000        0.00003577        0.00020099        0.00007194        0.00006972
     243          0.300357        0.000000        0.00000374        0.00007607        0.00002792        0.00013715
     244          0.301918        0.000000        0.00000368        0.00002138        0.00003315        0.00003638
     245          0.307551        0.000000        0.00000177        0.00003519        0.00007173        0.00003622
     246          0.311188        0.000000        0.00000312        0.00003424        0.00003257        0.00002232
     247          0.316486        0.000000        0.00001875        0.00012626        0.00030226        0.00001434
     248          0.327639        0.000000        0.00000364        0.00008537        0.00001153        0.00001169
     249          0.336288        0.000000        0.00002402        0.00016414        0.00013330        0.00016836
     250          0.337491        0.000000        0.00002242        0.00008405        0.00012484        0.00005756
     251          0.337677        0.000000        0.00000511        0.00003663        0.00002434        0.00025661
     252          0.344754        0.000000        0.00000985        0.00008280        0.00007184        0.00004024
     253          0.349258        0.000000        0.00000434        0.00003328        0.00010366        0.00002476
     254          0.454596        0.000000        0.00000021        0.00000283        0.00000117        0.00000035
     255          0.459539        0.000000        0.00000057        0.00000591        0.00001179        0.00000090
     256          0.462974        0.000000        0.00000043        0.00000681        0.00001218        0.00000472
     257          0.464494        0.000000        0.00000471        0.00000585        0.00001051        0.00003326
     258          0.466161        0.000000        0.00000210        0.00000826        0.00000899        0.00001171
     259          0.467274        0.000000        0.00000051        0.00000845        0.00008809        0.00001778