# Projected DOS for atomic kind N at iteration step i = 0, E(Fermi) =    -0.172076 a.u.
#     MO Eigenvalue [a.u.]      Occupation                 s                py                pz                px
       1         -0.952917        1.000000        0.61487039        0.00024073        0.00001485        0.00009703
       2         -0.945306        1.000000        0.61476025        0.00004659        0.00001429        0.00023584
       3         -0.942427        1.000000        0.61147432        0.00014766        0.00000092        0.00004794
       4         -0.940424        1.000000        0.61384834        0.00016796        0.00035802        0.00001422
       5         -0.936657        1.000000        0.61274591        0.00005596        0.00011325        0.00005395
       6         -0.936356        1.000000        0.61321200        0.00000028        0.00003036        0.00037173
       7         -0.926083        1.000000        0.61321567        0.00002461        0.00015370        0.00001552
       8         -0.693812        1.000000        0.01613959        0.00272885        0.00067279        0.19247927
       9         -0.690003        1.000000        0.01758701        0.00182035        0.00077709        0.18813317
      10         -0.684866        1.000000        0.01733111        0.00100554        0.00434497        0.18427466
      11         -0.683701        1.000000        0.01506282        0.00335606        0.03681828        0.15839893
      12         -0.683458        1.000000        0.01524369        0.00042819        0.06127292        0.13524494
      13         -0.680384        1.000000        0.01620033        0.00083012        0.08158091        0.11183347
      14         -0.671850        1.000000        0.01697231        0.01211267        0.05787866        0.12123521
      15         -0.640367        1.000000        0.00052122        0.00707744        0.00035655        0.00015041
      16         -0.631081        1.000000        0.00007255        0.00187653        0.00020816        0.00002237
      17         -0.622812        1.000000        0.00001782        0.00011144        0.00098806        0.00001704
      18         -0.619688        1.000000        0.00002926        0.00004768        0.00379947        0.00010352
      19         -0.615428        1.000000        0.00017236        0.00015451        0.00874970        0.00018602
      20         -0.603536        1.000000        0.00010973        0.00686841        0.01400314        0.00143594
      21         -0.597806        1.000000        0.00028567        0.00845310        0.01450569        0.00523504
      22         -0.594684        1.000000        0.00010279        0.01807555        0.00744948        0.00059495
      23         -0.594373        1.000000        0.00032245        0.00300421        0.00580930        0.00031176
      24         -0.593210        1.000000        0.00002488        0.01213800        0.00536493        0.00191696
      25         -0.591256        1.000000        0.00017520        0.00863735        0.07435724        0.02201116
      26         -0.588247        1.000000        0.00019855        0.12376945        0.02019891        0.00090737
      27         -0.587614        1.000000        0.00023209        0.05277940        0.00587957        0.00065310
      28         -0.586131        1.000000        0.00024924        0.06859155        0.01843448        0.00262564
      29         -0.583927        1.000000        0.00016878        0.00434004        0.00888880        0.00275048
      30         -0.583167        1.000000        0.00005842        0.02171212        0.05049320        0.00205102
      31         -0.582586        1.000000        0.00045931        0.07879400        0.03562429        0.00459406
      32         -0.582336        1.000000        0.00012495        0.03311305        0.00880139        0.00010464
      33         -0.580369        1.000000        0.00010583        0.02096978        0.02357282        0.00497399
      34         -0.580076        1.000000        0.00011862        0.03037524        0.02250013        0.00385749
      35         -0.578440        1.000000        0.00002333        0.05270394        0.04856392        0.00133700
      36         -0.577987        1.000000        0.00018720        0.02916823        0.10508494        0.01049685
      37         -0.577674        1.000000        0.00004408        0.00965776        0.37976114        0.00333959
      38         -0.576143        1.000000        0.00017552        0.08588725        0.01934147        0.00235837
      39         -0.575208        1.000000        0.00007631        0.02820475        0.01696891        0.00394521
      40         -0.574826        1.000000        0.00006714        0.01503857        0.05035137        0.01198776
      41         -0.574316        1.000000        0.00010877        0.03990058        0.05003969        0.01150922
      42         -0.573214        1.000000        0.00025072        0.03874230        0.14952821        0.03716412
      43         -0.572805        1.000000        0.00002311        0.00700565        0.00527599        0.00338655
      44         -0.571373        1.000000        0.00000268        0.00197830        0.00078096        0.00040608
      45         -0.570791        1.000000        0.00021854        0.04696479        0.03366350        0.00610838
      46         -0.570480        1.000000        0.00005924        0.13054424        0.09939135        0.04167791
      47         -0.569813        1.000000        0.00017540        0.05915960        0.02476560        0.00054077
      48         -0.568011        1.000000        0.00024326        0.45617937        0.06267159        0.00039704
      49         -0.566927        1.000000        0.00026521        0.00604383        0.06190730        0.01095471
      50         -0.564172        1.000000        0.00008957        0.03167225        0.38963232        0.00436950
      51         -0.562723        1.000000        0.00029886        0.08408971        0.31609569        0.12925128
      52         -0.561039        1.000000        0.00018306        0.04791617        0.03447775        0.01961321
      53         -0.560386        1.000000        0.00035349        0.16150429        0.09018003        0.02419482
      54         -0.559964        1.000000        0.00045708        0.28109512        0.11132601        0.02555825
      55         -0.559374        1.000000        0.00012725        0.01339370        0.03174761        0.01030364
      56         -0.557587        1.000000        0.00117029        0.11045925        0.21471286        0.15715855
      57         -0.556620        1.000000        0.00118675        0.24796522        0.02243296        0.00097569
      58         -0.554432        1.000000        0.00009981        0.02647660        0.12592180        0.03340614
      59         -0.551155        1.000000        0.00091684        0.27939406        0.17535737        0.00550168
      60         -0.545923        1.000000        0.00050292        0.00415463        0.34270491        0.14235991
      61         -0.544889        1.000000        0.00084382        0.32384176        0.03667595        0.02779600
      62         -0.541933        1.000000        0.00119613        0.29013604        0.01784493        0.01427629
      63         -0.538446        1.000000        0.00053755        0.29681740        0.09303333        0.00681081
      64         -0.538039        1.000000        0.00018056        0.41950999        0.00104747        0.04259992
      65         -0.473953        1.000000        0.00854975        0.00111507        0.00184072        0.43707514
      66         -0.469955        1.000000        0.00866002        0.00230472        0.00281855        0.42526308
      67         -0.465112        1.000000        0.00177371        0.00064152        0.00150851        0.09059020
      68         -0.464751        1.000000        0.00694254        0.00232536        0.00496960        0.33658536
      69         -0.464189        1.000000        0.00882455        0.00125573        0.11806547        0.27734570
      70         -0.463812        1.000000        0.00922083        0.01060627        0.09484012        0.32658167
      71         -0.461699        1.000000        0.00520129        0.00343280        0.09716779        0.13246899
      72         -0.460867        1.000000        0.00108412        0.00035982        0.02397032        0.02974615
      73         -0.459447        1.000000        0.00334584        0.00036801        0.08815629        0.09827970
      74         -0.458486        1.000000        0.00009370        0.00077452        0.00370363        0.00606609
      75         -0.454241        1.000000        0.00161304        0.00756201        0.02082826        0.03879886
      76         -0.451607        1.000000        0.00701138        0.02553035        0.10570375        0.23893002
      77         -0.450242        1.000000        0.00003535        0.00049271        0.00058256        0.00371275
      78         -0.443153        1.000000        0.00001685        0.00139346        0.00381165        0.00762157
      79         -0.439585        1.000000        0.00000647        0.00119211        0.00039771        0.00173131
      80         -0.410742        1.000000        0.00000618        0.03823250        0.00001599        0.00076112
      81         -0.409900        1.000000        0.00000591        0.00024442        0.03371388        0.00025724
      82         -0.407698        1.000000        0.00000749        0.00033098        0.03852914        0.00046041
      83         -0.406292        1.000000        0.00000643        0.04390412        0.00044028        0.00045771
      84         -0.402421        1.000000        0.00001017        0.00378605        0.03863558        0.00088603
      85         -0.401821        1.000000        0.00000050        0.03291063        0.00104324        0.00007787
      86         -0.400759        1.000000        0.00001588        0.03326922        0.00480097        0.00245000
      87         -0.400112        1.000000        0.00001009        0.00579111        0.02185250        0.00893469
      88         -0.398917        1.000000        0.00001735        0.03934315        0.00041177        0.00036524
      89         -0.398313        1.000000        0.00000377        0.00092654        0.02592823        0.00755236
      90         -0.398197        1.000000        0.00001136        0.00203388        0.02146164        0.01270208
      91         -0.395468        1.000000        0.00001126        0.03698851        0.00055052        0.00192136
      92         -0.390100        1.000000        0.00000193        0.00963123        0.02336988        0.00579659
      93         -0.386859        1.000000        0.00000691        0.02695412        0.00292664        0.00949548
      94         -0.323842        1.000000        0.00026085        0.00149430        0.00026912        0.00036954
      95         -0.315921        1.000000        0.00005312        0.00007713        0.00005780        0.00001334
      96         -0.305522        1.000000        0.00003209        0.00003161        0.00009644        0.00001301
      97         -0.303267        1.000000        0.00006135        0.00008573        0.00017266        0.00002515
      98         -0.299334        1.000000        0.00010991        0.00001734        0.00051370        0.00010594
      99         -0.276639        1.000000        0.00042807        0.00147061        0.00022908        0.00040722
     100         -0.273909        1.000000        0.00050217        0.00095819        0.00120539        0.00046551
     101         -0.273376        1.000000        0.00197711        0.00443527        0.00025218        0.00182251
     102         -0.269729        1.000000        0.00025597        0.00031475        0.00024560        0.00012291
     103         -0.268748        1.000000        0.00051827        0.00023673        0.00025602        0.00021731
     104         -0.266653        1.000000        0.00020456        0.00062630        0.00021277        0.00018959
     105         -0.265242        1.000000        0.00028313        0.00077792        0.00078467        0.00009524
     106         -0.264939        1.000000        0.00030043        0.00134636        0.00038247        0.00038041
     107         -0.263329        1.000000        0.00016515        0.00013819        0.00043509        0.00022355
     108         -0.260754        1.000000        0.00050404        0.00139610        0.00064155        0.00047798
     109         -0.257655        1.000000        0.00022746        0.00108502        0.00049270        0.00057741
     110         -0.256437        1.000000        0.00024461        0.00013325        0.00031138        0.00017111
     111         -0.256062        1.000000        0.00021690        0.00017043        0.00051731        0.00014870
     112         -0.254499        1.000000        0.00032747        0.00121852        0.00014439        0.00044648
     113         -0.253895        1.000000        0.00021464        0.00082048        0.00006259        0.00020456
     114         -0.252564        1.000000        0.00087348        0.00021152        0.00037273        0.00045376
     115         -0.251026        1.000000        0.00036547        0.00062408        0.00048576        0.00037096
     116         -0.247308        1.000000        0.00015767        0.00041696        0.00048053        0.00019565
     117         -0.245709        1.000000        0.00046187        0.00038310        0.00037969        0.00030912
     118         -0.244702        1.000000        0.00026259        0.00049384        0.00047591        0.00033905
     119         -0.244475        1.000000        0.00012958        0.00080454        0.00017623        0.00011187
     120         -0.243351        1.000000        0.00028030        0.00066755        0.00031484        0.00023548
     121         -0.240288        1.000000        0.00025282        0.00063597        0.00031707        0.00018662
     122         -0.239086        1.000000        0.00027556        0.00084222        0.00197760        0.00025189
     123         -0.237191        1.000000        0.00054880        0.00027454        0.00135859        0.00031058
     124         -0.236269        1.000000        0.00039717        0.00055476        0.00081186        0.00009132
     125         -0.235699        1.000000        0.00096382        0.00012718        0.00053988        0.00053044
     126         -0.234113        1.000000        0.00165433        0.00066380        0.00234762        0.00094522
     127         -0.233479        1.000000        0.00015073        0.00051156        0.00037179        0.00010102
     128         -0.232405        1.000000        0.00063783        0.00113332        0.00018471        0.00034197
     129         -0.229410        1.000000        0.00084837        0.00033236        0.00224959        0.00027717
     130         -0.227763        1.000000        0.00044721        0.00057865        0.00080888        0.00043785
     131         -0.225413        1.000000        0.00095731        0.00225235        0.00053292        0.00070519
     132         -0.224052        1.000000        0.00299484        0.00432079        0.00117313        0.00145878
     133         -0.222361        1.000000        0.00219913        0.00151415        0.00071320        0.00136706
     134         -0.220691        1.000000        0.00063402        0.00096046        0.00063728        0.00036523
     135         -0.219020        1.000000        0.00067905        0.00092563        0.00236941        0.00021661
     136         -0.218327        1.000000        0.00081394        0.00117343        0.00062341        0.00045210
     137         -0.216233        1.000000        0.00095096        0.00022675        0.00137533        0.00042518
     138         -0.215483        1.000000        0.00265561        0.00335814        0.00233457        0.00131515
     139         -0.214606        1.000000        0.00142307        0.00238846        0.00161501        0.00063731
     140         -0.214369        1.000000        0.00102023        0.00407394        0.00076225        0.00041728
     141         -0.213409        1.000000        0.00124825        0.00096061        0.00464323        0.00027651
     142         -0.211776        1.000000        0.00200130        0.00415829        0.00235586        0.00031115
     143         -0.211151        1.000000        0.00061880        0.00152261        0.00077522        0.00043221
     144         -0.210146        1.000000        0.00069264        0.00190295        0.00197997        0.00041782
     145         -0.208580        1.000000        0.00150758        0.00420044        0.00079468        0.00104253
     146         -0.208428        1.000000        0.00028937        0.00172955        0.00058024        0.00020389
     147         -0.207771        1.000000        0.00089981        0.00330274        0.00074148        0.00028372
     148         -0.207417        1.000000        0.00064356        0.00212650        0.00120791        0.00082562
     149         -0.205794        1.000000        0.00042176        0.00599925        0.00037289        0.00066475
     150         -0.205456        1.000000        0.00082846        0.00140667        0.00076237        0.00062587
     151         -0.205045        1.000000        0.00070801        0.00277167        0.00056289        0.00051356
     152         -0.203876        1.000000        0.00037312        0.00193094        0.00037148        0.00102292
     153         -0.203271        1.000000        0.00038310        0.00110236        0.00076785        0.00058001
     154         -0.202406        1.000000        0.00083114        0.00243650        0.00050671        0.00038433
     155         -0.201917        1.000000        0.00077951        0.00410481        0.00031895        0.00052309
     156         -0.201169        1.000000        0.00030521        0.00164737        0.00017038        0.00024233
     157         -0.200652        1.000000        0.00028709        0.00194936        0.00024187        0.00119174
     158         -0.199565        1.000000        0.00035080        0.00060829        0.00041577        0.00061637
     159         -0.198541        1.000000        0.00046109        0.00153211        0.00044898        0.00064968
     160         -0.197965        1.000000        0.00152092        0.00158918        0.00099882        0.00354688
     161         -0.197009        1.000000        0.00036661        0.00059209        0.00075007        0.00013253
     162         -0.196589        1.000000        0.00016909        0.00021472        0.00055759        0.00004441
     163         -0.196293        1.000000        0.00099186        0.00282453        0.00194873        0.00059473
     164         -0.195928        1.000000        0.00061890        0.00344638        0.00140866        0.00048209
     165         -0.195079        1.000000        0.00133893        0.00380863        0.00137820        0.00042283
     166         -0.194735        1.000000        0.00043308        0.00198801        0.00106469        0.00029718
     167         -0.193768        1.000000        0.00069255        0.00153392        0.00369188        0.00094175
     168         -0.193492        1.000000        0.00035593        0.00191184        0.00069046        0.00012009
     169         -0.193361        1.000000        0.00032414        0.00079464        0.00059021        0.00037554
     170         -0.192850        1.000000        0.00029406        0.00142337        0.00071990        0.00020647
     171         -0.191807        1.000000        0.00132391        0.00569019        0.00255007        0.00117877
     172         -0.191160        1.000000        0.00015199        0.00082813        0.00045144        0.00019886
     173         -0.190214        1.000000        0.00055624        0.00257742        0.00042373        0.00030218
     174         -0.190079        1.000000        0.00212841        0.00989130        0.00090190        0.00150900
     175         -0.189442        1.000000        0.00041141        0.00451920        0.00002653        0.00011161
     176         -0.188827        1.000000        0.00035234        0.00239195        0.00118898        0.00049810
     177         -0.188174        1.000000        0.00011475        0.00061061        0.00035834        0.00012502
     178         -0.187748        1.000000        0.00012060        0.00090091        0.00004178        0.00017908
     179         -0.187689        1.000000        0.00003239        0.00042244        0.00008427        0.00006829
     180         -0.187342        1.000000        0.00013983        0.00045461        0.00021332        0.00006574
     181         -0.186849        1.000000        0.00037882        0.00156910        0.00043721        0.00021188
     182         -0.186471        1.000000        0.00010258        0.00076721        0.00005835        0.00018602
     183         -0.186117        1.000000        0.00003506        0.00033436        0.00013816        0.00002451
     184         -0.184686        1.000000        0.00082901        0.00323784        0.00040969        0.00055378
     185         -0.184079        1.000000        0.00016853        0.00123688        0.00008421        0.00003264
     186         -0.183199        1.000000        0.00032949        0.00107030        0.00026899        0.00004335
     187         -0.182472        1.000000        0.00009978        0.00022128        0.00010695        0.00006863
     188         -0.182396        1.000000        0.00017126        0.00068374        0.00023834        0.00004554
     189         -0.181912        1.000000        0.00013993        0.00045999        0.00013721        0.00001900
     190         -0.178394        1.000000        0.00007016        0.00025935        0.00004484        0.00039793
     191         -0.176336        1.000000        0.00007605        0.00017920        0.00005258        0.00005322
     192         -0.174275        1.000000        0.00000950        0.00014900        0.00006240        0.00001951
     193         -0.174209        1.000000        0.00001146        0.00003810        0.00002080        0.00000479
     194         -0.172600        1.000000        0.00002840        0.00008401        0.00002016        0.00002913
     195         -0.172076        1.000000        0.00008205        0.00016437        0.00009909        0.00010880
     196         -0.168825        0.000000        0.00002540        0.00009981        0.00002558        0.00002367
     197         -0.167272        0.000000        0.00000079        0.00000145        0.00003446        0.00000263
     198         -0.160678        0.000000        0.00003685        0.00006148        0.00003298        0.00002339
     199         -0.155514        0.000000        0.00003451        0.00027053        0.00006411        0.00010523
     200         -0.155092        0.000000        0.00001984        0.00009129        0.00006221        0.00001253
     201         -0.129184        0.000000        0.00000406        0.00000927        0.00000639        0.00000577
     202         -0.074147        0.000000        0.00035311        0.00016972        0.00021860        0.00000767
     203         -0.073773        0.000000        0.00003828        0.00000456        0.00005598        0.00001270
     204         -0.072841        0.000000        0.00003924        0.00007154        0.00032716        0.00004423
     205         -0.062705        0.000000        0.00056769        0.00033852        0.00038080        0.00003920
     206         -0.055850        0.000000        0.00008197        0.00005680        0.00018644        0.00006834
     207         -0.052997        0.000000        0.00004663        0.00010287        0.00003663        0.00002712
     208         -0.049522        0.000000        0.00012430        0.00002863        0.00012637        0.00002228
     209         -0.046686        0.000000        0.00007393        0.00002341        0.00005871        0.00012470
     210         -0.040753        0.000000        0.00012654        0.00002944        0.00010002        0.00002037
     211         -0.040501        0.000000        0.00005789        0.00002544        0.00007727        0.00000612
     212         -0.038560        0.000000        0.00015310        0.00035059        0.00013715        0.00007676
     213         -0.034739        0.000000        0.00003324        0.00014762        0.00006563        0.00003476
     214         -0.033646        0.000000        0.00017205        0.00014608        0.00001464        0.00000899
     215         -0.030607        0.000000        0.00011577        0.00020203        0.00031842        0.00003578
     216         -0.026411        0.000000        0.00008761        0.00027860        0.00015416        0.00004181
     217         -0.024009        0.000000        0.00004579        0.00002240        0.00003831        0.00002873
     218         -0.022598        0.000000        0.00023909        0.00063902        0.00021356        0.00003951
     219         -0.020635        0.000000        0.00005770        0.00008756        0.00003470        0.00003245
     220         -0.017987        0.000000        0.00008103        0.00005552        0.00006127        0.00003837
     221         -0.017747        0.000000        0.00003537        0.00011994        0.00004123        0.00001604
     222         -0.014872        0.000000        0.00028792        0.00043602        0.00008559        0.00003458
     223         -0.014478        0.000000        0.00009464        0.00026273        0.00009926        0.00000997
     224         -0.011896        0.000000        0.00016705        0.00000912        0.00013671        0.00012220
     225         -0.008742        0.000000        0.00029694        0.00067545        0.00007861        0.00005254
     226          0.088306        0.000000        0.09813973        0.00058805        0.00087638        0.26043660
     227          0.098884        0.000000        0.09804653        0.00649375        0.05650823        0.19563832
     228          0.102781        0.000000        0.10460210        0.00152526        0.00283332        0.25567643
     229          0.103763        0.000000        0.10436609        0.00016193        0.07542546        0.17973660
     230          0.103953        0.000000        0.10421427        0.00179086        0.00326890        0.25591420
     231          0.109000        0.000000        0.10277136        0.00205126        0.12060861        0.13530551
     232          0.115316        0.000000        0.10183523        0.01856837        0.07584707        0.16753194
     233          0.283666        0.000000        0.00274833        0.30864868        0.00503944        0.00017258
     234          0.284818        0.000000        0.00000212        0.00608615        0.32421026        0.00126479
     235          0.286037        0.000000        0.00013112        0.27443492        0.03381658        0.00361414
     236          0.290041        0.000000        0.00330860        0.30013678        0.02622414        0.00060752
     237          0.293169        0.000000        0.00233455        0.02436227        0.22677946        0.07940712
     238          0.294703        0.000000        0.00419103        0.18388813        0.09706556        0.02496289
     239          0.295023        0.000000        0.00123411        0.08959705        0.17403313        0.05019323
     240          0.295166        0.000000        0.00147320        0.25702416        0.04550008        0.00650076
     241          0.296596        0.000000        0.00415935        0.03085309        0.12427745        0.16781445
     242          0.298059        0.000000        0.00168694        0.02895622        0.29020867        0.00325931
     243          0.300357        0.000000        0.00014763        0.27706888        0.02759188        0.01078054
     244          0.301918        0.000000        0.01014149        0.07625918        0.24400228        0.00104087
     245          0.307551        0.000000        0.00062554        0.15060886        0.07726232        0.08779006
     246          0.311188        0.000000        0.00019782        0.14146081        0.16012517        0.01835796
     247          0.316486        0.000000        0.24663857        0.00055394        0.00050399        0.09412101
     248          0.327639        0.000000        0.24578917        0.00030417        0.01611355        0.08407363
     249          0.336288        0.000000        0.23992916        0.00050550        0.02168230        0.08411869
     250          0.337491        0.000000        0.23902120        0.00171809        0.00831232        0.09703436
     251          0.337677        0.000000        0.23956075        0.00111741        0.05549884        0.04656674
     252          0.344754        0.000000        0.22789053        0.01372238        0.00092858        0.09417330
     253          0.349258        0.000000        0.24376307        0.00453316        0.02512825        0.07167159
     254          0.454596        0.000000        0.00000019        0.00580228        0.01716552        0.00016869
     255          0.459539        0.000000        0.00000329        0.01526460        0.00528114        0.00001366
     256          0.462974        0.000000        0.00004925        0.02285375        0.00138921        0.00015469
     257          0.464494        0.000000        0.00000641        0.00085401        0.02524695        0.00021630
     258          0.466161        0.000000        0.00004530        0.02268591        0.00048687        0.00020768
     259          0.467274        0.000000        0.00001468        0.00153384        0.02365926        0.00045039