# Projected DOS for atomic kind H at iteration step i = 0, E(Fermi) =    -0.172076 a.u.
#     MO Eigenvalue [a.u.]      Occupation                 s
       1         -0.952917        1.000000        0.28164560
       2         -0.945306        1.000000        0.28346107
       3         -0.942427        1.000000        0.28037283
       4         -0.940424        1.000000        0.28246483
       5         -0.936657        1.000000        0.27978730
       6         -0.936356        1.000000        0.28130527
       7         -0.926083        1.000000        0.28053857
       8         -0.693812        1.000000        0.34284074
       9         -0.690003        1.000000        0.34834026
      10         -0.684866        1.000000        0.34845400
      11         -0.683701        1.000000        0.34081305
      12         -0.683458        1.000000        0.34387007
      13         -0.680384        1.000000        0.34522075
      14         -0.671850        1.000000        0.34654781
      15         -0.640367        1.000000        0.00807855
      16         -0.631081        1.000000        0.00158350
      17         -0.622812        1.000000        0.00079844
      18         -0.619688        1.000000        0.00272788
      19         -0.615428        1.000000        0.00680470
      20         -0.603536        1.000000        0.01524397
      21         -0.597806        1.000000        0.02002265
      22         -0.594684        1.000000        0.01799089
      23         -0.594373        1.000000        0.00679013
      24         -0.593210        1.000000        0.01334292
      25         -0.591256        1.000000        0.07270216
      26         -0.588247        1.000000        0.09318874
      27         -0.587614        1.000000        0.03821015
      28         -0.586131        1.000000        0.06233708
      29         -0.583927        1.000000        0.01158978
      30         -0.583167        1.000000        0.04479037
      31         -0.582586        1.000000        0.07931352
      32         -0.582336        1.000000        0.02699433
      33         -0.580369        1.000000        0.03221531
      34         -0.580076        1.000000        0.03631297
      35         -0.578440        1.000000        0.05999134
      36         -0.577987        1.000000        0.08961991
      37         -0.577674        1.000000        0.21650333
      38         -0.576143        1.000000        0.07171660
      39         -0.575208        1.000000        0.03214314
      40         -0.574826        1.000000        0.04675346
      41         -0.574316        1.000000        0.06652013
      42         -0.573214        1.000000        0.14244976
      43         -0.572805        1.000000        0.01012137
      44         -0.571373        1.000000        0.00207363
      45         -0.570791        1.000000        0.05381247
      46         -0.570480        1.000000        0.16675963
      47         -0.569813        1.000000        0.05387089
      48         -0.568011        1.000000        0.28094176
      49         -0.566927        1.000000        0.04665499
      50         -0.564172        1.000000        0.23019362
      51         -0.562723        1.000000        0.28626940
      52         -0.561039        1.000000        0.05222746
      53         -0.560386        1.000000        0.14745900
      54         -0.559964        1.000000        0.22588800
      55         -0.559374        1.000000        0.02839321
      56         -0.557587        1.000000        0.25699562
      57         -0.556620        1.000000        0.12727457
      58         -0.554432        1.000000        0.09661280
      59         -0.551155        1.000000        0.23721602
      60         -0.545923        1.000000        0.25893833
      61         -0.544889        1.000000        0.18970716
      62         -0.541933        1.000000        0.15065586
      63         -0.538446        1.000000        0.18396295
      64         -0.538039        1.000000        0.23377655
      65         -0.473953        1.000000        0.17615466
      66         -0.469955        1.000000        0.17313138
      67         -0.465112        1.000000        0.03757507
      68         -0.464751        1.000000        0.13950702
      69         -0.464189        1.000000        0.16265948
      70         -0.463812        1.000000        0.17685206
      71         -0.461699        1.000000        0.09634976
      72         -0.460867        1.000000        0.02238925
      73         -0.459447        1.000000        0.07485587
      74         -0.458486        1.000000        0.00460798
      75         -0.454241        1.000000        0.02804424
      76         -0.451607        1.000000        0.14841305
      77         -0.450242        1.000000        0.00188617
      78         -0.443153        1.000000        0.00420278
      79         -0.439585        1.000000        0.00158849
      80         -0.410742        1.000000        0.42184394
      81         -0.409900        1.000000        0.42057407
      82         -0.407698        1.000000        0.42237238
      83         -0.406292        1.000000        0.42137074
      84         -0.402421        1.000000        0.42375448
      85         -0.401821        1.000000        0.42214039
      86         -0.400759        1.000000        0.42096596
      87         -0.400112        1.000000        0.42186872
      88         -0.398917        1.000000        0.41956962
      89         -0.398313        1.000000        0.41769667
      90         -0.398197        1.000000        0.42100188
      91         -0.395468        1.000000        0.41973042
      92         -0.390100        1.000000        0.42459305
      93         -0.386859        1.000000        0.42035833
      94         -0.323842        1.000000        0.00065394
      95         -0.315921        1.000000        0.00011977
      96         -0.305522        1.000000        0.00040995
      97         -0.303267        1.000000        0.00012501
      98         -0.299334        1.000000        0.00018943
      99         -0.276639        1.000000        0.00046420
     100         -0.273909        1.000000        0.00057635
     101         -0.273376        1.000000        0.00173085
     102         -0.269729        1.000000        0.00041615
     103         -0.268748        1.000000        0.00066145
     104         -0.266653        1.000000        0.00044170
     105         -0.265242        1.000000        0.00041484
     106         -0.264939        1.000000        0.00053885
     107         -0.263329        1.000000        0.00044950
     108         -0.260754        1.000000        0.00069282
     109         -0.257655        1.000000        0.00036130
     110         -0.256437        1.000000        0.00044155
     111         -0.256062        1.000000        0.00037761
     112         -0.254499        1.000000        0.00086565
     113         -0.253895        1.000000        0.00046041
     114         -0.252564        1.000000        0.00093282
     115         -0.251026        1.000000        0.00035129
     116         -0.247308        1.000000        0.00043101
     117         -0.245709        1.000000        0.00067289
     118         -0.244702        1.000000        0.00049834
     119         -0.244475        1.000000        0.00046396
     120         -0.243351        1.000000        0.00043381
     121         -0.240288        1.000000        0.00049734
     122         -0.239086        1.000000        0.00040132
     123         -0.237191        1.000000        0.00075096
     124         -0.236269        1.000000        0.00054979
     125         -0.235699        1.000000        0.00064405
     126         -0.234113        1.000000        0.00136222
     127         -0.233479        1.000000        0.00087367
     128         -0.232405        1.000000        0.00044326
     129         -0.229410        1.000000        0.00120403
     130         -0.227763        1.000000        0.00069046
     131         -0.225413        1.000000        0.00092676
     132         -0.224052        1.000000        0.00252579
     133         -0.222361        1.000000        0.00139929
     134         -0.220691        1.000000        0.00067856
     135         -0.219020        1.000000        0.00101011
     136         -0.218327        1.000000        0.00079136
     137         -0.216233        1.000000        0.00070723
     138         -0.215483        1.000000        0.00238592
     139         -0.214606        1.000000        0.00153027
     140         -0.214369        1.000000        0.00159950
     141         -0.213409        1.000000        0.00162683
     142         -0.211776        1.000000        0.00196127
     143         -0.211151        1.000000        0.00109407
     144         -0.210146        1.000000        0.00109526
     145         -0.208580        1.000000        0.00181178
     146         -0.208428        1.000000        0.00061393
     147         -0.207771        1.000000        0.00164039
     148         -0.207417        1.000000        0.00112322
     149         -0.205794        1.000000        0.00122323
     150         -0.205456        1.000000        0.00111459
     151         -0.205045        1.000000        0.00112299
     152         -0.203876        1.000000        0.00065518
     153         -0.203271        1.000000        0.00075590
     154         -0.202406        1.000000        0.00132005
     155         -0.201917        1.000000        0.00131070
     156         -0.201169        1.000000        0.00047099
     157         -0.200652        1.000000        0.00061372
     158         -0.199565        1.000000        0.00062741
     159         -0.198541        1.000000        0.00077740
     160         -0.197965        1.000000        0.00204038
     161         -0.197009        1.000000        0.00079083
     162         -0.196589        1.000000        0.00060442
     163         -0.196293        1.000000        0.00152017
     164         -0.195928        1.000000        0.00130343
     165         -0.195079        1.000000        0.00166905
     166         -0.194735        1.000000        0.00068306
     167         -0.193768        1.000000        0.00134777
     168         -0.193492        1.000000        0.00078621
     169         -0.193361        1.000000        0.00054404
     170         -0.192850        1.000000        0.00058235
     171         -0.191807        1.000000        0.00252901
     172         -0.191160        1.000000        0.00055722
     173         -0.190214        1.000000        0.00120049
     174         -0.190079        1.000000        0.00339251
     175         -0.189442        1.000000        0.00109371
     176         -0.188827        1.000000        0.00095229
     177         -0.188174        1.000000        0.00031203
     178         -0.187748        1.000000        0.00026346
     179         -0.187689        1.000000        0.00017323
     180         -0.187342        1.000000        0.00033352
     181         -0.186849        1.000000        0.00067084
     182         -0.186471        1.000000        0.00037120
     183         -0.186117        1.000000        0.00016230
     184         -0.184686        1.000000        0.00135221
     185         -0.184079        1.000000        0.00055429
     186         -0.183199        1.000000        0.00050553
     187         -0.182472        1.000000        0.00022477
     188         -0.182396        1.000000        0.00039692
     189         -0.181912        1.000000        0.00029992
     190         -0.178394        1.000000        0.00032007
     191         -0.176336        1.000000        0.00016091
     192         -0.174275        1.000000        0.00014557
     193         -0.174209        1.000000        0.00004974
     194         -0.172600        1.000000        0.00008971
     195         -0.172076        1.000000        0.00024211
     196         -0.168825        0.000000        0.00015433
     197         -0.167272        0.000000        0.00003199
     198         -0.160678        0.000000        0.00011689
     199         -0.155514        0.000000        0.00019840
     200         -0.155092        0.000000        0.00007111
     201         -0.129184        0.000000        0.00002652
     202         -0.074147        0.000000        0.00052031
     203         -0.073773        0.000000        0.00008394
     204         -0.072841        0.000000        0.00028044
     205         -0.062705        0.000000        0.00084633
     206         -0.055850        0.000000        0.00025016
     207         -0.052997        0.000000        0.00017142
     208         -0.049522        0.000000        0.00022495
     209         -0.046686        0.000000        0.00019202
     210         -0.040753        0.000000        0.00020826
     211         -0.040501        0.000000        0.00021756
     212         -0.038560        0.000000        0.00045104
     213         -0.034739        0.000000        0.00017404
     214         -0.033646        0.000000        0.00024102
     215         -0.030607        0.000000        0.00044591
     216         -0.026411        0.000000        0.00038049
     217         -0.024009        0.000000        0.00010626
     218         -0.022598        0.000000        0.00078820
     219         -0.020635        0.000000        0.00011002
     220         -0.017987        0.000000        0.00018784
     221         -0.017747        0.000000        0.00018110
     222         -0.014872        0.000000        0.00059769
     223         -0.014478        0.000000        0.00037442
     224         -0.011896        0.000000        0.00024091
     225         -0.008742        0.000000        0.00088582
     226          0.088306        0.000000        0.00337620
     227          0.098884        0.000000        0.00283974
     228          0.102781        0.000000        0.00465501
     229          0.103763        0.000000        0.00423154
     230          0.103953        0.000000        0.00389466
     231          0.109000        0.000000        0.00366259
     232          0.115316        0.000000        0.00335113
     233          0.283666        0.000000        0.66148431
     234          0.284818        0.000000        0.65851352
     235          0.286037        0.000000        0.66705580
     236          0.290041        0.000000        0.66005583
     237          0.293169        0.000000        0.65941273
     238          0.294703        0.000000        0.66299046
     239          0.295023        0.000000        0.66154396
     240          0.295166        0.000000        0.66402507
     241          0.296596        0.000000        0.65848254
     242          0.298059        0.000000        0.66132258
     243          0.300357        0.000000        0.66120023
     244          0.301918        0.000000        0.65710098
     245          0.307551        0.000000        0.66239705
     246          0.311188        0.000000        0.66183992
     247          0.316486        0.000000        0.63497161
     248          0.327639        0.000000        0.63347910
     249          0.336288        0.000000        0.63165828
     250          0.337491        0.000000        0.63144694
     251          0.337677        0.000000        0.63174100
     252          0.344754        0.000000        0.63233398
     253          0.349258        0.000000        0.63130687
     254          0.454596        0.000000        0.58397270
     255          0.459539        0.000000        0.58419434
     256          0.462974        0.000000        0.58143500
     257          0.464494        0.000000        0.57926905
     258          0.466161        0.000000        0.58132943
     259          0.467274        0.000000        0.58173433
     260          0.468490        0.000000        0.58432144
     261          0.470005        0.000000        0.58293193
     262          0.470874        0.000000        0.58511179
     263          0.472370        0.000000        0.58248736
     264          0.473060        0.000000        0.58226315
     265          0.473370        0.000000        0.58366813
     266          0.477100        0.000000        0.58387902
     267          0.479767        0.000000        0.58049283
     268          0.550721        0.000000        0.55418913
     269          0.560087        0.000000        0.55227856
     270          0.563958        0.000000        0.55257751
     271          0.566366        0.000000        0.55376767
     272          0.568050        0.000000        0.55280588
     273          0.571885        0.000000        0.55238851
     274          0.575456        0.000000        0.55317663
