# Projected DOS for atomic kind C at iteration step i = 0, E(Fermi) =    -0.171330 a.u.
#     MO Eigenvalue [a.u.]      Occupation                 s                py                pz                px
       1         -0.952920        1.000000        0.05885645        0.00031018        0.00014619        0.04303121
       2         -0.945307        1.000000        0.05737511        0.00092150        0.00917146        0.03311339
       3         -0.942426        1.000000        0.06246004        0.00029087        0.00017735        0.04383094
       4         -0.940424        1.000000        0.05893692        0.00000357        0.01301827        0.03034155
       5         -0.936657        1.000000        0.06208648        0.00023396        0.00090291        0.04296000
       6         -0.936356        1.000000        0.06020781        0.00021120        0.02000967        0.02369991
       7         -0.926085        1.000000        0.06109338        0.00309082        0.01254451        0.02831767
       8         -0.693810        1.000000        0.44284457        0.00002495        0.00001859        0.00106004
       9         -0.690003        1.000000        0.43788157        0.00004028        0.00000616        0.00180370
      10         -0.684865        1.000000        0.44033242        0.00003877        0.00000307        0.00167491
      11         -0.683700        1.000000        0.44161234        0.00000015        0.00003181        0.00077331
      12         -0.683458        1.000000        0.43989381        0.00001724        0.00035221        0.00069057
      13         -0.680384        1.000000        0.43911614        0.00001579        0.00035860        0.00093550
      14         -0.671848        1.000000        0.44112800        0.00008121        0.00064154        0.00083101
      15         -0.640367        1.000000        0.00080377        0.00072560        0.00004666        0.00003962
      16         -0.631104        1.000000        0.00003186        0.00034090        0.00002137        0.00003794
      17         -0.622824        1.000000        0.00005003        0.00003011        0.00032890        0.00002391
      18         -0.619653        1.000000        0.00016640        0.00004371        0.00064760        0.00007776
      19         -0.614884        1.000000        0.00019226        0.00004659        0.00088302        0.00008628
      20         -0.603480        1.000000        0.00016871        0.00196793        0.00186568        0.00028987
      21         -0.597755        1.000000        0.00012397        0.00099281        0.00204985        0.00084930
      22         -0.594223        1.000000        0.00021604        0.00161936        0.00061354        0.00009679
      23         -0.594030        1.000000        0.00037740        0.00066318        0.00150525        0.00012918
      24         -0.592277        1.000000        0.00017628        0.00162325        0.00179028        0.00034919
      25         -0.591212        1.000000        0.00002864        0.00079409        0.00557361        0.00225926
      26         -0.587664        1.000000        0.00014355        0.00169484        0.00144614        0.00026263
      27         -0.586484        1.000000        0.00030424        0.00856962        0.00206525        0.00039353
      28         -0.585400        1.000000        0.00012595        0.01520299        0.00146241        0.00019223
      29         -0.583846        1.000000        0.00060763        0.00050770        0.00164880        0.00020483
      30         -0.582996        1.000000        0.00016635        0.00398516        0.00478781        0.00033620
      31         -0.582420        1.000000        0.00035162        0.00635576        0.00257465        0.00044518
      32         -0.582207        1.000000        0.00019515        0.00558318        0.00117399        0.00034461
      33         -0.580324        1.000000        0.00016033        0.00178157        0.00239741        0.00049424
      34         -0.580056        1.000000        0.00018343        0.00299812        0.00231895        0.00068772
      35         -0.577896        1.000000        0.00021228        0.00474592        0.00416989        0.00094915
      36         -0.577823        1.000000        0.00004619        0.00314942        0.03760682        0.00045252
      37         -0.576941        1.000000        0.00012698        0.00259602        0.00867342        0.00033449
      38         -0.575891        1.000000        0.00042283        0.00701422        0.00229574        0.00040808
      39         -0.574955        1.000000        0.00003081        0.00450930        0.00145365        0.00012608
      40         -0.574743        1.000000        0.00031750        0.00105506        0.00492392        0.00104588
      41         -0.574171        1.000000        0.00008701        0.00310999        0.00396675        0.00127444
      42         -0.573190        1.000000        0.00022529        0.00357287        0.01350896        0.00380294
      43         -0.572512        1.000000        0.00006017        0.00149222        0.00018462        0.00024017
      44         -0.571375        1.000000        0.00000512        0.00017788        0.00008783        0.00001495
      45         -0.570494        1.000000        0.00003037        0.01210837        0.01069377        0.00369651
      46         -0.569631        1.000000        0.00014877        0.00665843        0.00473768        0.00012078
      47         -0.568008        1.000000        0.00002701        0.04352069        0.00645738        0.00004303
      48         -0.567089        1.000000        0.00018012        0.00109973        0.00778456        0.00069106
      49         -0.565592        1.000000        0.00005747        0.00343926        0.00097913        0.00022288
      50         -0.564140        1.000000        0.00010256        0.00325964        0.04172576        0.00059975
      51         -0.562719        1.000000        0.00000744        0.00813692        0.03052077        0.01301780
      52         -0.560392        1.000000        0.00010887        0.01931625        0.01569012        0.00313269
      53         -0.559962        1.000000        0.00011691        0.03085130        0.01450478        0.00236410
      54         -0.559468        1.000000        0.00010459        0.00086732        0.00231355        0.00048116
      55         -0.557586        1.000000        0.00042415        0.01123334        0.02619026        0.01319804
      56         -0.554223        1.000000        0.00030027        0.00320405        0.00756982        0.00212982
      57         -0.553685        1.000000        0.00021646        0.00906692        0.00296307        0.00113154
      58         -0.552342        1.000000        0.00038818        0.01609095        0.00177033        0.00136204
      59         -0.551138        1.000000        0.00037334        0.03312243        0.02008362        0.00291057
      60         -0.545808        1.000000        0.00019131        0.00052150        0.03384150        0.01797015
      61         -0.544885        1.000000        0.00038343        0.03993742        0.00506076        0.00348062
      62         -0.541933        1.000000        0.00051733        0.03593026        0.00168579        0.00311305
      63         -0.538424        1.000000        0.00018484        0.04274866        0.01356128        0.00175470
      64         -0.537833        1.000000        0.00005692        0.04981836        0.00004893        0.00350135
      65         -0.473927        1.000000        0.02526437        0.00414828        0.00190493        0.33514285
      66         -0.469954        1.000000        0.02227331        0.00272244        0.00233590        0.33480058
      67         -0.465117        1.000000        0.00448980        0.00061799        0.00115026        0.06913783
      68         -0.464752        1.000000        0.01769259        0.00285331        0.00494102        0.26446671
      69         -0.464187        1.000000        0.02300682        0.00063803        0.09038050        0.21883067
      70         -0.463806        1.000000        0.02656497        0.00428296        0.06594463        0.26447475
      71         -0.461691        1.000000        0.01339095        0.00022620        0.07692618        0.11089782
      72         -0.460663        1.000000        0.00312510        0.00055190        0.01887059        0.02476854
      73         -0.459417        1.000000        0.00973645        0.00193415        0.05998919        0.07691543
      74         -0.458457        1.000000        0.00063109        0.00049033        0.00151819        0.00678885
      75         -0.454140        1.000000        0.00392681        0.00249495        0.01537482        0.03860240
      76         -0.451578        1.000000        0.01920906        0.02228010        0.08771932        0.17800216
      77         -0.447662        1.000000        0.00004157        0.00080484        0.00021017        0.00064248
      78         -0.443151        1.000000        0.00036905        0.00152574        0.00216076        0.00633935
      79         -0.438488        1.000000        0.00017411        0.00066134        0.00094397        0.00107335
      80         -0.410724        1.000000        0.00000079        0.52481456        0.00209173        0.00462031
      81         -0.409898        1.000000        0.00001581        0.00203797        0.53623189        0.00241330
      82         -0.407697        1.000000        0.00000631        0.00482433        0.51808329        0.00242384
      83         -0.406288        1.000000        0.00000773        0.50977171        0.00349578        0.00376501
      84         -0.402421        1.000000        0.00003546        0.02710679        0.48511507        0.01130109
      85         -0.401817        1.000000        0.00000472        0.51703137        0.01856523        0.00169059
      86         -0.400758        1.000000        0.00003623        0.41961898        0.08106320        0.02803254
      87         -0.400111        1.000000        0.00001448        0.07710451        0.32683187        0.12981532
      88         -0.398916        1.000000        0.00000628        0.51464727        0.00654539        0.00343737
      89         -0.398310        1.000000        0.00005858        0.01514517        0.38385092        0.13787430
      90         -0.398196        1.000000        0.00004152        0.02946003        0.31038628        0.19318002
      91         -0.395468        1.000000        0.00000344        0.49988019        0.00701127        0.02126049
      92         -0.390099        1.000000        0.00002537        0.12621887        0.33276184        0.07343795
      93         -0.386843        1.000000        0.00000836        0.36579616        0.04463510        0.12110746
      94         -0.323848        1.000000        0.00001581        0.00024827        0.00011597        0.00012581
      95         -0.315952        1.000000        0.00001090        0.00005432        0.00010303        0.00001776
      96         -0.305510        1.000000        0.00003971        0.00005325        0.00035672        0.00005441
      97         -0.303277        1.000000        0.00001579        0.00009305        0.00006474        0.00003903
      98         -0.298798        1.000000        0.00004268        0.00014361        0.00009826        0.00006550
      99         -0.276492        1.000000        0.00005586        0.00006510        0.00028285        0.00031860
     100         -0.273732        1.000000        0.00011777        0.00026948        0.00015407        0.00080986
     101         -0.273066        1.000000        0.00008125        0.00048268        0.00012982        0.00095337
     102         -0.269511        1.000000        0.00009869        0.00024973        0.00006873        0.00011244
     103         -0.268426        1.000000        0.00020792        0.00026415        0.00033587        0.00034222
     104         -0.265559        1.000000        0.00020343        0.00056009        0.00011958        0.00026333
     105         -0.264930        1.000000        0.00014822        0.00019250        0.00056496        0.00025610
     106         -0.264692        1.000000        0.00011649        0.00058538        0.00007842        0.00017966
     107         -0.262922        1.000000        0.00038660        0.00062476        0.00041885        0.00012515
     108         -0.257322        1.000000        0.00014633        0.00030476        0.00007358        0.00010073
     109         -0.256894        1.000000        0.00006121        0.00004702        0.00012756        0.00023406
     110         -0.256130        1.000000        0.00030923        0.00029371        0.00021544        0.00018154
     111         -0.255739        1.000000        0.00006413        0.00043515        0.00021838        0.00017167
     112         -0.254158        1.000000        0.00020673        0.00081033        0.00028207        0.00020613
     113         -0.252575        1.000000        0.00033534        0.00048586        0.00079962        0.00052755
     114         -0.251752        1.000000        0.00012065        0.00046050        0.00006041        0.00026048
     115         -0.250358        1.000000        0.00004429        0.00008886        0.00004824        0.00025875
     116         -0.247144        1.000000        0.00021822        0.00026939        0.00014258        0.00020850
     117         -0.245542        1.000000        0.00027255        0.00042040        0.00051102        0.00025333
     118         -0.244403        1.000000        0.00027958        0.00012380        0.00019365        0.00014775
     119         -0.243421        1.000000        0.00018338        0.00046487        0.00018295        0.00019575
     120         -0.242997        1.000000        0.00001822        0.00025821        0.00024079        0.00030880
     121         -0.239911        1.000000        0.00025970        0.00027849        0.00024826        0.00055426
     122         -0.238443        1.000000        0.00012362        0.00027250        0.00024703        0.00024803
     123         -0.236608        1.000000        0.00023995        0.00042098        0.00059782        0.00017233
     124         -0.236012        1.000000        0.00027296        0.00010178        0.00083308        0.00029643
     125         -0.235208        1.000000        0.00005991        0.00015139        0.00032397        0.00039870
     126         -0.233913        1.000000        0.00014533        0.00017244        0.00041849        0.00060066
     127         -0.232358        1.000000        0.00019740        0.00045192        0.00096548        0.00032699
     128         -0.231974        1.000000        0.00009214        0.00011667        0.00018411        0.00042337
     129         -0.229302        1.000000        0.00029311        0.00089846        0.00015378        0.00024471
     130         -0.227524        1.000000        0.00039225        0.00060056        0.00074489        0.00046914
     131         -0.224407        1.000000        0.00035337        0.00036220        0.00088929        0.00266072
     132         -0.223099        1.000000        0.00011041        0.00027799        0.00075879        0.00091597
     133         -0.221927        1.000000        0.00016014        0.00010307        0.00138495        0.00097853
     134         -0.219921        1.000000        0.00008052        0.00031290        0.00011445        0.00020978
     135         -0.218616        1.000000        0.00017202        0.00060314        0.00058144        0.00021543
     136         -0.217955        1.000000        0.00031163        0.00036067        0.00024593        0.00025928
     137         -0.215980        1.000000        0.00049791        0.00025304        0.00035114        0.00042966
     138         -0.215281        1.000000        0.00008967        0.00061556        0.00139974        0.00077144
     139         -0.214268        1.000000        0.00066869        0.00113768        0.00053678        0.00031323
     140         -0.213955        1.000000        0.00046403        0.00097801        0.00083155        0.00067578
     141         -0.212335        1.000000        0.00006524        0.00048868        0.00037066        0.00019045
     142         -0.211674        1.000000        0.00015159        0.00027302        0.00117454        0.00011561
     143         -0.210759        1.000000        0.00049359        0.00083192        0.00069421        0.00014480
     144         -0.209500        1.000000        0.00027968        0.00072318        0.00075234        0.00027678
     145         -0.207903        1.000000        0.00029844        0.00069803        0.00024741        0.00067843
     146         -0.207805        1.000000        0.00008579        0.00019452        0.00075339        0.00005233
     147         -0.207349        1.000000        0.00020169        0.00039494        0.00034722        0.00045770
     148         -0.206402        1.000000        0.00011764        0.00043864        0.00045764        0.00072732
     149         -0.205587        1.000000        0.00017054        0.00075600        0.00023166        0.00010656
     150         -0.205022        1.000000        0.00023097        0.00043357        0.00017050        0.00038428
     151         -0.204514        1.000000        0.00007043        0.00061767        0.00031716        0.00007906
     152         -0.203628        1.000000        0.00024424        0.00017398        0.00010695        0.00028138
     153         -0.202296        1.000000        0.00015611        0.00038605        0.00027243        0.00057218
     154         -0.201944        1.000000        0.00007335        0.00019250        0.00013491        0.00040653
     155         -0.201718        1.000000        0.00019691        0.00009882        0.00036011        0.00014483
     156         -0.201037        1.000000        0.00011439        0.00010639        0.00015942        0.00017315
     157         -0.200342        1.000000        0.00019465        0.00040963        0.00010382        0.00016197
     158         -0.199337        1.000000        0.00020630        0.00018747        0.00035455        0.00012577
     159         -0.198120        1.000000        0.00012275        0.00011283        0.00015011        0.00011106
     160         -0.197880        1.000000        0.00023706        0.00014497        0.00014422        0.00026554
     161         -0.196969        1.000000        0.00063483        0.00122445        0.00039359        0.00046673
     162         -0.196420        1.000000        0.00006320        0.00286158        0.00027202        0.00010460
     163         -0.195977        1.000000        0.00019939        0.00043776        0.00039606        0.00036870
     164         -0.195766        1.000000        0.00008075        0.00024719        0.00027078        0.00002834
     165         -0.194940        1.000000        0.00004930        0.00030891        0.00036023        0.00016335
     166         -0.194230        1.000000        0.00003386        0.00013691        0.00006566        0.00018992
     167         -0.193668        1.000000        0.00004692        0.00029693        0.00027297        0.00038861
     168         -0.193259        1.000000        0.00002847        0.00039367        0.00046643        0.00026882
     169         -0.193007        1.000000        0.00003031        0.00003523        0.00013038        0.00004120
     170         -0.192643        1.000000        0.00003825        0.00021591        0.00003063        0.00008559
     171         -0.191575        1.000000        0.00007277        0.00070627        0.00013042        0.00018422
     172         -0.190365        1.000000        0.00029819        0.00040930        0.00081009        0.00016933
     173         -0.189998        1.000000        0.00013935        0.00057320        0.00014885        0.00024017
     174         -0.189711        1.000000        0.00025084        0.00060824        0.00079112        0.00005548
     175         -0.188943        1.000000        0.00001706        0.00040003        0.00014778        0.00008644
     176         -0.188648        1.000000        0.00008385        0.00023294        0.00007335        0.00017733
     177         -0.188060        1.000000        0.00008761        0.00021969        0.00007675        0.00002753
     178         -0.187647        1.000000        0.00006346        0.00038086        0.00005655        0.00007069
     179         -0.187376        1.000000        0.00003600        0.00051786        0.00011617        0.00004505
     180         -0.187073        1.000000        0.00002995        0.00012481        0.00012293        0.00007041
     181         -0.186116        1.000000        0.00002584        0.00003622        0.00003479        0.00001780
     182         -0.185475        1.000000        0.00073452        0.00008585        0.00111271        0.00030633
     183         -0.184651        1.000000        0.00003109        0.00013296        0.00010613        0.00015497
     184         -0.183393        1.000000        0.00013613        0.00007493        0.00003762        0.00026233
     185         -0.183104        1.000000        0.00015417        0.00009990        0.00116772        0.00007077
     186         -0.182342        1.000000        0.00001825        0.00002686        0.00011129        0.00003596
     187         -0.182068        1.000000        0.00010695        0.00020264        0.00059973        0.00003218
     188         -0.181585        1.000000        0.00010341        0.00017947        0.00037487        0.00005634
     189         -0.179810        1.000000        0.00013895        0.00025392        0.00019959        0.00025089
     190         -0.176112        1.000000        0.00037963        0.00051396        0.00011212        0.00052371
     191         -0.174276        1.000000        0.00000375        0.00000559        0.00000464        0.00005830
     192         -0.173452        1.000000        0.00005029        0.00005436        0.00003691        0.00012650
     193         -0.172084        1.000000        0.00001019        0.00000365        0.00002246        0.00001809
     194         -0.171330        1.000000        0.00003217        0.00000571        0.00009718        0.00001718
     195         -0.168816        0.000000        0.00001438        0.00000807        0.00003257        0.00002411
     196         -0.167304        0.000000        0.00001254        0.00002760        0.00004951        0.00000546
     197         -0.164426        0.000000        0.00001349        0.00002607        0.00001085        0.00001665
     198         -0.158483        0.000000        0.00000890        0.00004047        0.00000880        0.00000780
     199         -0.155454        0.000000        0.00001515        0.00003997        0.00000784        0.00003370
     200         -0.155031        0.000000        0.00000833        0.00001756        0.00000643        0.00002031
     201         -0.129174        0.000000        0.00000635        0.00001241        0.00001991        0.00000907
     202         -0.074048        0.000000        0.00007059        0.00009212        0.00002509        0.00015419
     203         -0.073755        0.000000        0.00001666        0.00003157        0.00004228        0.00001707
     204         -0.071855        0.000000        0.00005806        0.00001712        0.00005701        0.00005147
     205         -0.062686        0.000000        0.00007754        0.00000914        0.00014697        0.00016486
     206         -0.055405        0.000000        0.00001875        0.00004198        0.00001675        0.00002615
     207         -0.052774        0.000000        0.00006114        0.00000819        0.00006754        0.00002564
     208         -0.049415        0.000000        0.00001283        0.00009070        0.00003041        0.00007668
     209         -0.045620        0.000000        0.00000945        0.00001612        0.00001452        0.00001676
     210         -0.040740        0.000000        0.00001336        0.00003446        0.00003033        0.00003953
     211         -0.040492        0.000000        0.00004520        0.00008332        0.00001004        0.00003989
     212         -0.038395        0.000000        0.00001468        0.00002649        0.00002552        0.00005395
     213         -0.034583        0.000000        0.00000972        0.00001241        0.00001068        0.00000463
     214         -0.033635        0.000000        0.00003040        0.00001012        0.00006900        0.00011326
     215         -0.030204        0.000000        0.00001278        0.00000116        0.00000707        0.00004904
     216         -0.026359        0.000000        0.00001656        0.00000752        0.00000680        0.00001261
     217         -0.023999        0.000000        0.00005115        0.00002007        0.00009974        0.00002859
     218         -0.022548        0.000000        0.00000443        0.00000721        0.00009460        0.00007628
     219         -0.018004        0.000000        0.00004900        0.00004316        0.00002473        0.00002141
     220         -0.017859        0.000000        0.00003987        0.00003333        0.00002557        0.00004985
     221         -0.017676        0.000000        0.00001252        0.00004302        0.00005227        0.00002877
     222         -0.014839        0.000000        0.00001250        0.00000225        0.00002308        0.00013915
     223         -0.013976        0.000000        0.00000626        0.00000943        0.00005750        0.00004925
     224         -0.011664        0.000000        0.00011673        0.00003976        0.00017366        0.00011467
     225         -0.005075        0.000000        0.00004898        0.00003433        0.00002387        0.00012097
     226          0.088308        0.000000        0.07961113        0.00360547        0.00193303        0.55009052
     227          0.098888        0.000000        0.07875541        0.01040991        0.12001672        0.42801406
     228          0.102782        0.000000        0.07880174        0.00357828        0.00547482        0.54033617
     229          0.103763        0.000000        0.07867618        0.00017063        0.16178769        0.39199564
     230          0.103953        0.000000        0.08150399        0.00294233        0.01011170        0.53382830
     231          0.109000        0.000000        0.07916468        0.00249726        0.24597145        0.30407011
     232          0.115317        0.000000        0.08111282        0.03722432        0.15673317        0.35521518
     233          0.283730        0.000000        0.00014438        0.00544715        0.00000702        0.00006969
     234          0.284820        0.000000        0.00000040        0.00005043        0.00588541        0.00000446
     235          0.286039        0.000000        0.00000771        0.00544850        0.00059220        0.00006029
     236          0.290041        0.000000        0.00003689        0.00438189        0.00065665        0.00001987
     237          0.293169        0.000000        0.00003131        0.00044910        0.00329516        0.00179631
     238          0.294704        0.000000        0.00009338        0.00407296        0.00157848        0.00054801
     239          0.295023        0.000000        0.00002160        0.00209523        0.00251082        0.00125330
     240          0.295167        0.000000        0.00005501        0.00516363        0.00085636        0.00008463
     241          0.296596        0.000000        0.00015020        0.00075482        0.00218426        0.00275712
     242          0.298060        0.000000        0.00004154        0.00028042        0.00758611        0.00004223
     243          0.300357        0.000000        0.00000042        0.00541067        0.00063619        0.00017614
     244          0.301918        0.000000        0.00034978        0.00174921        0.00563168        0.00000051
     245          0.307554        0.000000        0.00000063        0.00313061        0.00155409        0.00176967
     246          0.311192        0.000000        0.00000248        0.00333107        0.00336177        0.00049131
     247          0.316563        0.000000        0.00473066        0.00013062        0.00000220        0.00002175
     248          0.327639        0.000000        0.00456702        0.00018109        0.00003903        0.00003366
     249          0.336288        0.000000        0.00533353        0.00001847        0.00007026        0.00029718
     250          0.337493        0.000000        0.00507031        0.00008503        0.00019063        0.00022349
     251          0.337677        0.000000        0.00497229        0.00000856        0.00019714        0.00006726
     252          0.344756        0.000000        0.00488668        0.00088328        0.00011159        0.00009341
     253          0.349264        0.000000        0.00523021        0.00000363        0.00001512        0.00009163
     254          0.454597        0.000000        0.00004771        0.08918924        0.30029892        0.00294050
     255          0.459542        0.000000        0.00002121        0.30254089        0.09068409        0.00096716
     256          0.462974        0.000000        0.00009261        0.36685435        0.02369110        0.00279571
     257          0.464495        0.000000        0.00012649        0.01350423        0.37783435        0.00129986
     258          0.466162        0.000000        0.00003689        0.38249644        0.00791184        0.00340789
     259          0.467275        0.000000        0.00061903        0.01857502        0.36262145        0.00980511