# Projected DOS for atomic kind I at iteration step i = 0, E(Fermi) =    -0.171330 a.u.
#     MO Eigenvalue [a.u.]      Occupation                 s                py                pz                px
       1         -0.952920        1.000000        0.00011658        0.00043150        0.00015729        0.00007580
       2         -0.945307        1.000000        0.00015240        0.00021919        0.00041136        0.00010358
       3         -0.942426        1.000000        0.00018431        0.00050972        0.00028085        0.00021962
       4         -0.940424        1.000000        0.00012824        0.00036853        0.00007856        0.00025133
       5         -0.936657        1.000000        0.00018681        0.00033167        0.00032552        0.00019834
       6         -0.936356        1.000000        0.00017248        0.00047239        0.00026617        0.00002931
       7         -0.926085        1.000000        0.00015941        0.00039954        0.00014814        0.00026089
       8         -0.693810        1.000000        0.00070679        0.00025677        0.00013830        0.00004762
       9         -0.690003        1.000000        0.00219213        0.00060465        0.00054839        0.00021036
      10         -0.684865        1.000000        0.00163099        0.00036945        0.00036217        0.00007720
      11         -0.683700        1.000000        0.00214925        0.00023950        0.00028662        0.00033285
      12         -0.683458        1.000000        0.00165830        0.00056274        0.00015151        0.00033558
      13         -0.680384        1.000000        0.00241347        0.00054767        0.00045932        0.00031853
      14         -0.671848        1.000000        0.00161602        0.00031611        0.00024981        0.00019781
      15         -0.640367        1.000000        0.95254069        0.00117488        0.00684975        0.01711371
      16         -0.631104        1.000000        0.95074431        0.00144028        0.01580314        0.00763703
      17         -0.622824        1.000000        0.94024066        0.00642777        0.00254929        0.00937330
      18         -0.619653        1.000000        0.96012857        0.00659573        0.00183800        0.01686202
      19         -0.614884        1.000000        0.91580829        0.00911923        0.00295269        0.00166022
      20         -0.603480        1.000000        0.87337897        0.00328436        0.00745404        0.01464962
      21         -0.597755        1.000000        0.80466810        0.00442335        0.00555213        0.00641279
      22         -0.594223        1.000000        0.83264512        0.00829968        0.00571000        0.00795591
      23         -0.594030        1.000000        0.84049394        0.00568671        0.00537784        0.00913586
      24         -0.592277        1.000000        0.84920823        0.00364507        0.00379464        0.00384276
      25         -0.591212        1.000000        0.76449195        0.00406953        0.00575470        0.00547780
      26         -0.587664        1.000000        0.84496154        0.00729207        0.00791381        0.01071558
      27         -0.586484        1.000000        0.73299978        0.00551502        0.00339042        0.00415975
      28         -0.585400        1.000000        0.68136737        0.00567875        0.00370040        0.00330065
      29         -0.583846        1.000000        0.88192398        0.00459215        0.00355522        0.01068378
      30         -0.582996        1.000000        0.79577861        0.00235547        0.00701407        0.00610729
      31         -0.582420        1.000000        0.76944583        0.00275443        0.00347788        0.00564865
      32         -0.582207        1.000000        0.82768450        0.00181609        0.00366790        0.00627512
      33         -0.580324        1.000000        0.84991335        0.00279476        0.00473444        0.00424435
      34         -0.580056        1.000000        0.83444450        0.00264671        0.00412356        0.00372014
      35         -0.577896        1.000000        0.75243507        0.00339000        0.00289721        0.00322068
      36         -0.577823        1.000000        0.25918372        0.00135110        0.00175451        0.00139448
      37         -0.576941        1.000000        0.75185605        0.00501685        0.00327794        0.00150253
      38         -0.575891        1.000000        0.77137983        0.00255238        0.00185988        0.00196571
      39         -0.574955        1.000000        0.85217658        0.00284135        0.00250136        0.00207257
      40         -0.574743        1.000000        0.82159075        0.00237028        0.00393685        0.00093559
      41         -0.574171        1.000000        0.77819431        0.00143949        0.00301729        0.00361980
      42         -0.573190        1.000000        0.57663638        0.00313906        0.00340428        0.00198634
      43         -0.572512        1.000000        0.92476444        0.00199390        0.00178417        0.00040966
      44         -0.571375        1.000000        0.96086684        0.00229596        0.00047336        0.00241264
      45         -0.570494        1.000000        0.47171514        0.00580058        0.00203089        0.00172740
      46         -0.569631        1.000000        0.69870910        0.00497426        0.00561131        0.00239794
      47         -0.568008        1.000000        0.14326673        0.00276809        0.00079934        0.00059252
      48         -0.567089        1.000000        0.78582316        0.00198437        0.00135795        0.00446188
      49         -0.565592        1.000000        0.82259007        0.00713690        0.00375261        0.00137664
      50         -0.564140        1.000000        0.28516308        0.00124077        0.00191228        0.00097379
      51         -0.562719        1.000000        0.12054289        0.00061189        0.00054775        0.00086103
      52         -0.560392        1.000000        0.40348905        0.00497448        0.00138346        0.00171408
      53         -0.559962        1.000000        0.25232232        0.00505561        0.00094630        0.00072318
      54         -0.559468        1.000000        0.92616316        0.00256379        0.00109667        0.00637524
      55         -0.557586        1.000000        0.19319708        0.00128479        0.00104956        0.00055845
      56         -0.554223        1.000000        0.68808542        0.00439386        0.00118660        0.00094242
      57         -0.553685        1.000000        0.77531746        0.00120696        0.00207713        0.00035694
      58         -0.552342        1.000000        0.74765766        0.00074567        0.00167529        0.00060796
      59         -0.551138        1.000000        0.20657888        0.00637675        0.00239175        0.00161646
      60         -0.545808        1.000000        0.19317307        0.00133550        0.00166580        0.00108371
      61         -0.544885        1.000000        0.34190161        0.00162585        0.00211150        0.00167911
      62         -0.541933        1.000000        0.46208663        0.00072587        0.00137448        0.00045336
      63         -0.538424        1.000000        0.35185762        0.00100579        0.00097697        0.00105215
      64         -0.537833        1.000000        0.23673963        0.00226200        0.00100735        0.00213962
      65         -0.473927        1.000000        0.00293318        0.00186798        0.00107008        0.00025068
      66         -0.469954        1.000000        0.00502280        0.00357992        0.00327290        0.00143161
      67         -0.465117        1.000000        0.12195057        0.03344643        0.04266539        0.01901218
      68         -0.464752        1.000000        0.03282340        0.01022522        0.01301601        0.00510959
      69         -0.464187        1.000000        0.01471692        0.00680390        0.00425576        0.00542705
      70         -0.463806        1.000000        0.00330568        0.00138674        0.00253722        0.00165622
      71         -0.461691        1.000000        0.08021291        0.02336449        0.02133831        0.01700757
      72         -0.460663        1.000000        0.16216154        0.05217273        0.03847273        0.03134145
      73         -0.459417        1.000000        0.11318173        0.03165505        0.02374591        0.02075506
      74         -0.458457        1.000000        0.13306809        0.03343007        0.04253998        0.02826152
      75         -0.454140        1.000000        0.13437912        0.04057936        0.02815495        0.04222623
      76         -0.451578        1.000000        0.03371913        0.00891694        0.00783941        0.00737229
      77         -0.447662        1.000000        0.14831349        0.03593146        0.03959382        0.04716516
      78         -0.443151        1.000000        0.15028226        0.03619481        0.03901402        0.03593836
      79         -0.438488        1.000000        0.15075001        0.04494467        0.04384577        0.00543764
      80         -0.410724        1.000000        0.00189524        0.00383848        0.00040793        0.00072760
      81         -0.409898        1.000000        0.00081222        0.00065539        0.00220412        0.00073027
      82         -0.407697        1.000000        0.00192095        0.00358603        0.00524054        0.00131362
      83         -0.406288        1.000000        0.00268918        0.00627977        0.00383452        0.00256509
      84         -0.402421        1.000000        0.00193943        0.00164610        0.00403462        0.00096586
      85         -0.401817        1.000000        0.00058821        0.00273007        0.00140224        0.00127212
      86         -0.400758        1.000000        0.00133438        0.00476336        0.00201078        0.00132854
      87         -0.400111        1.000000        0.00134583        0.00189385        0.00071912        0.00306808
      88         -0.398916        1.000000        0.00366909        0.00760049        0.00111014        0.00141951
      89         -0.398310        1.000000        0.00210487        0.00194861        0.00285446        0.00310300
      90         -0.398196        1.000000        0.00191654        0.00181545        0.00363017        0.00149780
      91         -0.395468        1.000000        0.00232030        0.00571197        0.00204833        0.00108237
      92         -0.390099        1.000000        0.00077203        0.00131467        0.00112210        0.00082424
      93         -0.386843        1.000000        0.00174733        0.00373759        0.00053973        0.00227995
      94         -0.323848        1.000000        0.02829485        0.01364258        0.23847477        0.69327903
      95         -0.315952        1.000000        0.02624191        0.05058069        0.52069182        0.30494131
      96         -0.305510        1.000000        0.03183211        0.23374583        0.06521725        0.64715672
      97         -0.303277        1.000000        0.01589526        0.21672964        0.05204573        0.62180787
      98         -0.298798        1.000000        0.01573217        0.73876920        0.06100594        0.03906750
      99         -0.276492        1.000000        0.00915125        0.31879818        0.23519311        0.22009295
     100         -0.273732        1.000000        0.01150026        0.27886090        0.27387889        0.26004499
     101         -0.273066        1.000000        0.00907029        0.55471644        0.09943380        0.17957519
     102         -0.269511        1.000000        0.01622745        0.13627520        0.19720450        0.40310772
     103         -0.268426        1.000000        0.01899223        0.40601994        0.22447794        0.17131842
     104         -0.265559        1.000000        0.01402326        0.37120342        0.17462011        0.23398326
     105         -0.264930        1.000000        0.01955507        0.16621733        0.19701898        0.35777929
     106         -0.264692        1.000000        0.00961189        0.43476773        0.12976604        0.23384792
     107         -0.262922        1.000000        0.02112814        0.35181293        0.27827823        0.12156892
     108         -0.257322        1.000000        0.01704729        0.31819942        0.19461141        0.27481039
     109         -0.256894        1.000000        0.01649014        0.25843984        0.33686959        0.17205786
     110         -0.256130        1.000000        0.01756537        0.20089327        0.33833342        0.21965979
     111         -0.255739        1.000000        0.01742227        0.28846231        0.23253506        0.23807104
     112         -0.254158        1.000000        0.01535717        0.24494786        0.32075965        0.24026434
     113         -0.252575        1.000000        0.00588555        0.51573711        0.30529370        0.08538887
     114         -0.251752        1.000000        0.01372195        0.23229631        0.41952640        0.14014899
     115         -0.250358        1.000000        0.01479109        0.25594033        0.36564076        0.17946740
     116         -0.247144        1.000000        0.01278985        0.16589110        0.41311637        0.24193862
     117         -0.245542        1.000000        0.01003296        0.15113619        0.42499227        0.31498129
     118         -0.244403        1.000000        0.01380570        0.20307409        0.22934625        0.37181440
     119         -0.243421        1.000000        0.01281688        0.19313686        0.36246237        0.25019627
     120         -0.242997        1.000000        0.01369701        0.24684911        0.39877292        0.12817653
     121         -0.239911        1.000000        0.01212327        0.22743061        0.38956679        0.23324476
     122         -0.238443        1.000000        0.00659815        0.21089436        0.52042892        0.19052175
     123         -0.236608        1.000000        0.00796402        0.17601820        0.44344597        0.25388254
     124         -0.236012        1.000000        0.00803981        0.22897269        0.30036631        0.34803310
     125         -0.235208        1.000000        0.01255966        0.28100805        0.43035743        0.13121673
     126         -0.233913        1.000000        0.00719375        0.23666519        0.35827649        0.26338108
     127         -0.232358        1.000000        0.00832500        0.39320020        0.31550633        0.14571986
     128         -0.231974        1.000000        0.00979708        0.27335353        0.48381401        0.13454158
     129         -0.229302        1.000000        0.00952745        0.30953189        0.31674932        0.32271734
     130         -0.227524        1.000000        0.00546099        0.26380573        0.29152160        0.34475514
     131         -0.224407        1.000000        0.00348134        0.42645088        0.41086909        0.10425844
     132         -0.223099        1.000000        0.00490928        0.35649550        0.31870156        0.25071532
     133         -0.221927        1.000000        0.00335655        0.31183247        0.39453189        0.21373249
     134         -0.219921        1.000000        0.00728929        0.42124423        0.20047881        0.30967717
     135         -0.218616        1.000000        0.00451307        0.36756223        0.29930266        0.26145147
     136         -0.217955        1.000000        0.00755218        0.36095841        0.18297669        0.40047845
     137         -0.215980        1.000000        0.00501682        0.26361380        0.25282818        0.41907926
     138         -0.215281        1.000000        0.00343520        0.34441329        0.44095458        0.15064712
     139         -0.214268        1.000000        0.00206124        0.31591372        0.51698675        0.13910424
     140         -0.213955        1.000000        0.00226977        0.25390739        0.55404349        0.15730589
     141         -0.212335        1.000000        0.00540838        0.17420613        0.54813388        0.22028777
     142         -0.211674        1.000000        0.00226376        0.43016679        0.30626518        0.23823695
     143         -0.210759        1.000000        0.00265729        0.38744024        0.40893111        0.18111388
     144         -0.209500        1.000000        0.00226910        0.43742721        0.28515948        0.25254027
     145         -0.207903        1.000000        0.00294853        0.50493835        0.23718769        0.21403411
     146         -0.207805        1.000000        0.00164096        0.33664185        0.26250674        0.36516360
     147         -0.207349        1.000000        0.00159976        0.44717902        0.19445729        0.33700894
     148         -0.206402        1.000000        0.00278855        0.41081040        0.22266316        0.33315716
     149         -0.205587        1.000000        0.00237066        0.47818444        0.20398152        0.28947645
     150         -0.205022        1.000000        0.00319550        0.44946222        0.22257215        0.28908562
     151         -0.204514        1.000000        0.00445965        0.23313565        0.26849781        0.46114087
     152         -0.203628        1.000000        0.00281225        0.31455141        0.17895974        0.47435524
     153         -0.202296        1.000000        0.00417467        0.28808384        0.17061333        0.51302130
     154         -0.201944        1.000000        0.00239348        0.32902453        0.33054099        0.28396867
     155         -0.201718        1.000000        0.00378596        0.32520265        0.30513344        0.34027010
     156         -0.201037        1.000000        0.00259056        0.35431012        0.30559344        0.29697782
     157         -0.200342        1.000000        0.00189356        0.28075084        0.33085134        0.36758494
     158         -0.199337        1.000000        0.00258398        0.26547336        0.31339259        0.38498285
     159         -0.198120        1.000000        0.00215769        0.30953248        0.24454336        0.41356878
     160         -0.197880        1.000000        0.00298412        0.28112435        0.27160517        0.42565932
     161         -0.196969        1.000000        0.00101413        0.43994571        0.35126144        0.19083058
     162         -0.196420        1.000000        0.00107775        0.40262317        0.22664086        0.35206074
     163         -0.195977        1.000000        0.00185220        0.37122813        0.32759889        0.27919586
     164         -0.195766        1.000000        0.00157075        0.32143956        0.26451827        0.38377429
     165         -0.194940        1.000000        0.00214222        0.32104884        0.26010085        0.40102668
     166         -0.194230        1.000000        0.00150728        0.48997677        0.28221416        0.20545890
     167         -0.193668        1.000000        0.00275531        0.44128307        0.39433219        0.13518677
     168         -0.193259        1.000000        0.00123106        0.21875558        0.28687998        0.48472335
     169         -0.193007        1.000000        0.00163384        0.43257900        0.23309593        0.31281745
     170         -0.192643        1.000000        0.00075010        0.35405750        0.16823362        0.45124183
     171         -0.191575        1.000000        0.00238965        0.42110120        0.42377767        0.12797471
     172         -0.190365        1.000000        0.00159819        0.31423800        0.39667959        0.26613618
     173         -0.189998        1.000000        0.00320583        0.44719724        0.18653695        0.33457955
     174         -0.189711        1.000000        0.00101655        0.31617087        0.37933301        0.29105691
     175         -0.188943        1.000000        0.00219721        0.35131757        0.33127676        0.28863057
     176         -0.188648        1.000000        0.00120958        0.32610561        0.39910248        0.25710793
     177         -0.188060        1.000000        0.00105298        0.26127497        0.49877402        0.22566316
     178         -0.187647        1.000000        0.00125453        0.20739709        0.10434531        0.66847620
     179         -0.187376        1.000000        0.00070326        0.25453608        0.38320707        0.35551278
     180         -0.187073        1.000000        0.00079240        0.21037852        0.47187686        0.30556525
     181         -0.186116        1.000000        0.00036974        0.51023820        0.24426163        0.23926560
     182         -0.185475        1.000000        0.00069746        0.19115777        0.13027776        0.66561745
     183         -0.184651        1.000000        0.00098713        0.21044755        0.60737202        0.17154870
     184         -0.183393        1.000000        0.00089296        0.40674188        0.35607521        0.21795602
     185         -0.183104        1.000000        0.00227647        0.23783166        0.45235726        0.28002875
     186         -0.182342        1.000000        0.00053517        0.20044018        0.26314842        0.52993425
     187         -0.182068        1.000000        0.00229127        0.34078476        0.12844463        0.48627707
     188         -0.181585        1.000000        0.00064437        0.17482204        0.36885645        0.44644877
     189         -0.179810        1.000000        0.00093755        0.34014257        0.42846899        0.21803047
     190         -0.176112        1.000000        0.00044853        0.37036291        0.42182880        0.20079519
     191         -0.174276        1.000000        0.00022956        0.25250702        0.12302779        0.62127441
     192         -0.173452        1.000000        0.00086984        0.09041048        0.36161969        0.51336347
     193         -0.172084        1.000000        0.00128727        0.17947650        0.46498166        0.24525947
     194         -0.171330        1.000000        0.00036567        0.14552271        0.12584022        0.71694802
     195         -0.168816        0.000000        0.00122459        0.28368070        0.26427167        0.32239305
     196         -0.167304        0.000000        0.00978809        0.10141589        0.58530332        0.24000117
     197         -0.164426        0.000000        0.00214320        0.32648541        0.39100319        0.17277482
     198         -0.158483        0.000000        0.00314159        0.41746139        0.38674014        0.10339303
     199         -0.155454        0.000000        0.01042427        0.08627579        0.19821004        0.66004416
     200         -0.155031        0.000000        0.00520370        0.20303420        0.10497690        0.62188780
     201         -0.129174        0.000000        0.00792193        0.26566511        0.00403763        0.72184791
     202         -0.074048        0.000000        0.01223849        0.06444884        0.12103569        0.06973163
     203         -0.073755        0.000000        0.01191671        0.10047951        0.05788056        0.09564260
     204         -0.071855        0.000000        0.02673476        0.05479649        0.05017458        0.08603457
     205         -0.062686        0.000000        0.02543205        0.10050549        0.07289595        0.07685575
     206         -0.055405        0.000000        0.01699505        0.11089501        0.07090124        0.07953818
     207         -0.052774        0.000000        0.02038090        0.05567688        0.10627296        0.11637326
     208         -0.049415        0.000000        0.01785092        0.14626297        0.02822467        0.09972377
     209         -0.045620        0.000000        0.01130544        0.08986756        0.04564946        0.14719217
     210         -0.040740        0.000000        0.01945406        0.20480140        0.03167325        0.05634025
     211         -0.040492        0.000000        0.02263208        0.04232110        0.17457011        0.06846277
     212         -0.038395        0.000000        0.02050413        0.05416445        0.14330606        0.09092223
     213         -0.034583        0.000000        0.02094927        0.03755549        0.18284711        0.07323254
     214         -0.033635        0.000000        0.02235224        0.03850471        0.19548081        0.06272882
     215         -0.030204        0.000000        0.01705847        0.10209713        0.14815782        0.03780470
     216         -0.026359        0.000000        0.02472294        0.12885771        0.05315752        0.11283221
     217         -0.023999        0.000000        0.02666774        0.03045522        0.25035546        0.02556709
     218         -0.022548        0.000000        0.01838043        0.14515049        0.05059201        0.09839162
     219         -0.018004        0.000000        0.02187288        0.16638904        0.03887267        0.09146760
     220         -0.017859        0.000000        0.02094541        0.16507285        0.02400196        0.10767950
     221         -0.017676        0.000000        0.02355261        0.10585853        0.03352986        0.15981810
     222         -0.014839        0.000000        0.02376256        0.02051115        0.22968963        0.03988459
     223         -0.013976        0.000000        0.02060342        0.19352603        0.06595308        0.03895120
     224         -0.011664        0.000000        0.02661759        0.21654464        0.02308126        0.06888872
     225         -0.005075        0.000000        0.02676906        0.02686466        0.26546584        0.01238676
     226          0.088308        0.000000        0.00002627        0.00071627        0.00044474        0.00002835
     227          0.098888        0.000000        0.00007986        0.00037832        0.00178166        0.00076855
     228          0.102782        0.000000        0.00011786        0.00050708        0.00113958        0.00049053
     229          0.103763        0.000000        0.00006885        0.00127095        0.00024430        0.00111187
     230          0.103953        0.000000        0.00005672        0.00121004        0.00092046        0.00022191
     231          0.109000        0.000000        0.00013458        0.00112375        0.00133223        0.00096914
     232          0.115317        0.000000        0.00004848        0.00096650        0.00077045        0.00063148
     233          0.283730        0.000000        0.00080894        0.01175176        0.00146014        0.00198388
     234          0.284820        0.000000        0.00010448        0.00087054        0.00262002        0.00029420
     235          0.286039        0.000000        0.00210997        0.00018399        0.00334710        0.00890288
     236          0.290041        0.000000        0.00022234        0.00277850        0.00050487        0.00101038
     237          0.293169        0.000000        0.00005896        0.00027278        0.00022644        0.00135428
     238          0.294704        0.000000        0.00053311        0.01067307        0.00602444        0.00293586
     239          0.295023        0.000000        0.00075811        0.00539631        0.00852409        0.00259776
     240          0.295167        0.000000        0.00071738        0.01248133        0.00196287        0.00387452
     241          0.296596        0.000000        0.00042588        0.00542208        0.00242622        0.00012728
     242          0.298060        0.000000        0.00012558        0.00179179        0.00249998        0.00182288
     243          0.300357        0.000000        0.00082201        0.01025247        0.00541036        0.00025778
     244          0.301918        0.000000        0.00015639        0.00051728        0.00215370        0.00080198
     245          0.307554        0.000000        0.00068686        0.00663110        0.00048322        0.00691946
     246          0.311192        0.000000        0.00048715        0.00803271        0.00083151        0.00142060
     247          0.316563        0.000000        0.00087096        0.01186139        0.00285966        0.00260082
     248          0.327639        0.000000        0.00079057        0.00445092        0.00759318        0.00247401
     249          0.336288        0.000000        0.00101429        0.00811766        0.00162913        0.00513705
     250          0.337493        0.000000        0.00145334        0.00310566        0.00473499        0.00732181
     251          0.337677        0.000000        0.00098008        0.01145460        0.00631223        0.00119791
     252          0.344756        0.000000        0.00034222        0.01798172        0.00395000        0.00250220
     253          0.349264        0.000000        0.00086485        0.00962804        0.00091559        0.00670581
     254          0.454597        0.000000        0.00001011        0.00007651        0.00024906        0.00007358
     255          0.459542        0.000000        0.00004321        0.00050824        0.00018681        0.00027213
     256          0.462974        0.000000        0.00004431        0.00022625        0.00018000        0.00020945
     257          0.464495        0.000000        0.00006311        0.00079562        0.00064000        0.00008911
     258          0.466162        0.000000        0.00005795        0.00051804        0.00049957        0.00028564
     259          0.467275        0.000000        0.00003790        0.00037516        0.00029684        0.00016216