# Projected DOS for atomic kind H at iteration step i = 0, E(Fermi) =    -0.171330 a.u.
#     MO Eigenvalue [a.u.]      Occupation                 s
       1         -0.952920        1.000000        0.28164875
       2         -0.945307        1.000000        0.28346045
       3         -0.942426        1.000000        0.28037365
       4         -0.940424        1.000000        0.28246485
       5         -0.936657        1.000000        0.27978739
       6         -0.936356        1.000000        0.28130533
       7         -0.926085        1.000000        0.28053878
       8         -0.693810        1.000000        0.34285681
       9         -0.690003        1.000000        0.34834176
      10         -0.684865        1.000000        0.34845461
      11         -0.683700        1.000000        0.34081619
      12         -0.683458        1.000000        0.34387081
      13         -0.680384        1.000000        0.34522092
      14         -0.671848        1.000000        0.34655250
      15         -0.640367        1.000000        0.00807846
      16         -0.631104        1.000000        0.00157407
      17         -0.622824        1.000000        0.00079172
      18         -0.619653        1.000000        0.00266334
      19         -0.614884        1.000000        0.00705550
      20         -0.603480        1.000000        0.01525282
      21         -0.597755        1.000000        0.01969585
      22         -0.594223        1.000000        0.00905687
      23         -0.594030        1.000000        0.00995775
      24         -0.592277        1.000000        0.01892783
      25         -0.591212        1.000000        0.06906390
      26         -0.587664        1.000000        0.01602526
      27         -0.586484        1.000000        0.07538938
      28         -0.585400        1.000000        0.10152715
      29         -0.583846        1.000000        0.01518044
      30         -0.582996        1.000000        0.06119880
      31         -0.582420        1.000000        0.06704300
      32         -0.582207        1.000000        0.05031540
      33         -0.580324        1.000000        0.03107026
      34         -0.580056        1.000000        0.03808617
      35         -0.577896        1.000000        0.06763777
      36         -0.577823        1.000000        0.24371351
      37         -0.576941        1.000000        0.06641624
      38         -0.575891        1.000000        0.07362806
      39         -0.574955        1.000000        0.03462477
      40         -0.574743        1.000000        0.04492928
      41         -0.574171        1.000000        0.06739026
      42         -0.573190        1.000000        0.14413032
      43         -0.572512        1.000000        0.00861786
      44         -0.571375        1.000000        0.00198320
      45         -0.570494        1.000000        0.17973216
      46         -0.569631        1.000000        0.07921472
      47         -0.568008        1.000000        0.27987327
      48         -0.567089        1.000000        0.04913502
      49         -0.565592        1.000000        0.02147179
      50         -0.564140        1.000000        0.22883780
      51         -0.562719        1.000000        0.28618264
      52         -0.560392        1.000000        0.18331067
      53         -0.559962        1.000000        0.23680970
      54         -0.559468        1.000000        0.01918177
      55         -0.557586        1.000000        0.25693102
      56         -0.554223        1.000000        0.08102695
      57         -0.553685        1.000000        0.05306770
      58         -0.552342        1.000000        0.06543660
      59         -0.551138        1.000000        0.23647016
      60         -0.545808        1.000000        0.25548578
      61         -0.544885        1.000000        0.18973096
      62         -0.541933        1.000000        0.15061846
      63         -0.538424        1.000000        0.18369073
      64         -0.537833        1.000000        0.22960669
      65         -0.473927        1.000000        0.17609983
      66         -0.469954        1.000000        0.17313740
      67         -0.465117        1.000000        0.03660145
      68         -0.464752        1.000000        0.14050975
      69         -0.464187        1.000000        0.16273615
      70         -0.463806        1.000000        0.17696556
      71         -0.461691        1.000000        0.09900703
      72         -0.460663        1.000000        0.02318104
      73         -0.459417        1.000000        0.07111781
      74         -0.458457        1.000000        0.00473092
      75         -0.454140        1.000000        0.03004852
      76         -0.451578        1.000000        0.14735003
      77         -0.447662        1.000000        0.00092186
      78         -0.443151        1.000000        0.00420865
      79         -0.438488        1.000000        0.00163584
      80         -0.410724        1.000000        0.42172554
      81         -0.409898        1.000000        0.42056435
      82         -0.407697        1.000000        0.42237143
      83         -0.406288        1.000000        0.42135774
      84         -0.402421        1.000000        0.42375477
      85         -0.401817        1.000000        0.42213208
      86         -0.400758        1.000000        0.42096547
      87         -0.400111        1.000000        0.42186772
      88         -0.398916        1.000000        0.41957025
      89         -0.398310        1.000000        0.41775320
      90         -0.398196        1.000000        0.42093588
      91         -0.395468        1.000000        0.41973101
      92         -0.390099        1.000000        0.42458881
      93         -0.386843        1.000000        0.42034048
      94         -0.323848        1.000000        0.00065323
      95         -0.315952        1.000000        0.00011971
      96         -0.305510        1.000000        0.00041016
      97         -0.303277        1.000000        0.00012492
      98         -0.298798        1.000000        0.00018970
      99         -0.276492        1.000000        0.00046293
     100         -0.273732        1.000000        0.00097642
     101         -0.273066        1.000000        0.00133952
     102         -0.269511        1.000000        0.00041774
     103         -0.268426        1.000000        0.00046866
     104         -0.265559        1.000000        0.00058566
     105         -0.264930        1.000000        0.00055391
     106         -0.264692        1.000000        0.00049144
     107         -0.262922        1.000000        0.00047622
     108         -0.257322        1.000000        0.00036953
     109         -0.256894        1.000000        0.00044506
     110         -0.256130        1.000000        0.00049213
     111         -0.255739        1.000000        0.00050640
     112         -0.254158        1.000000        0.00066426
     113         -0.252575        1.000000        0.00084913
     114         -0.251752        1.000000        0.00078422
     115         -0.250358        1.000000        0.00042094
     116         -0.247144        1.000000        0.00045117
     117         -0.245542        1.000000        0.00062930
     118         -0.244403        1.000000        0.00050000
     119         -0.243421        1.000000        0.00063476
     120         -0.242997        1.000000        0.00036247
     121         -0.239911        1.000000        0.00052705
     122         -0.238443        1.000000        0.00032743
     123         -0.236608        1.000000        0.00082698
     124         -0.236012        1.000000        0.00057964
     125         -0.235208        1.000000        0.00063129
     126         -0.233913        1.000000        0.00124876
     127         -0.232358        1.000000        0.00088649
     128         -0.231974        1.000000        0.00050020
     129         -0.229302        1.000000        0.00121067
     130         -0.227524        1.000000        0.00072473
     131         -0.224407        1.000000        0.00268477
     132         -0.223099        1.000000        0.00075941
     133         -0.221927        1.000000        0.00135919
     134         -0.219921        1.000000        0.00052283
     135         -0.218616        1.000000        0.00102736
     136         -0.217955        1.000000        0.00069613
     137         -0.215980        1.000000        0.00075534
     138         -0.215281        1.000000        0.00248260
     139         -0.214268        1.000000        0.00103403
     140         -0.213955        1.000000        0.00173726
     141         -0.212335        1.000000        0.00178084
     142         -0.211674        1.000000        0.00193540
     143         -0.210759        1.000000        0.00103822
     144         -0.209500        1.000000        0.00072906
     145         -0.207903        1.000000        0.00131816
     146         -0.207805        1.000000        0.00054678
     147         -0.207349        1.000000        0.00093835
     148         -0.206402        1.000000        0.00246590
     149         -0.205587        1.000000        0.00127037
     150         -0.205022        1.000000        0.00155479
     151         -0.204514        1.000000        0.00064272
     152         -0.203628        1.000000        0.00081483
     153         -0.202296        1.000000        0.00128693
     154         -0.201944        1.000000        0.00116744
     155         -0.201718        1.000000        0.00129694
     156         -0.201037        1.000000        0.00051120
     157         -0.200342        1.000000        0.00067394
     158         -0.199337        1.000000        0.00058418
     159         -0.198120        1.000000        0.00113090
     160         -0.197880        1.000000        0.00171679
     161         -0.196969        1.000000        0.00080658
     162         -0.196420        1.000000        0.00091475
     163         -0.195977        1.000000        0.00134366
     164         -0.195766        1.000000        0.00127592
     165         -0.194940        1.000000        0.00202329
     166         -0.194230        1.000000        0.00050512
     167         -0.193668        1.000000        0.00120492
     168         -0.193259        1.000000        0.00092959
     169         -0.193007        1.000000        0.00037214
     170         -0.192643        1.000000        0.00045268
     171         -0.191575        1.000000        0.00249934
     172         -0.190365        1.000000        0.00110903
     173         -0.189998        1.000000        0.00358455
     174         -0.189711        1.000000        0.00050780
     175         -0.188943        1.000000        0.00145164
     176         -0.188648        1.000000        0.00069121
     177         -0.188060        1.000000        0.00033060
     178         -0.187647        1.000000        0.00029838
     179         -0.187376        1.000000        0.00013126
     180         -0.187073        1.000000        0.00045026
     181         -0.186116        1.000000        0.00017229
     182         -0.185475        1.000000        0.00038629
     183         -0.184651        1.000000        0.00135342
     184         -0.183393        1.000000        0.00063767
     185         -0.183104        1.000000        0.00041302
     186         -0.182342        1.000000        0.00041982
     187         -0.182068        1.000000        0.00028556
     188         -0.181585        1.000000        0.00049576
     189         -0.179810        1.000000        0.00012830
     190         -0.176112        1.000000        0.00031225
     191         -0.174276        1.000000        0.00014284
     192         -0.173452        1.000000        0.00013348
     193         -0.172084        1.000000        0.00026763
     194         -0.171330        1.000000        0.00002835
     195         -0.168816        0.000000        0.00015487
     196         -0.167304        0.000000        0.00003376
     197         -0.164426        0.000000        0.00013690
     198         -0.158483        0.000000        0.00012085
     199         -0.155454        0.000000        0.00017808
     200         -0.155031        0.000000        0.00008241
     201         -0.129174        0.000000        0.00002651
     202         -0.074048        0.000000        0.00052440
     203         -0.073755        0.000000        0.00006888
     204         -0.071855        0.000000        0.00029381
     205         -0.062686        0.000000        0.00084535
     206         -0.055405        0.000000        0.00027409
     207         -0.052774        0.000000        0.00017754
     208         -0.049415        0.000000        0.00022223
     209         -0.045620        0.000000        0.00017261
     210         -0.040740        0.000000        0.00020851
     211         -0.040492        0.000000        0.00021717
     212         -0.038395        0.000000        0.00045437
     213         -0.034583        0.000000        0.00017301
     214         -0.033635        0.000000        0.00024106
     215         -0.030204        0.000000        0.00045918
     216         -0.026359        0.000000        0.00036894
     217         -0.023999        0.000000        0.00010528
     218         -0.022548        0.000000        0.00079583
     219         -0.018004        0.000000        0.00011314
     220         -0.017859        0.000000        0.00015145
     221         -0.017676        0.000000        0.00017477
     222         -0.014839        0.000000        0.00060789
     223         -0.013976        0.000000        0.00033091
     224         -0.011664        0.000000        0.00023825
     225         -0.005075        0.000000        0.00099836
     226          0.088308        0.000000        0.00337538
     227          0.098888        0.000000        0.00283960
     228          0.102782        0.000000        0.00465492
     229          0.103763        0.000000        0.00423151
     230          0.103953        0.000000        0.00389461
     231          0.109000        0.000000        0.00366260
     232          0.115317        0.000000        0.00335070
     233          0.283730        0.000000        0.66130965
     234          0.284820        0.000000        0.65850597
     235          0.286039        0.000000        0.66705070
     236          0.290041        0.000000        0.66005516
     237          0.293169        0.000000        0.65941266
     238          0.294704        0.000000        0.66298096
     239          0.295023        0.000000        0.66155110
     240          0.295167        0.000000        0.66402291
     241          0.296596        0.000000        0.65848251
     242          0.298060        0.000000        0.66131992
     243          0.300357        0.000000        0.66120006
     244          0.301918        0.000000        0.65710072
     245          0.307554        0.000000        0.66238999
     246          0.311192        0.000000        0.66182837
     247          0.316563        0.000000        0.63482210
     248          0.327639        0.000000        0.63347884
     249          0.336288        0.000000        0.63165775
     250          0.337493        0.000000        0.63144337
     251          0.337677        0.000000        0.63174078
     252          0.344756        0.000000        0.63233084
     253          0.349264        0.000000        0.63129504
     254          0.454597        0.000000        0.58397240
     255          0.459542        0.000000        0.58418729
     256          0.462974        0.000000        0.58143485
     257          0.464495        0.000000        0.57926842
     258          0.466162        0.000000        0.58132873
     259          0.467275        0.000000        0.58173433
     260          0.468492        0.000000        0.58432099
     261          0.470006        0.000000        0.58293165
     262          0.470874        0.000000        0.58511046
     263          0.472370        0.000000        0.58248727
     264          0.473060        0.000000        0.58226320
     265          0.473370        0.000000        0.58366817
     266          0.477106        0.000000        0.58387637
     267          0.479768        0.000000        0.58049212
     268          0.550721        0.000000        0.55418886
     269          0.560088        0.000000        0.55227775
     270          0.563958        0.000000        0.55257739
     271          0.566368        0.000000        0.55376641
     272          0.568050        0.000000        0.55280563
     273          0.571886        0.000000        0.55238844
     274          0.575462        0.000000        0.55317208
