# Projected DOS for atomic kind N at iteration step i = 0, E(Fermi) =    -0.171330 a.u.
#     MO Eigenvalue [a.u.]      Occupation                 s                py                pz                px
       1         -0.952920        1.000000        0.61487286        0.00024037        0.00001479        0.00009703
       2         -0.945307        1.000000        0.61476091        0.00004659        0.00001429        0.00023582
       3         -0.942426        1.000000        0.61147318        0.00014769        0.00000092        0.00004794
       4         -0.940424        1.000000        0.61384833        0.00016796        0.00035802        0.00001422
       5         -0.936657        1.000000        0.61274569        0.00005596        0.00011325        0.00005394
       6         -0.936356        1.000000        0.61321194        0.00000028        0.00003036        0.00037174
       7         -0.926085        1.000000        0.61321684        0.00002457        0.00015369        0.00001553
       8         -0.693810        1.000000        0.01614763        0.00273743        0.00067257        0.19247802
       9         -0.690003        1.000000        0.01758709        0.00182043        0.00077720        0.18813420
      10         -0.684865        1.000000        0.01733132        0.00100544        0.00434493        0.18427483
      11         -0.683700        1.000000        0.01506291        0.00335612        0.03681958        0.15840587
      12         -0.683458        1.000000        0.01524371        0.00042818        0.06127340        0.13524543
      13         -0.680384        1.000000        0.01620032        0.00083013        0.08158097        0.11183361
      14         -0.671848        1.000000        0.01697332        0.01211208        0.05788302        0.12123971
      15         -0.640367        1.000000        0.00052128        0.00707595        0.00035710        0.00015012
      16         -0.631104        1.000000        0.00007280        0.00186320        0.00020887        0.00002233
      17         -0.622824        1.000000        0.00001782        0.00010720        0.00098260        0.00001695
      18         -0.619653        1.000000        0.00002904        0.00004088        0.00371281        0.00010386
      19         -0.614884        1.000000        0.00016629        0.00011141        0.00912840        0.00018785
      20         -0.603480        1.000000        0.00011090        0.00669895        0.01417866        0.00146858
      21         -0.597755        1.000000        0.00029104        0.00811907        0.01429192        0.00526732
      22         -0.594223        1.000000        0.00018094        0.00899429        0.00315660        0.00041522
      23         -0.594030        1.000000        0.00020405        0.00400083        0.00997984        0.00028700
      24         -0.592277        1.000000        0.00008842        0.01160516        0.01216964        0.00398252
      25         -0.591212        1.000000        0.00016301        0.00803585        0.07159357        0.02011758
      26         -0.587664        1.000000        0.00028643        0.01073351        0.01283526        0.00032128
      27         -0.586484        1.000000        0.00024204        0.09116213        0.01903319        0.00220300
      28         -0.585400        1.000000        0.00009758        0.14585059        0.01435532        0.00152824
      29         -0.583846        1.000000        0.00015305        0.00576119        0.01302562        0.00313844
      30         -0.582996        1.000000        0.00014882        0.05091760        0.04501222        0.00284008
      31         -0.582420        1.000000        0.00034257        0.07007372        0.02952695        0.00302854
      32         -0.582207        1.000000        0.00016642        0.06444482        0.01377696        0.00145678
      33         -0.580324        1.000000        0.00010037        0.02009933        0.02309691        0.00466880
      34         -0.580056        1.000000        0.00012441        0.03231332        0.02345436        0.00384792
      35         -0.577896        1.000000        0.00022422        0.04008805        0.04890959        0.01103446
      36         -0.577823        1.000000        0.00001031        0.03103336        0.40753988        0.00319869
      37         -0.576941        1.000000        0.00000927        0.02645257        0.08824931        0.00240814
      38         -0.575891        1.000000        0.00019875        0.09096437        0.01667909        0.00223130
      39         -0.574955        1.000000        0.00006734        0.03805756        0.01395693        0.00253745
      40         -0.574743        1.000000        0.00004670        0.01391649        0.04908843        0.01225775
      41         -0.574171        1.000000        0.00012592        0.03700061        0.05400849        0.01216069
      42         -0.573190        1.000000        0.00025983        0.03904971        0.15060907        0.03832707
      43         -0.572512        1.000000        0.00001657        0.00850565        0.00245442        0.00235920
      44         -0.571375        1.000000        0.00000328        0.00158189        0.00089126        0.00055231
      45         -0.570494        1.000000        0.00003806        0.14034840        0.10772093        0.04504403
      46         -0.569631        1.000000        0.00034177        0.07875013        0.04344960        0.00115831
      47         -0.568008        1.000000        0.00023473        0.45471787        0.06187137        0.00042744
      48         -0.567089        1.000000        0.00023107        0.00747380        0.06575079        0.01054233
      49         -0.565592        1.000000        0.00010238        0.03158889        0.00593015        0.00159706
      50         -0.564140        1.000000        0.00008829        0.03360470        0.38491457        0.00457019
      51         -0.562719        1.000000        0.00029846        0.08402470        0.31615948        0.12909062
      52         -0.560392        1.000000        0.00043704        0.17542488        0.12740438        0.04276945
      53         -0.559962        1.000000        0.00047880        0.28173195        0.12524452        0.03262411
      54         -0.559468        1.000000        0.00009900        0.00883213        0.02024839        0.00729568
      55         -0.557586        1.000000        0.00117003        0.11038294        0.21467651        0.15714256
      56         -0.554223        1.000000        0.00010625        0.02757214        0.10374354        0.02550015
      57         -0.553685        1.000000        0.00046083        0.07834040        0.02670973        0.00546958
      58         -0.552342        1.000000        0.00089107        0.13294807        0.01115591        0.00067780
      59         -0.551138        1.000000        0.00090992        0.27849530        0.17486325        0.00547109
      60         -0.545808        1.000000        0.00050464        0.00369774        0.33604210        0.14337625
      61         -0.544885        1.000000        0.00084283        0.32307695        0.03728251        0.02796010
      62         -0.541933        1.000000        0.00119674        0.29009078        0.01783631        0.01425854
      63         -0.538424        1.000000        0.00054005        0.29671722        0.09275487        0.00674380
      64         -0.537833        1.000000        0.00019681        0.41408846        0.00127952        0.04055508
      65         -0.473927        1.000000        0.00851735        0.00107298        0.00185388        0.43724093
      66         -0.469954        1.000000        0.00866014        0.00230490        0.00281903        0.42527820
      67         -0.465117        1.000000        0.00172639        0.00062816        0.00147361        0.08823074
      68         -0.464752        1.000000        0.00699166        0.00234102        0.00501958        0.33899188
      69         -0.464187        1.000000        0.00882818        0.00124570        0.11814306        0.27746844
      70         -0.463806        1.000000        0.00922758        0.01062481        0.09484867        0.32681521
      71         -0.461691        1.000000        0.00534342        0.00347965        0.09998887        0.13605247
      72         -0.460663        1.000000        0.00110260        0.00033445        0.02537250        0.03058459
      73         -0.459417        1.000000        0.00316956        0.00034913        0.08373476        0.09336144
      74         -0.458457        1.000000        0.00010092        0.00076661        0.00381991        0.00622875
      75         -0.454140        1.000000        0.00174204        0.00798394        0.02249378        0.04145607
      76         -0.451578        1.000000        0.00688973        0.02529968        0.10443856        0.23856349
      77         -0.447662        1.000000        0.00002293        0.00034199        0.00014309        0.00124368
      78         -0.443151        1.000000        0.00001687        0.00139279        0.00381549        0.00763368
      79         -0.438488        1.000000        0.00000951        0.00116099        0.00038368        0.00156582
      80         -0.410724        1.000000        0.00000658        0.03832031        0.00002354        0.00077990
      81         -0.409898        1.000000        0.00000611        0.00028186        0.03371538        0.00025049
      82         -0.407697        1.000000        0.00000750        0.00033461        0.03852568        0.00045993
      83         -0.406288        1.000000        0.00000642        0.04389467        0.00044410        0.00045870
      84         -0.402421        1.000000        0.00001017        0.00378940        0.03863390        0.00088603
      85         -0.401817        1.000000        0.00000049        0.03290763        0.00104271        0.00007823
      86         -0.400758        1.000000        0.00001588        0.03325946        0.00480770        0.00245227
      87         -0.400111        1.000000        0.00001010        0.00579911        0.02184728        0.00893303
      88         -0.398916        1.000000        0.00001735        0.03934335        0.00041148        0.00036459
      89         -0.398310        1.000000        0.00000393        0.00094333        0.02584638        0.00764572
      90         -0.398196        1.000000        0.00001120        0.00201677        0.02154667        0.01260353
      91         -0.395468        1.000000        0.00001126        0.03698863        0.00055039        0.00192127
      92         -0.390099        1.000000        0.00000195        0.00963412        0.02337087        0.00579955
      93         -0.386843        1.000000        0.00000699        0.02695178        0.00292169        0.00949892
      94         -0.323848        1.000000        0.00026050        0.00149381        0.00026953        0.00036975
      95         -0.315952        1.000000        0.00005261        0.00007812        0.00005768        0.00001316
      96         -0.305510        1.000000        0.00003206        0.00003137        0.00009693        0.00001288
      97         -0.303277        1.000000        0.00006070        0.00008531        0.00017213        0.00002499
      98         -0.298798        1.000000        0.00011249        0.00001400        0.00050143        0.00010797
      99         -0.276492        1.000000        0.00041143        0.00159559        0.00022123        0.00043611
     100         -0.273732        1.000000        0.00118320        0.00194288        0.00122464        0.00111796
     101         -0.273066        1.000000        0.00134853        0.00336861        0.00021973        0.00116212
     102         -0.269511        1.000000        0.00024818        0.00031089        0.00023690        0.00011507
     103         -0.268426        1.000000        0.00035295        0.00024127        0.00027099        0.00016131
     104         -0.265559        1.000000        0.00031484        0.00024285        0.00018299        0.00014497
     105         -0.264930        1.000000        0.00024631        0.00136668        0.00027476        0.00035712
     106         -0.264692        1.000000        0.00030667        0.00071631        0.00126743        0.00011790
     107         -0.262922        1.000000        0.00011300        0.00006509        0.00046975        0.00020557
     108         -0.257322        1.000000        0.00021854        0.00128596        0.00054308        0.00060847
     109         -0.256894        1.000000        0.00046514        0.00130807        0.00039739        0.00058254
     110         -0.256130        1.000000        0.00030943        0.00025936        0.00032762        0.00029336
     111         -0.255739        1.000000        0.00026026        0.00012026        0.00038954        0.00013380
     112         -0.254158        1.000000        0.00024575        0.00046780        0.00014312        0.00021476
     113         -0.252575        1.000000        0.00058632        0.00059720        0.00042160        0.00031857
     114         -0.251752        1.000000        0.00072996        0.00162255        0.00009577        0.00055065
     115         -0.250358        1.000000        0.00041539        0.00067457        0.00055835        0.00034532
     116         -0.247144        1.000000        0.00016823        0.00036516        0.00042611        0.00019143
     117         -0.245542        1.000000        0.00038137        0.00033672        0.00032944        0.00026107
     118         -0.244403        1.000000        0.00015711        0.00084987        0.00021331        0.00012835
     119         -0.243421        1.000000        0.00021095        0.00060218        0.00020386        0.00018862
     120         -0.242997        1.000000        0.00039047        0.00082636        0.00037875        0.00036916
     121         -0.239911        1.000000        0.00036378        0.00032518        0.00026056        0.00032495
     122         -0.238443        1.000000        0.00015117        0.00116793        0.00207984        0.00015426
     123         -0.236608        1.000000        0.00066221        0.00034208        0.00176836        0.00031952
     124         -0.236012        1.000000        0.00039197        0.00051330        0.00083678        0.00007822
     125         -0.235208        1.000000        0.00099760        0.00012809        0.00048014        0.00058603
     126         -0.233913        1.000000        0.00141912        0.00056740        0.00206237        0.00084606
     127         -0.232358        1.000000        0.00019224        0.00060175        0.00059109        0.00011667
     128         -0.231974        1.000000        0.00065549        0.00101952        0.00011947        0.00036889
     129         -0.229302        1.000000        0.00083865        0.00035372        0.00224948        0.00028113
     130         -0.227524        1.000000        0.00051431        0.00065031        0.00091685        0.00047328
     131         -0.224407        1.000000        0.00324365        0.00590183        0.00103977        0.00195677
     132         -0.223099        1.000000        0.00095052        0.00026663        0.00053855        0.00036312
     133         -0.221927        1.000000        0.00198636        0.00176846        0.00092474        0.00123986
     134         -0.219921        1.000000        0.00051616        0.00031931        0.00043692        0.00019807
     135         -0.218616        1.000000        0.00070617        0.00100418        0.00243808        0.00024083
     136         -0.217955        1.000000        0.00066986        0.00124040        0.00055586        0.00038306
     137         -0.215980        1.000000        0.00094945        0.00032696        0.00158023        0.00046046
     138         -0.215281        1.000000        0.00281297        0.00270561        0.00303120        0.00116800
     139         -0.214268        1.000000        0.00072821        0.00128612        0.00088779        0.00023380
     140         -0.213955        1.000000        0.00144217        0.00437910        0.00121445        0.00085184
     141         -0.212335        1.000000        0.00140344        0.00067528        0.00516085        0.00027618
     142         -0.211674        1.000000        0.00191275        0.00457990        0.00224694        0.00029577
     143         -0.210759        1.000000        0.00043426        0.00074343        0.00116650        0.00034552
     144         -0.209500        1.000000        0.00031864        0.00152111        0.00056264        0.00026210
     145         -0.207903        1.000000        0.00143265        0.00174805        0.00060162        0.00083763
     146         -0.207805        1.000000        0.00021012        0.00053360        0.00046216        0.00003381
     147         -0.207349        1.000000        0.00058166        0.00183914        0.00102932        0.00072025
     148         -0.206402        1.000000        0.00170108        0.00671126        0.00109103        0.00111994
     149         -0.205587        1.000000        0.00034673        0.00624916        0.00045067        0.00060982
     150         -0.205022        1.000000        0.00113983        0.00329965        0.00080165        0.00083357
     151         -0.204514        1.000000        0.00026039        0.00176612        0.00064118        0.00024684
     152         -0.203628        1.000000        0.00045074        0.00280192        0.00037871        0.00094030
     153         -0.202296        1.000000        0.00102917        0.00188842        0.00046064        0.00058348
     154         -0.201944        1.000000        0.00068333        0.00201544        0.00072035        0.00099229
     155         -0.201718        1.000000        0.00061151        0.00413138        0.00029092        0.00047082
     156         -0.201037        1.000000        0.00029114        0.00193293        0.00011273        0.00033011
     157         -0.200342        1.000000        0.00031198        0.00203566        0.00023842        0.00082484
     158         -0.199337        1.000000        0.00029359        0.00062799        0.00039261        0.00053295
     159         -0.198120        1.000000        0.00062274        0.00235361        0.00065292        0.00180353
     160         -0.197880        1.000000        0.00139587        0.00123808        0.00087041        0.00243068
     161         -0.196969        1.000000        0.00037705        0.00057137        0.00074433        0.00013494
     162         -0.196420        1.000000        0.00033974        0.00049038        0.00100392        0.00018957
     163         -0.195977        1.000000        0.00085097        0.00321095        0.00172238        0.00049119
     164         -0.195766        1.000000        0.00059575        0.00337653        0.00132086        0.00048683
     165         -0.194940        1.000000        0.00168080        0.00480325        0.00179405        0.00057640
     166         -0.194230        1.000000        0.00017240        0.00089054        0.00121280        0.00023716
     167         -0.193668        1.000000        0.00065185        0.00121453        0.00332462        0.00088428
     168         -0.193259        1.000000        0.00050319        0.00205418        0.00058233        0.00028864
     169         -0.193007        1.000000        0.00010912        0.00062562        0.00093901        0.00028024
     170         -0.192643        1.000000        0.00015857        0.00102822        0.00041157        0.00009414
     171         -0.191575        1.000000        0.00129598        0.00569146        0.00237290        0.00123093
     172         -0.190365        1.000000        0.00056539        0.00225545        0.00038799        0.00025016
     173         -0.189998        1.000000        0.00222970        0.01032201        0.00122521        0.00161609
     174         -0.189711        1.000000        0.00004979        0.00016602        0.00025277        0.00014621
     175         -0.188943        1.000000        0.00067842        0.00622802        0.00007886        0.00007564
     176         -0.188648        1.000000        0.00028846        0.00205285        0.00070908        0.00029822
     177         -0.188060        1.000000        0.00012646        0.00068526        0.00041583        0.00012018
     178         -0.187647        1.000000        0.00010531        0.00118911        0.00011936        0.00019429
     179         -0.187376        1.000000        0.00002661        0.00012255        0.00002845        0.00002379
     180         -0.187073        1.000000        0.00016269        0.00115076        0.00036016        0.00009674
     181         -0.186116        1.000000        0.00004654        0.00050278        0.00012302        0.00002676
     182         -0.185475        1.000000        0.00008072        0.00020582        0.00020277        0.00032042
     183         -0.184651        1.000000        0.00082660        0.00320015        0.00041685        0.00056189
     184         -0.183393        1.000000        0.00040036        0.00131021        0.00024280        0.00020161
     185         -0.183104        1.000000        0.00025509        0.00051842        0.00025410        0.00004837
     186         -0.182342        1.000000        0.00018094        0.00076017        0.00027228        0.00004683
     187         -0.182068        1.000000        0.00011906        0.00050676        0.00003884        0.00002226
     188         -0.181585        1.000000        0.00023843        0.00095968        0.00020222        0.00005626
     189         -0.179810        1.000000        0.00003161        0.00017319        0.00002508        0.00007828
     190         -0.176112        1.000000        0.00004377        0.00017825        0.00003830        0.00035712
     191         -0.174276        1.000000        0.00001078        0.00014491        0.00006718        0.00002196
     192         -0.173452        1.000000        0.00006381        0.00013776        0.00004221        0.00002966
     193         -0.172084        1.000000        0.00008681        0.00018873        0.00011729        0.00010853
     194         -0.171330        1.000000        0.00000299        0.00001215        0.00000436        0.00000389
     195         -0.168816        0.000000        0.00002540        0.00010023        0.00002544        0.00002390
     196         -0.167304        0.000000        0.00000087        0.00000313        0.00003484        0.00000213
     197         -0.164426        0.000000        0.00006634        0.00014382        0.00001560        0.00004419
     198         -0.158483        0.000000        0.00003163        0.00010601        0.00003342        0.00002045
     199         -0.155454        0.000000        0.00002892        0.00022770        0.00007171        0.00009265
     200         -0.155031        0.000000        0.00001994        0.00011819        0.00005269        0.00001947
     201         -0.129174        0.000000        0.00000406        0.00000927        0.00000638        0.00000577
     202         -0.074048        0.000000        0.00032726        0.00015332        0.00030897        0.00000665
     203         -0.073755        0.000000        0.00003252        0.00000560        0.00004012        0.00001504
     204         -0.071855        0.000000        0.00007151        0.00008867        0.00024611        0.00004316
     205         -0.062686        0.000000        0.00056643        0.00033864        0.00038191        0.00003889
     206         -0.055405        0.000000        0.00009153        0.00006000        0.00020315        0.00008204
     207         -0.052774        0.000000        0.00005397        0.00010088        0.00003608        0.00002790
     208         -0.049415        0.000000        0.00011907        0.00002872        0.00012955        0.00002139
     209         -0.045620        0.000000        0.00006444        0.00002433        0.00004753        0.00011487
     210         -0.040740        0.000000        0.00012657        0.00002837        0.00010067        0.00002066
     211         -0.040492        0.000000        0.00005836        0.00002595        0.00007612        0.00000615
     212         -0.038395        0.000000        0.00015304        0.00035131        0.00014004        0.00007633
     213         -0.034583        0.000000        0.00003278        0.00014318        0.00007369        0.00003135
     214         -0.033635        0.000000        0.00017053        0.00014618        0.00001542        0.00000918
     215         -0.030204        0.000000        0.00012679        0.00021766        0.00031431        0.00003317
     216         -0.026359        0.000000        0.00008429        0.00026873        0.00015163        0.00004056
     217         -0.023999        0.000000        0.00004333        0.00002513        0.00003713        0.00002903
     218         -0.022548        0.000000        0.00023831        0.00064807        0.00021599        0.00004001
     219         -0.018004        0.000000        0.00004761        0.00004078        0.00004579        0.00003080
     220         -0.017859        0.000000        0.00007658        0.00006441        0.00004010        0.00004208
     221         -0.017676        0.000000        0.00003635        0.00011858        0.00004060        0.00001672
     222         -0.014839        0.000000        0.00027325        0.00048458        0.00009355        0.00003393
     223         -0.013976        0.000000        0.00009257        0.00019314        0.00009067        0.00000751
     224         -0.011664        0.000000        0.00015515        0.00001161        0.00014868        0.00012347
     225         -0.005075        0.000000        0.00035885        0.00073542        0.00007562        0.00005771
     226          0.088308        0.000000        0.09809306        0.00058327        0.00087816        0.26047911
     227          0.098888        0.000000        0.09804084        0.00649351        0.05650513        0.19562668
     228          0.102782        0.000000        0.10460188        0.00152557        0.00283427        0.25567351
     229          0.103763        0.000000        0.10436573        0.00016194        0.07542416        0.17973737
     230          0.103953        0.000000        0.10421293        0.00179092        0.00326943        0.25591468
     231          0.109000        0.000000        0.10277127        0.00205130        0.12060836        0.13530567
     232          0.115317        0.000000        0.10183009        0.01857131        0.07584573        0.16753263
     233          0.283730        0.000000        0.00286331        0.30913772        0.00438198        0.00018343
     234          0.284820        0.000000        0.00000388        0.00539483        0.32483064        0.00128075
     235          0.286039        0.000000        0.00013217        0.27443197        0.03381795        0.00361454
     236          0.290041        0.000000        0.00330948        0.30013391        0.02622468        0.00060788
     237          0.293169        0.000000        0.00233457        0.02436374        0.22677835        0.07940676
     238          0.294704        0.000000        0.00418116        0.18355299        0.09732611        0.02507195
     239          0.295023        0.000000        0.00123582        0.09019541        0.17355848        0.05005164
     240          0.295167        0.000000        0.00148330        0.25679256        0.04567755        0.00653431
     241          0.296596        0.000000        0.00415929        0.03085352        0.12427659        0.16781501
     242          0.298060        0.000000        0.00168602        0.02891638        0.29024987        0.00325803
     243          0.300357        0.000000        0.00014765        0.27706865        0.02759199        0.01078072
     244          0.301918        0.000000        0.01014224        0.07626449        0.24399631        0.00104112
     245          0.307554        0.000000        0.00062429        0.15037718        0.07742455        0.08786335
     246          0.311192        0.000000        0.00019877        0.14166360        0.15997111        0.01828725
     247          0.316563        0.000000        0.24646276        0.00060125        0.00051675        0.09404768
     248          0.327639        0.000000        0.24578875        0.00030422        0.01611310        0.08407331
     249          0.336288        0.000000        0.23992954        0.00050507        0.02169213        0.08410800
     250          0.337493        0.000000        0.23901945        0.00171942        0.00833194        0.09701134
     251          0.337677        0.000000        0.23956044        0.00111753        0.05546923        0.04659912
     252          0.344756        0.000000        0.22788925        0.01372339        0.00092843        0.09417190
     253          0.349264        0.000000        0.24375759        0.00454079        0.02511950        0.07166607
     254          0.454597        0.000000        0.00000020        0.00580000        0.01716844        0.00016878
     255          0.459542        0.000000        0.00000342        0.01527362        0.00527876        0.00001383
     256          0.462974        0.000000        0.00004926        0.02285431        0.00138897        0.00015469
     257          0.464495        0.000000        0.00000641        0.00085409        0.02524768        0.00021621
     258          0.466162        0.000000        0.00004534        0.02268456        0.00048823        0.00020781
     259          0.467275        0.000000        0.00001469        0.00153487        0.02365822        0.00045040