# Projected DOS for atomic kind C at iteration step i = 0, E(Fermi) =    -0.172076 a.u.
#     MO Eigenvalue [a.u.]      Occupation                 s                py                pz                px
       1         -0.952917        1.000000        0.05885711        0.00031022        0.00014617        0.04303116
       2         -0.945306        1.000000        0.05737528        0.00092149        0.00917148        0.03311320
       3         -0.942427        1.000000        0.06245963        0.00029085        0.00017734        0.04383092
       4         -0.940424        1.000000        0.05893694        0.00000357        0.01301828        0.03034152
       5         -0.936657        1.000000        0.06208632        0.00023396        0.00090291        0.04295996
       6         -0.936356        1.000000        0.06020782        0.00021120        0.02000967        0.02369991
       7         -0.926083        1.000000        0.06109416        0.00309076        0.01254452        0.02831779
       8         -0.693812        1.000000        0.44282400        0.00002473        0.00001860        0.00105966
       9         -0.690003        1.000000        0.43787887        0.00004029        0.00000616        0.00180369
      10         -0.684866        1.000000        0.44033148        0.00003877        0.00000307        0.00167488
      11         -0.683701        1.000000        0.44160373        0.00000016        0.00003187        0.00077362
      12         -0.683458        1.000000        0.43989226        0.00001725        0.00035220        0.00069062
      13         -0.680384        1.000000        0.43911575        0.00001579        0.00035861        0.00093551
      14         -0.671850        1.000000        0.44111314        0.00008113        0.00064148        0.00083129
      15         -0.640367        1.000000        0.00080239        0.00072648        0.00004664        0.00003968
      16         -0.631081        1.000000        0.00003194        0.00034238        0.00002140        0.00003794
      17         -0.622812        1.000000        0.00005010        0.00003075        0.00032984        0.00002401
      18         -0.619688        1.000000        0.00016731        0.00004434        0.00065732        0.00007825
      19         -0.615428        1.000000        0.00019417        0.00004988        0.00084694        0.00008537
      20         -0.603536        1.000000        0.00017164        0.00200365        0.00183377        0.00028959
      21         -0.597806        1.000000        0.00012240        0.00105844        0.00210771        0.00082256
      22         -0.594684        1.000000        0.00024935        0.00256489        0.00153640        0.00014473
      23         -0.594373        1.000000        0.00028992        0.00045420        0.00069280        0.00017006
      24         -0.593210        1.000000        0.00022675        0.00144606        0.00081728        0.00010480
      25         -0.591256        1.000000        0.00003284        0.00094302        0.00589107        0.00240942
      26         -0.588247        1.000000        0.00004983        0.01183163        0.00239596        0.00014422
      27         -0.587614        1.000000        0.00016838        0.00627633        0.00063853        0.00027328
      28         -0.586131        1.000000        0.00034299        0.00605527        0.00173440        0.00042123
      29         -0.583927        1.000000        0.00061326        0.00040589        0.00110646        0.00018416
      30         -0.583167        1.000000        0.00015459        0.00167697        0.00578512        0.00019337
      31         -0.582586        1.000000        0.00026928        0.00676047        0.00296055        0.00075695
      32         -0.582336        1.000000        0.00028797        0.00329933        0.00074193        0.00011485
      33         -0.580369        1.000000        0.00015759        0.00186353        0.00242436        0.00054076
      34         -0.580076        1.000000        0.00017119        0.00284034        0.00224340        0.00068643
      35         -0.578440        1.000000        0.00010454        0.00494066        0.00415087        0.00012991
      36         -0.577987        1.000000        0.00018910        0.00333184        0.00961774        0.00101176
      37         -0.577674        1.000000        0.00005112        0.00113145        0.03551759        0.00042024
      38         -0.576143        1.000000        0.00045525        0.00714575        0.00248225        0.00047085
      39         -0.575208        1.000000        0.00011536        0.00354774        0.00173062        0.00036372
      40         -0.574826        1.000000        0.00028673        0.00099590        0.00512400        0.00086366
      41         -0.574316        1.000000        0.00008283        0.00335043        0.00367923        0.00118395
      42         -0.573214        1.000000        0.00020532        0.00354984        0.01347535        0.00373381
      43         -0.572805        1.000000        0.00007540        0.00121264        0.00033681        0.00040153
      44         -0.571373        1.000000        0.00000764        0.00020647        0.00006300        0.00001041
      45         -0.570791        1.000000        0.00019533        0.00384138        0.00341489        0.00053541
      46         -0.570480        1.000000        0.00005013        0.01135989        0.00985440        0.00346484
      47         -0.569813        1.000000        0.00003795        0.00579324        0.00330665        0.00019944
      48         -0.568011        1.000000        0.00001719        0.04364250        0.00619132        0.00007593
      49         -0.566927        1.000000        0.00014802        0.00093231        0.00733783        0.00050947
      50         -0.564172        1.000000        0.00010384        0.00302534        0.04230066        0.00059499
      51         -0.562723        1.000000        0.00000711        0.00814103        0.03053104        0.01303714
      52         -0.561039        1.000000        0.00005628        0.00551668        0.00669328        0.00076757
      53         -0.560386        1.000000        0.00017029        0.01790238        0.00996963        0.00248787
      54         -0.559964        1.000000        0.00014336        0.03061429        0.01234254        0.00214033
      55         -0.559374        1.000000        0.00011476        0.00127970        0.00299076        0.00094523
      56         -0.557587        1.000000        0.00042452        0.01123833        0.02618711        0.01320229
      57         -0.556620        1.000000        0.00050250        0.02886249        0.00256767        0.00176613
      58         -0.554432        1.000000        0.00026737        0.00261333        0.01054460        0.00212022
      59         -0.551155        1.000000        0.00037375        0.03325677        0.02013476        0.00293290
      60         -0.545923        1.000000        0.00018216        0.00058884        0.03452990        0.01795942
      61         -0.544889        1.000000        0.00038411        0.04003340        0.00499078        0.00346159
      62         -0.541933        1.000000        0.00051700        0.03593685        0.00168933        0.00311186
      63         -0.538446        1.000000        0.00018369        0.04274128        0.01359488        0.00176260
      64         -0.538039        1.000000        0.00005313        0.05037053        0.00005484        0.00378619
      65         -0.473953        1.000000        0.02527337        0.00408148        0.00191326        0.33515998
      66         -0.469955        1.000000        0.02227157        0.00272236        0.00233613        0.33478458
      67         -0.465112        1.000000        0.00461047        0.00063515        0.00117859        0.07098197
      68         -0.464751        1.000000        0.01756529        0.00283509        0.00490699        0.26257510
      69         -0.464189        1.000000        0.02299799        0.00064142        0.09030842        0.21875776
      70         -0.463812        1.000000        0.02653864        0.00427089        0.06597397        0.26428219
      71         -0.461699        1.000000        0.01303604        0.00021319        0.07473954        0.10805980
      72         -0.460867        1.000000        0.00301072        0.00048108        0.01803539        0.02393110
      73         -0.459447        1.000000        0.01024896        0.00201802        0.06320725        0.08093132
      74         -0.458486        1.000000        0.00061392        0.00048961        0.00137897        0.00670417
      75         -0.454241        1.000000        0.00363400        0.00221205        0.01431907        0.03620040
      76         -0.451607        1.000000        0.01940615        0.02268165        0.08797130        0.17903210
      77         -0.450242        1.000000        0.00015290        0.00070141        0.00090990        0.00214678
      78         -0.443153        1.000000        0.00036788        0.00152357        0.00216150        0.00632771
      79         -0.439585        1.000000        0.00017917        0.00046172        0.00102371        0.00119688
      80         -0.410742        1.000000        0.00000074        0.52540169        0.00174511        0.00456159
      81         -0.409900        1.000000        0.00001588        0.00170174        0.53658127        0.00245373
      82         -0.407698        1.000000        0.00000632        0.00477754        0.51812570        0.00242710
      83         -0.406292        1.000000        0.00000767        0.50982495        0.00345191        0.00376015
      84         -0.402421        1.000000        0.00003545        0.02707836        0.48514556        0.01130066
      85         -0.401821        1.000000        0.00000473        0.51703424        0.01857710        0.00168550
      86         -0.400759        1.000000        0.00003622        0.41975336        0.08096099        0.02799832
      87         -0.400112        1.000000        0.00001446        0.07700624        0.32689969        0.12984626
      88         -0.398917        1.000000        0.00000630        0.51463648        0.00655028        0.00344039
      89         -0.398313        1.000000        0.00005857        0.01489621        0.38531954        0.13674182
      90         -0.398197        1.000000        0.00004123        0.02971921        0.30889374        0.19432770
      91         -0.395468        1.000000        0.00000344        0.49987628        0.00701257        0.02126210
      92         -0.390100        1.000000        0.00002533        0.12625345        0.33275402        0.07341666
      93         -0.386859        1.000000        0.00000811        0.36576555        0.04465943        0.12108986
      94         -0.323842        1.000000        0.00001582        0.00024873        0.00011604        0.00012573
      95         -0.315921        1.000000        0.00001091        0.00005433        0.00010308        0.00001783
      96         -0.305522        1.000000        0.00003968        0.00005391        0.00035588        0.00005423
      97         -0.303267        1.000000        0.00001571        0.00009343        0.00006385        0.00003912
      98         -0.299334        1.000000        0.00004158        0.00014333        0.00009840        0.00006495
      99         -0.276639        1.000000        0.00005101        0.00006899        0.00027807        0.00031575
     100         -0.273909        1.000000        0.00006517        0.00014146        0.00018789        0.00037361
     101         -0.273376        1.000000        0.00013755        0.00059826        0.00010811        0.00134752
     102         -0.269729        1.000000        0.00010179        0.00023923        0.00007449        0.00012219
     103         -0.268748        1.000000        0.00023200        0.00041941        0.00032018        0.00042398
     104         -0.266653        1.000000        0.00013790        0.00057264        0.00008666        0.00011814
     105         -0.265242        1.000000        0.00009410        0.00022754        0.00020869        0.00020204
     106         -0.264939        1.000000        0.00018829        0.00019688        0.00045519        0.00027399
     107         -0.263329        1.000000        0.00036486        0.00052145        0.00041307        0.00015660
     108         -0.260754        1.000000        0.00009142        0.00037910        0.00009299        0.00023336
     109         -0.257655        1.000000        0.00012440        0.00027012        0.00009613        0.00009706
     110         -0.256437        1.000000        0.00015678        0.00024971        0.00029614        0.00017387
     111         -0.256062        1.000000        0.00020099        0.00046354        0.00013900        0.00020409
     112         -0.254499        1.000000        0.00022828        0.00085178        0.00020532        0.00019869
     113         -0.253895        1.000000        0.00008352        0.00064336        0.00017182        0.00014725
     114         -0.252564        1.000000        0.00041360        0.00032416        0.00075723        0.00066589
     115         -0.251026        1.000000        0.00002504        0.00006605        0.00004686        0.00019774
     116         -0.247308        1.000000        0.00020797        0.00024159        0.00013752        0.00019708
     117         -0.245709        1.000000        0.00022643        0.00037044        0.00049788        0.00032250
     118         -0.244702        1.000000        0.00014668        0.00038373        0.00011971        0.00028289
     119         -0.244475        1.000000        0.00030691        0.00014693        0.00018505        0.00011932
     120         -0.243351        1.000000        0.00007858        0.00034849        0.00027973        0.00018560
     121         -0.240288        1.000000        0.00023929        0.00017885        0.00023962        0.00039326
     122         -0.239086        1.000000        0.00015736        0.00036932        0.00030174        0.00044103
     123         -0.237191        1.000000        0.00029725        0.00041318        0.00063309        0.00014384
     124         -0.236269        1.000000        0.00020155        0.00014068        0.00061727        0.00032575
     125         -0.235699        1.000000        0.00007269        0.00011564        0.00034708        0.00040472
     126         -0.234113        1.000000        0.00010158        0.00016165        0.00054091        0.00064519
     127         -0.233479        1.000000        0.00019525        0.00046661        0.00095850        0.00025431
     128         -0.232405        1.000000        0.00007894        0.00008291        0.00016666        0.00044031
     129         -0.229410        1.000000        0.00027873        0.00085506        0.00014259        0.00024149
     130         -0.227763        1.000000        0.00039880        0.00066765        0.00063928        0.00040628
     131         -0.225413        1.000000        0.00021642        0.00031337        0.00044979        0.00068614
     132         -0.224052        1.000000        0.00025553        0.00041745        0.00099999        0.00276782
     133         -0.222361        1.000000        0.00017714        0.00003554        0.00154975        0.00124037
     134         -0.220691        1.000000        0.00012376        0.00027575        0.00032162        0.00016560
     135         -0.219020        1.000000        0.00016814        0.00062580        0.00057801        0.00022175
     136         -0.218327        1.000000        0.00032204        0.00036301        0.00028788        0.00030522
     137         -0.216233        1.000000        0.00042369        0.00024536        0.00030040        0.00043046
     138         -0.215483        1.000000        0.00012533        0.00049900        0.00145204        0.00078255
     139         -0.214606        1.000000        0.00037422        0.00139255        0.00043312        0.00056900
     140         -0.214369        1.000000        0.00071671        0.00102899        0.00078008        0.00041375
     141         -0.213409        1.000000        0.00006671        0.00043867        0.00034798        0.00013906
     142         -0.211776        1.000000        0.00016185        0.00023746        0.00119496        0.00014988
     143         -0.211151        1.000000        0.00048859        0.00065041        0.00052305        0.00023168
     144         -0.210146        1.000000        0.00018037        0.00048140        0.00068983        0.00030051
     145         -0.208580        1.000000        0.00024443        0.00062559        0.00022452        0.00075346
     146         -0.208428        1.000000        0.00015344        0.00036333        0.00032297        0.00007583
     147         -0.207771        1.000000        0.00016387        0.00063931        0.00110288        0.00015495
     148         -0.207417        1.000000        0.00023876        0.00029336        0.00043500        0.00049024
     149         -0.205794        1.000000        0.00022764        0.00085213        0.00020522        0.00015530
     150         -0.205456        1.000000        0.00022749        0.00037940        0.00024511        0.00043164
     151         -0.205045        1.000000        0.00006025        0.00075163        0.00033978        0.00029171
     152         -0.203876        1.000000        0.00020548        0.00016120        0.00007894        0.00027840
     153         -0.203271        1.000000        0.00019973        0.00020899        0.00014389        0.00012906
     154         -0.202406        1.000000        0.00016235        0.00048846        0.00036170        0.00054335
     155         -0.201917        1.000000        0.00012584        0.00005166        0.00028014        0.00036984
     156         -0.201169        1.000000        0.00008521        0.00011332        0.00014586        0.00015917
     157         -0.200652        1.000000        0.00025826        0.00033386        0.00019809        0.00020289
     158         -0.199565        1.000000        0.00021007        0.00018134        0.00034186        0.00015038
     159         -0.198541        1.000000        0.00011847        0.00016580        0.00021625        0.00007389
     160         -0.197965        1.000000        0.00024588        0.00013882        0.00005359        0.00030055
     161         -0.197009        1.000000        0.00062115        0.00111646        0.00039591        0.00047784
     162         -0.196589        1.000000        0.00010269        0.00219819        0.00028469        0.00007716
     163         -0.196293        1.000000        0.00012453        0.00130631        0.00033547        0.00035681
     164         -0.195928        1.000000        0.00010387        0.00021155        0.00032841        0.00004205
     165         -0.195079        1.000000        0.00004675        0.00032239        0.00031494        0.00007233
     166         -0.194735        1.000000        0.00004825        0.00018196        0.00009810        0.00030764
     167         -0.193768        1.000000        0.00004771        0.00032841        0.00031774        0.00041951
     168         -0.193492        1.000000        0.00001712        0.00017163        0.00024574        0.00003445
     169         -0.193361        1.000000        0.00002605        0.00026075        0.00029064        0.00020813
     170         -0.192850        1.000000        0.00003346        0.00013475        0.00007532        0.00009366
     171         -0.191807        1.000000        0.00006322        0.00061791        0.00016475        0.00018755
     172         -0.191160        1.000000        0.00036649        0.00034524        0.00086291        0.00024387
     173         -0.190214        1.000000        0.00016581        0.00035420        0.00040638        0.00008327
     174         -0.190079        1.000000        0.00015328        0.00059092        0.00013752        0.00025050
     175         -0.189442        1.000000        0.00006805        0.00074372        0.00031994        0.00004480
     176         -0.188827        1.000000        0.00007266        0.00023959        0.00008682        0.00014986
     177         -0.188174        1.000000        0.00009116        0.00025919        0.00007894        0.00004338
     178         -0.187748        1.000000        0.00010549        0.00026800        0.00007247        0.00012188
     179         -0.187689        1.000000        0.00008893        0.00061782        0.00010493        0.00007783
     180         -0.187342        1.000000        0.00002695        0.00007331        0.00005643        0.00006123
     181         -0.186849        1.000000        0.00032381        0.00009554        0.00016878        0.00048686
     182         -0.186471        1.000000        0.00037395        0.00015433        0.00083565        0.00027616
     183         -0.186117        1.000000        0.00005009        0.00003466        0.00010123        0.00003077
     184         -0.184686        1.000000        0.00002365        0.00012974        0.00009308        0.00015233
     185         -0.184079        1.000000        0.00031971        0.00047246        0.00082525        0.00020162
     186         -0.183199        1.000000        0.00011648        0.00017162        0.00085592        0.00000876
     187         -0.182472        1.000000        0.00003903        0.00004267        0.00031601        0.00000305
     188         -0.182396        1.000000        0.00003256        0.00002696        0.00015551        0.00003709
     189         -0.181912        1.000000        0.00006277        0.00018203        0.00056976        0.00005567
     190         -0.178394        1.000000        0.00036138        0.00035979        0.00007402        0.00042232
     191         -0.176336        1.000000        0.00001604        0.00002663        0.00007689        0.00005069
     192         -0.174275        1.000000        0.00000381        0.00000385        0.00000445        0.00005241
     193         -0.174209        1.000000        0.00004541        0.00000791        0.00010122        0.00002840
     194         -0.172600        1.000000        0.00001820        0.00002490        0.00002550        0.00004354
     195         -0.172076        1.000000        0.00000842        0.00000722        0.00002532        0.00002336
     196         -0.168825        0.000000        0.00001458        0.00000803        0.00003231        0.00002406
     197         -0.167272        0.000000        0.00001192        0.00002669        0.00004917        0.00000551
     198         -0.160678        0.000000        0.00001475        0.00003980        0.00001515        0.00000582
     199         -0.155514        0.000000        0.00001448        0.00004437        0.00000755        0.00003904
     200         -0.155092        0.000000        0.00000835        0.00001918        0.00000488        0.00001614
     201         -0.129184        0.000000        0.00000633        0.00001238        0.00001989        0.00000905
     202         -0.074147        0.000000        0.00007203        0.00010878        0.00003564        0.00016665
     203         -0.073773        0.000000        0.00002060        0.00002388        0.00004303        0.00002311
     204         -0.072841        0.000000        0.00005086        0.00000634        0.00004406        0.00003147
     205         -0.062705        0.000000        0.00007780        0.00000898        0.00014747        0.00016572
     206         -0.055850        0.000000        0.00002047        0.00004283        0.00001568        0.00002152
     207         -0.052997        0.000000        0.00005954        0.00000930        0.00006956        0.00002594
     208         -0.049522        0.000000        0.00001319        0.00008969        0.00003015        0.00007799
     209         -0.046686        0.000000        0.00001005        0.00001593        0.00001469        0.00001788
     210         -0.040753        0.000000        0.00001327        0.00003499        0.00003019        0.00003937
     211         -0.040501        0.000000        0.00004538        0.00008271        0.00001000        0.00003979
     212         -0.038560        0.000000        0.00001510        0.00002710        0.00002611        0.00005379
     213         -0.034739        0.000000        0.00001008        0.00001256        0.00001089        0.00000484
     214         -0.033646        0.000000        0.00003052        0.00001007        0.00006881        0.00011368
     215         -0.030607        0.000000        0.00001436        0.00000063        0.00000544        0.00005023
     216         -0.026411        0.000000        0.00001647        0.00000762        0.00000632        0.00001282
     217         -0.024009        0.000000        0.00004980        0.00002099        0.00009820        0.00003071
     218         -0.022598        0.000000        0.00000457        0.00000732        0.00009614        0.00007632
     219         -0.020635        0.000000        0.00005335        0.00003383        0.00003062        0.00004730
     220         -0.017987        0.000000        0.00003411        0.00004395        0.00002548        0.00003066
     221         -0.017747        0.000000        0.00001182        0.00004118        0.00005046        0.00002397
     222         -0.014872        0.000000        0.00001262        0.00000139        0.00002819        0.00013842
     223         -0.014478        0.000000        0.00000943        0.00001128        0.00005251        0.00004804
     224         -0.011896        0.000000        0.00011500        0.00003863        0.00017144        0.00011624
     225         -0.008742        0.000000        0.00004212        0.00003420        0.00002143        0.00010106
     226          0.088306        0.000000        0.07960986        0.00360580        0.00193328        0.55011462
     227          0.098884        0.000000        0.07876401        0.01041014        0.12001643        0.42802815
     228          0.102781        0.000000        0.07880234        0.00357864        0.00547268        0.54033997
     229          0.103763        0.000000        0.07867657        0.00017056        0.16179061        0.39199393
     230          0.103953        0.000000        0.08150457        0.00294231        0.01011123        0.53382958
     231          0.109000        0.000000        0.07916488        0.00249728        0.24597199        0.30407000
     232          0.115316        0.000000        0.08111468        0.03722524        0.15673535        0.35521299
     233          0.283666        0.000000        0.00014044        0.00543360        0.00000812        0.00006921
     234          0.284818        0.000000        0.00000050        0.00005921        0.00588376        0.00000427
     235          0.286037        0.000000        0.00000768        0.00544890        0.00059214        0.00006038
     236          0.290041        0.000000        0.00003687        0.00438217        0.00065676        0.00001986
     237          0.293169        0.000000        0.00003132        0.00044908        0.00329519        0.00179633
     238          0.294703        0.000000        0.00009359        0.00408096        0.00157529        0.00054521
     239          0.295023        0.000000        0.00002147        0.00208456        0.00251756        0.00125699
     240          0.295166        0.000000        0.00005492        0.00516594        0.00085367        0.00008372
     241          0.296596        0.000000        0.00015020        0.00075481        0.00218431        0.00275712
     242          0.298059        0.000000        0.00004156        0.00028103        0.00758494        0.00004225
     243          0.300357        0.000000        0.00000042        0.00541069        0.00063619        0.00017614
     244          0.301918        0.000000        0.00034976        0.00174908        0.00563182        0.00000051
     245          0.307551        0.000000        0.00000064        0.00313572        0.00155104        0.00176843
     246          0.311188        0.000000        0.00000246        0.00332603        0.00336500        0.00049294
     247          0.316486        0.000000        0.00473728        0.00012583        0.00000211        0.00002174
     248          0.327639        0.000000        0.00456737        0.00018114        0.00003902        0.00003366
     249          0.336288        0.000000        0.00533344        0.00001850        0.00007025        0.00029713
     250          0.337491        0.000000        0.00507068        0.00008496        0.00019036        0.00022369
     251          0.337677        0.000000        0.00497226        0.00000853        0.00019740        0.00006712
     252          0.344754        0.000000        0.00488685        0.00088317        0.00011161        0.00009342
     253          0.349258        0.000000        0.00523118        0.00000363        0.00001509        0.00009160
     254          0.454596        0.000000        0.00004770        0.08924692        0.30024215        0.00294082
     255          0.459539        0.000000        0.00002119        0.30249270        0.09074143        0.00096639
     256          0.462974        0.000000        0.00009261        0.36685141        0.02369454        0.00279559
     257          0.464494        0.000000        0.00012648        0.01351198        0.37782741        0.00130044
     258          0.466161        0.000000        0.00003690        0.38251409        0.00789719        0.00340656
     259          0.467274        0.000000        0.00061898        0.01855804        0.36263877        0.00980515