# Projected DOS for atomic kind Pb at iteration step i = 0, E(Fermi) =    -0.171330 a.u.
#     MO Eigenvalue [a.u.]      Occupation                 s                py                pz                px
       1         -0.952920        1.000000        0.00000006        0.00000013        0.00000072        0.00000009
       2         -0.945307        1.000000        0.00000041        0.00000303        0.00000698        0.00000353
       3         -0.942426        1.000000        0.00000021        0.00000088        0.00000127        0.00000056
       4         -0.940424        1.000000        0.00000063        0.00000725        0.00000575        0.00000603
       5         -0.936657        1.000000        0.00000063        0.00000659        0.00000722        0.00000364
       6         -0.936356        1.000000        0.00000047        0.00000255        0.00000351        0.00000487
       7         -0.926085        1.000000        0.00000116        0.00001519        0.00001020        0.00000968
       8         -0.693810        1.000000        0.00000291        0.00000206        0.00000482        0.00000014
       9         -0.690003        1.000000        0.00001597        0.00001374        0.00001442        0.00000794
      10         -0.684865        1.000000        0.00003322        0.00002295        0.00003224        0.00001148
      11         -0.683700        1.000000        0.00002318        0.00002934        0.00003775        0.00002321
      12         -0.683458        1.000000        0.00008448        0.00008370        0.00004665        0.00006168
      13         -0.680384        1.000000        0.00004099        0.00003747        0.00005460        0.00003597
      14         -0.671848        1.000000        0.00006805        0.00005094        0.00003940        0.00001949
      15         -0.640367        1.000000        0.00170249        0.00027805        0.00206332        0.00047854
      16         -0.631104        1.000000        0.01276619        0.00034422        0.00628152        0.00080996
      17         -0.622824        1.000000        0.02272645        0.00748789        0.00040607        0.00843932
      18         -0.619653        1.000000        0.00134732        0.00558744        0.00005179        0.00010373
      19         -0.614884        1.000000        0.03993875        0.01125683        0.00070033        0.00070604
      20         -0.603480        1.000000        0.04519789        0.00220154        0.00331698        0.00851450
      21         -0.597755        1.000000        0.11770143        0.00814124        0.00037738        0.00104245
      22         -0.594223        1.000000        0.10549508        0.00449473        0.00075421        0.01029561
      23         -0.594030        1.000000        0.09819800        0.00394618        0.00129856        0.00875842
      24         -0.592277        1.000000        0.06346157        0.00453546        0.00179605        0.01900366
      25         -0.591212        1.000000        0.02532320        0.01169064        0.00097858        0.00458409
      26         -0.587664        1.000000        0.07301041        0.00772780        0.00395466        0.00067523
      27         -0.586484        1.000000        0.04121868        0.00329305        0.00194974        0.00811118
      28         -0.585400        1.000000        0.01096854        0.00328569        0.00241875        0.00893738
      29         -0.583846        1.000000        0.03329304        0.02092868        0.00111666        0.00367880
      30         -0.582996        1.000000        0.00911098        0.00206776        0.00386953        0.00430326
      31         -0.582420        1.000000        0.02146764        0.00894767        0.00576374        0.00275217
      32         -0.582207        1.000000        0.01142885        0.00421105        0.00293294        0.00452624
      33         -0.580324        1.000000        0.02123689        0.00324333        0.02523981        0.00472384
      34         -0.580056        1.000000        0.01711786        0.00553377        0.02496436        0.00343471
      35         -0.577896        1.000000        0.03321315        0.00847268        0.00916024        0.00923966
      36         -0.577823        1.000000        0.00498760        0.00176406        0.00196709        0.00084676
      37         -0.576941        1.000000        0.02043531        0.01171035        0.01001802        0.00091651
      38         -0.575891        1.000000        0.00492953        0.00387002        0.01394447        0.00565573
      39         -0.574955        1.000000        0.01436344        0.01267659        0.01281368        0.00519055
      40         -0.574743        1.000000        0.00969944        0.01268739        0.01699690        0.00420180
      41         -0.574171        1.000000        0.01028347        0.00256750        0.01789124        0.00386274
      42         -0.573190        1.000000        0.00177250        0.00586961        0.00178097        0.01192481
      43         -0.572512        1.000000        0.00024953        0.01512084        0.02509974        0.00664684
      44         -0.571375        1.000000        0.00139020        0.01834548        0.00522504        0.00369275
      45         -0.570494        1.000000        0.00463226        0.00129326        0.01086494        0.00252294
      46         -0.569631        1.000000        0.05282145        0.00150800        0.01447434        0.00492342
      47         -0.568008        1.000000        0.00270421        0.00092830        0.00116003        0.00060799
      48         -0.567089        1.000000        0.02757247        0.00211325        0.01122934        0.02256912
      49         -0.565592        1.000000        0.07143147        0.01771491        0.00649591        0.00411246
      50         -0.564140        1.000000        0.00190739        0.00307638        0.00174468        0.00627836
      51         -0.562719        1.000000        0.00594463        0.00155051        0.00232418        0.00017828
      52         -0.560392        1.000000        0.00858603        0.00940135        0.00227586        0.00058132
      53         -0.559962        1.000000        0.00728061        0.00768335        0.00073472        0.00052775
      54         -0.559468        1.000000        0.00080362        0.00136228        0.00096254        0.00124909
      55         -0.557586        1.000000        0.00490887        0.00025513        0.00168083        0.00571646
      56         -0.554223        1.000000        0.02475836        0.02245682        0.00644756        0.00057598
      57         -0.553685        1.000000        0.00427813        0.00755749        0.03125565        0.00052400
      58         -0.552342        1.000000        0.00352535        0.01431612        0.00013471        0.00061628
      59         -0.551138        1.000000        0.02606332        0.00293027        0.00072376        0.00061913
      60         -0.545808        1.000000        0.00299139        0.00114515        0.00674692        0.00022748
      61         -0.544885        1.000000        0.01162056        0.00240202        0.00396147        0.00694231
      62         -0.541933        1.000000        0.00196104        0.00012135        0.01354205        0.00448794
      63         -0.538424        1.000000        0.00037274        0.00447204        0.00140059        0.00016594
      64         -0.537833        1.000000        0.00926803        0.00126322        0.00799551        0.00017252
      65         -0.473927        1.000000        0.00248883        0.00002303        0.00011058        0.00001023
      66         -0.469954        1.000000        0.01216144        0.00005718        0.00009678        0.00004546
      67         -0.465117        1.000000        0.57683817        0.00008401        0.00181274        0.00013426
      68         -0.464752        1.000000        0.15462533        0.00005306        0.00029742        0.00004247
      69         -0.464187        1.000000        0.06721208        0.00017392        0.00010008        0.00003274
      70         -0.463806        1.000000        0.01126285        0.00004029        0.00003089        0.00003096
      71         -0.461691        1.000000        0.31187001        0.00038865        0.00028115        0.00022433
      72         -0.460663        1.000000        0.58586715        0.00094729        0.00052780        0.00061798
      73         -0.459417        1.000000        0.40930530        0.00046519        0.00023578        0.00034808
      74         -0.458457        1.000000        0.73630087        0.00002503        0.00115590        0.00014296
      75         -0.454140        1.000000        0.58862892        0.00077857        0.00044572        0.00068380
      76         -0.451578        1.000000        0.11194924        0.00007478        0.00012210        0.00025400
      77         -0.447662        1.000000        0.72081238        0.00171724        0.00124136        0.00085248
      78         -0.443151        1.000000        0.70983818        0.00044315        0.00038986        0.00043698
      79         -0.438488        1.000000        0.74627911        0.00033509        0.00013913        0.00065999
      80         -0.410724        1.000000        0.00065847        0.00000249        0.00007980        0.00000672
      81         -0.409898        1.000000        0.00005892        0.00001020        0.00000963        0.00000208
      82         -0.407697        1.000000        0.00071426        0.00007858        0.00001377        0.00009533
      83         -0.406288        1.000000        0.00119963        0.00004845        0.00007401        0.00010751
      84         -0.402421        1.000000        0.00034189        0.00015389        0.00024532        0.00004023
      85         -0.401817        1.000000        0.00030641        0.00008487        0.00014928        0.00001375
      86         -0.400758        1.000000        0.00013177        0.00004369        0.00008748        0.00004827
      87         -0.400111        1.000000        0.00040856        0.00020293        0.00004297        0.00009525
      88         -0.398916        1.000000        0.00093931        0.00043037        0.00028189        0.00020588
      89         -0.398310        1.000000        0.00046373        0.00015724        0.00015824        0.00008834
      90         -0.398196        1.000000        0.00055982        0.00013372        0.00012374        0.00014085
      91         -0.395468        1.000000        0.00087973        0.00005568        0.00027787        0.00026579
      92         -0.390099        1.000000        0.00006823        0.00001275        0.00003621        0.00001045
      93         -0.386843        1.000000        0.00019414        0.00005391        0.00014509        0.00003532
      94         -0.323848        1.000000        0.00592730        0.00689025        0.00789981        0.00203872
      95         -0.315952        1.000000        0.00417240        0.02307196        0.05191925        0.01787338
      96         -0.305510        1.000000        0.00105576        0.00853449        0.00861985        0.00275050
      97         -0.303277        1.000000        0.00923589        0.05915236        0.00814062        0.01631196
      98         -0.298798        1.000000        0.00535328        0.10568056        0.00519737        0.02791834
      99         -0.276492        1.000000        0.00562028        0.09288058        0.08043416        0.03397980
     100         -0.273732        1.000000        0.00199411        0.09741884        0.04718885        0.02131685
     101         -0.273066        1.000000        0.00741007        0.07281332        0.03830719        0.02958805
     102         -0.269511        1.000000        0.00240182        0.06693821        0.09096029        0.08502643
     103         -0.268426        1.000000        0.00162453        0.10322085        0.05277306        0.01892770
     104         -0.265559        1.000000        0.00390962        0.03699480        0.04970519        0.11294261
     105         -0.264930        1.000000        0.00101942        0.01696308        0.05667689        0.18080936
     106         -0.264692        1.000000        0.00489043        0.06286685        0.04751479        0.07287466
     107         -0.262922        1.000000        0.00098717        0.06250367        0.09052750        0.07030845
     108         -0.257322        1.000000        0.00191219        0.06443781        0.08245969        0.04287083
     109         -0.256894        1.000000        0.00156810        0.04182591        0.09524675        0.07383378
     110         -0.256130        1.000000        0.00016431        0.06663610        0.10947833        0.04458760
     111         -0.255739        1.000000        0.00066977        0.11087060        0.06560907        0.04406029
     112         -0.254158        1.000000        0.00078215        0.01944346        0.11234670        0.04285774
     113         -0.252575        1.000000        0.00061031        0.04912145        0.01795286        0.01508897
     114         -0.251752        1.000000        0.00123367        0.03755314        0.09224939        0.05858496
     115         -0.250358        1.000000        0.00181472        0.03486880        0.11973176        0.02489043
     116         -0.247144        1.000000        0.00447918        0.03629409        0.09838341        0.02466659
     117         -0.245542        1.000000        0.00705377        0.02759552        0.02617347        0.03463931
     118         -0.244403        1.000000        0.00294749        0.06056051        0.02412200        0.09173614
     119         -0.243421        1.000000        0.00440232        0.04462050        0.05918458        0.07031289
     120         -0.242997        1.000000        0.00606562        0.06485142        0.06129821        0.07713595
     121         -0.239911        1.000000        0.00394523        0.06170514        0.04612663        0.02271533
     122         -0.238443        1.000000        0.00122314        0.01965026        0.03304468        0.01286694
     123         -0.236608        1.000000        0.00449245        0.03762244        0.01485393        0.05637022
     124         -0.236012        1.000000        0.00674215        0.02760880        0.01645253        0.05988046
     125         -0.235208        1.000000        0.00184463        0.06314720        0.06040554        0.01570365
     126         -0.233913        1.000000        0.00452546        0.03385427        0.03349051        0.05513263
     127         -0.232358        1.000000        0.00290257        0.02339752        0.03126620        0.07535230
     128         -0.231974        1.000000        0.00823936        0.01404384        0.05467800        0.01805273
     129         -0.229302        1.000000        0.00271182        0.01470642        0.00424701        0.01328505
     130         -0.227524        1.000000        0.00635566        0.03268576        0.01722945        0.03269936
     131         -0.224407        1.000000        0.00315949        0.00990992        0.00809708        0.01468140
     132         -0.223099        1.000000        0.00650416        0.02554318        0.01671758        0.01547202
     133         -0.221927        1.000000        0.00832427        0.01332356        0.02979862        0.01519483
     134         -0.219921        1.000000        0.00857213        0.02338663        0.00393146        0.02270933
     135         -0.218616        1.000000        0.01189374        0.02374259        0.00745662        0.01708897
     136         -0.217955        1.000000        0.00647137        0.01663102        0.01189879        0.00831029
     137         -0.215980        1.000000        0.00965804        0.01800713        0.00993805        0.01625454
     138         -0.215281        1.000000        0.00850035        0.01485897        0.01691137        0.00520231
     139         -0.214268        1.000000        0.00368187        0.00393407        0.00628348        0.00520829
     140         -0.213955        1.000000        0.00208771        0.00550122        0.00837290        0.00393742
     141         -0.212335        1.000000        0.00745697        0.01211506        0.01195115        0.01002905
     142         -0.211674        1.000000        0.00138911        0.00393370        0.00160813        0.00345088
     143         -0.210759        1.000000        0.00210829        0.00634644        0.00228204        0.00322823
     144         -0.209500        1.000000        0.00327759        0.00416860        0.00764810        0.00208413
     145         -0.207903        1.000000        0.00669240        0.01671848        0.00480137        0.00481865
     146         -0.207805        1.000000        0.01002736        0.00573705        0.00569656        0.00971339
     147         -0.207349        1.000000        0.00428950        0.00469711        0.00271254        0.00154559
     148         -0.206402        1.000000        0.00499564        0.00118301        0.00416537        0.00540628
     149         -0.205587        1.000000        0.00424980        0.00225833        0.00278771        0.00649959
     150         -0.205022        1.000000        0.00612462        0.00675011        0.00396423        0.00999675
     151         -0.204514        1.000000        0.00539627        0.00532678        0.00666108        0.01074032
     152         -0.203628        1.000000        0.00641824        0.00781476        0.00382336        0.00507195
     153         -0.202296        1.000000        0.00608285        0.00230501        0.00338262        0.00570097
     154         -0.201944        1.000000        0.01174060        0.00868765        0.00727867        0.01997926
     155         -0.201718        1.000000        0.00479108        0.00347689        0.00348748        0.00625015
     156         -0.201037        1.000000        0.01122953        0.00965695        0.00474715        0.01116298
     157         -0.200342        1.000000        0.00471856        0.00443861        0.00289946        0.00190779
     158         -0.199337        1.000000        0.01043202        0.00451988        0.00327735        0.01203256
     159         -0.198120        1.000000        0.00947335        0.00282783        0.00372667        0.00710939
     160         -0.197880        1.000000        0.00255203        0.00240385        0.00138916        0.00383838
     161         -0.196969        1.000000        0.00302905        0.00291925        0.00109183        0.00455414
     162         -0.196420        1.000000        0.00622394        0.00171189        0.00205134        0.00137054
     163         -0.195977        1.000000        0.00423316        0.00069614        0.00120401        0.00497053
     164         -0.195766        1.000000        0.00999201        0.00213562        0.00211830        0.00676826
     165         -0.194940        1.000000        0.00113165        0.00043728        0.00089194        0.00146096
     166         -0.194230        1.000000        0.00729067        0.00309657        0.00210048        0.00491080
     167         -0.193668        1.000000        0.00948671        0.00364500        0.00288987        0.00213546
     168         -0.193259        1.000000        0.00116697        0.00060357        0.00033662        0.00078756
     169         -0.193007        1.000000        0.00891971        0.00165856        0.00245810        0.00427416
     170         -0.192643        1.000000        0.01261790        0.00193612        0.00287112        0.00577626
     171         -0.191575        1.000000        0.00436608        0.00176658        0.00277700        0.00166284
     172         -0.190365        1.000000        0.00289868        0.00425804        0.00116121        0.00677519
     173         -0.189998        1.000000        0.00334541        0.00136578        0.00046348        0.00322665
     174         -0.189711        1.000000        0.00316897        0.00283701        0.00068665        0.00290176
     175         -0.188943        1.000000        0.00556497        0.00179287        0.00298864        0.00706751
     176         -0.188648        1.000000        0.00559676        0.00180993        0.00151142        0.00294901
     177         -0.188060        1.000000        0.00519675        0.00162004        0.00068894        0.00363923
     178         -0.187647        1.000000        0.00681407        0.00257259        0.00172725        0.00493495
     179         -0.187376        1.000000        0.00215580        0.00079332        0.00053748        0.00150648
     180         -0.187073        1.000000        0.00429562        0.00192939        0.00083579        0.00175744
     181         -0.186116        1.000000        0.00160824        0.00062936        0.00113401        0.00150716
     182         -0.185475        1.000000        0.00296290        0.00024276        0.00061424        0.00499423
     183         -0.184651        1.000000        0.00078634        0.00097400        0.00028852        0.00081167
     184         -0.183393        1.000000        0.00943638        0.00196020        0.00222299        0.00141071
     185         -0.183104        1.000000        0.01569010        0.00223581        0.00245259        0.00414581
     186         -0.182342        1.000000        0.00145046        0.00020687        0.00032828        0.00208398
     187         -0.182068        1.000000        0.02111099        0.00545686        0.00146306        0.01225738
     188         -0.181585        1.000000        0.00430552        0.00077413        0.00104430        0.00043798
     189         -0.179810        1.000000        0.00623469        0.00190760        0.00123119        0.00176712
     190         -0.176112        1.000000        0.00230247        0.00164883        0.00001982        0.00013434
     191         -0.174276        1.000000        0.00117641        0.00047656        0.00019597        0.00065234
     192         -0.173452        1.000000        0.02297994        0.00694549        0.00242728        0.00070883
     193         -0.172084        1.000000        0.08824455        0.01038105        0.00376609        0.00578003
     194         -0.171330        1.000000        0.00676140        0.00144125        0.00175022        0.00116653
     195         -0.168816        0.000000        0.11761261        0.00366422        0.00336641        0.00337778
     196         -0.167304        0.000000        0.05113241        0.00077427        0.00194781        0.00946720
     197         -0.164426        0.000000        0.09511684        0.00519394        0.00176832        0.00504037
     198         -0.158483        0.000000        0.08125744        0.00309786        0.00036052        0.00416969
     199         -0.155454        0.000000        0.01552222        0.01392877        0.00641427        0.00848475
     200         -0.155031        0.000000        0.05502219        0.00585492        0.00172281        0.00195218
     201         -0.129174        0.000000        0.00008436        0.00014958        0.00006824        0.00012553
     202         -0.074048        0.000000        0.00672807        0.15771877        0.09446454        0.47197137
     203         -0.073755        0.000000        0.00010991        0.05799714        0.00738251        0.66832132
     204         -0.071855        0.000000        0.00061183        0.05923524        0.09845347        0.62303214
     205         -0.062686        0.000000        0.00615239        0.21755483        0.13772239        0.36031142
     206         -0.055405        0.000000        0.01134408        0.16537847        0.10362054        0.44051299
     207         -0.052774        0.000000        0.00501406        0.07031928        0.03778161        0.58762216
     208         -0.049415        0.000000        0.00184160        0.38306549        0.04773187        0.27456713
     209         -0.045620        0.000000        0.00408747        0.13217828        0.14063795        0.42860102
     210         -0.040740        0.000000        0.00285655        0.55361652        0.07947141        0.05118409
     211         -0.040492        0.000000        0.00466510        0.11486677        0.55322873        0.01869114
     212         -0.038395        0.000000        0.00524754        0.09784214        0.28089090        0.30582682
     213         -0.034583        0.000000        0.00297508        0.11300131        0.45267667        0.11627110
     214         -0.033635        0.000000        0.00161130        0.22481352        0.42789642        0.02580705
     215         -0.030204        0.000000        0.00514639        0.25783545        0.36658170        0.06409715
     216         -0.026359        0.000000        0.00061575        0.28469039        0.15620403        0.23796181
     217         -0.023999        0.000000        0.00220193        0.05048984        0.59453937        0.01928388
     218         -0.022548        0.000000        0.00131444        0.39929855        0.19851247        0.08623925
     219         -0.018004        0.000000        0.00159064        0.37840532        0.13135548        0.16962997
     220         -0.017859        0.000000        0.00101760        0.39476902        0.08943500        0.19655543
     221         -0.017676        0.000000        0.00032161        0.20538725        0.09922736        0.37178108
     222         -0.014839        0.000000        0.00011706        0.04042140        0.59915170        0.04479172
     223         -0.013976        0.000000        0.00071154        0.52005577        0.13999271        0.01936902
     224         -0.011664        0.000000        0.00030522        0.57101346        0.02176498        0.07066214
     225         -0.005075        0.000000        0.00017975        0.04267615        0.61222049        0.01098317
     226          0.088308        0.000000        0.00000083        0.00003773        0.00008036        0.00001631
     227          0.098888        0.000000        0.00000177        0.00021344        0.00006107        0.00001346
     228          0.102782        0.000000        0.00000974        0.00015948        0.00003968        0.00005491
     229          0.103763        0.000000        0.00000448        0.00051462        0.00015734        0.00007673
     230          0.103953        0.000000        0.00000047        0.00007445        0.00003274        0.00001432
     231          0.109000        0.000000        0.00000657        0.00008514        0.00007093        0.00017497
     232          0.115317        0.000000        0.00000100        0.00005863        0.00009020        0.00001733
     233          0.283730        0.000000        0.00001518        0.00012058        0.00031202        0.00000317
     234          0.284820        0.000000        0.00000578        0.00009522        0.00004681        0.00000618
     235          0.286039        0.000000        0.00000638        0.00005488        0.00022982        0.00000897
     236          0.290041        0.000000        0.00000525        0.00003243        0.00001930        0.00000052
     237          0.293169        0.000000        0.00000089        0.00004248        0.00005111        0.00012509
     238          0.294704        0.000000        0.00001259        0.00033433        0.00005146        0.00002915
     239          0.295023        0.000000        0.00000693        0.00014929        0.00007236        0.00002175
     240          0.295167        0.000000        0.00000588        0.00006834        0.00015430        0.00006513
     241          0.296596        0.000000        0.00000548        0.00006951        0.00002838        0.00006186
     242          0.298060        0.000000        0.00003582        0.00020106        0.00007196        0.00007039
     243          0.300357        0.000000        0.00000374        0.00007607        0.00002792        0.00013715
     244          0.301918        0.000000        0.00000368        0.00002138        0.00003315        0.00003638
     245          0.307554        0.000000        0.00000178        0.00003526        0.00007174        0.00003623
     246          0.311192        0.000000        0.00000312        0.00003426        0.00003260        0.00002233
     247          0.316563        0.000000        0.00001937        0.00012637        0.00031131        0.00001434
     248          0.327639        0.000000        0.00000364        0.00008543        0.00001153        0.00001171
     249          0.336288        0.000000        0.00002401        0.00016405        0.00013342        0.00016845
     250          0.337493        0.000000        0.00002244        0.00008415        0.00012464        0.00005799
     251          0.337677        0.000000        0.00000512        0.00003661        0.00002443        0.00025668
     252          0.344756        0.000000        0.00000986        0.00008281        0.00007186        0.00004055
     253          0.349264        0.000000        0.00000435        0.00003328        0.00010374        0.00002477
     254          0.454597        0.000000        0.00000021        0.00000284        0.00000117        0.00000035
     255          0.459542        0.000000        0.00000058        0.00000591        0.00001196        0.00000090
     256          0.462974        0.000000        0.00000043        0.00000681        0.00001218        0.00000472
     257          0.464495        0.000000        0.00000471        0.00000585        0.00001051        0.00003336
     258          0.466162        0.000000        0.00000210        0.00000826        0.00000900        0.00001172
     259          0.467275        0.000000        0.00000051        0.00000844        0.00008809        0.00001778