    1501
 i =     1824, E =     -8306.9589007228
  I        11.4063254787       12.5710933004        8.2548779353
  I        17.8984690213       11.6779117239        8.3426479028
  I        24.3000565826       11.6306682285        8.5482716149
  I        12.9491556943       17.7319291072        8.1079274859
  I        18.1649702959       18.1916464153        8.3609976028
  I        23.5107641676       17.5632359667        8.4807749748
  I        12.0943444723       24.4994698532        8.4673447600
  I        18.9367940483       23.3961317068        8.4961483625
  I        23.8353910934       24.7608821553        8.8404127591
  I        11.3905065246        7.7012206645       12.6638619802
  I        18.0485322633        8.2422455465       11.5104961342
  I        24.1921499674        8.1175379247       11.5871118476
  I         8.5030977470       12.1808248655       11.4801150603
  I        11.7347978141       11.4683660534       14.8027035949
  I        12.0998138342       14.7044916843       12.0399698932
  I        14.8227293769       11.2481418728       11.4631969633
  I        17.9996380335       11.3765361167       14.7480649822
  I        18.4080624228       14.5583411294       11.7133295053
  I        21.1982942688       11.2280657325       11.4295659749
  I        24.6068587983       11.3944766891       14.8681452304
  I        24.3202563643       14.4802893055       11.9356442452
  I        27.7815380323       11.6799862738       11.5285096426
  I         9.1586573321       17.9502079135       12.1388794362
  I        11.8788747676       17.7765768380       14.8642662342
  I        12.3134823208       21.0336496944       11.5735604784
  I        15.3451469758       17.5665934644       11.9455819158
  I        18.3761805885       17.7000929942       14.7866642622
  I        17.8645712722       20.9337838186       11.9949075517
  I        21.7591547619       18.2322577842       11.5077062525
  I        24.5032785063       17.7970781905       14.7032276008
  I        25.9448472259       20.7561820757       11.2100978013
  I        28.7386780931       17.4143744111       12.6634393123
  I         8.8481972797       24.1356499250       11.2293948912
  I        11.8020790420       23.8995266379       14.9125404680
  I        12.0040874707       27.5047645438       12.1366052968
  I        15.5741259459       24.7429117667       11.5880627243
  I        18.3184380706       24.1092122564       14.8791685957
  I        18.9692088319       29.2078802028       12.7082921668
  I        21.8716988793       23.0000489260       12.2906446693
  I        25.2818919278       24.0722113136       14.9871852962
  I        24.7351092673       27.4712625142       12.1741260936
  I        28.0706688644       24.4079598118       11.2765332764
  I        11.6005460330        7.9336690129       17.7741801580
  I        18.0683699621        7.7897675508       18.2031559599
  I        25.2061454287        8.1764077013       17.7315747747
  I         8.9830186186       12.1139767260       17.9737518517
  I        11.7590381477       11.1102262341       21.2491970939
  I        12.3484850105       14.6368912161       18.1348571853
  I        15.0633519146       11.3790773992       17.7992119448
  I        18.2728548701       11.7242539270       21.1372464803
  I        18.3847694565       14.5308659188       18.0222952652
  I        21.4643456873       11.0837208385       17.5829877246
  I        24.3781353033       11.8294855126       21.0258044192
  I        24.9321259808       14.5025436748       17.8198061590
  I        28.1659558854       11.7537821404       18.3774167913
  I         8.9240150182       17.6506411936       17.9735574528
  I        12.0861082361       17.7612750845       21.2329446531
  I        11.8905240594       21.1323791546       18.1602517644
  I        15.3104576560       18.0432908797       17.7578374020
  I        18.4363272402       17.7389211627       21.2058077676
  I        18.3854266830       21.1712618849       18.2125140005
  I        21.6861824172       17.4570062396       17.8944124408
  I        24.6175149585       17.6829610365       21.1542988248
  I        24.5002494778       20.9288248649       18.0171004836
  I        28.1146970526       17.9627380477       17.7182416411
  I         8.5928594593       24.1000650471       18.1560330268
  I        12.4514810048       23.8461113874       21.3902661966
  I        11.9525748756       28.2560613532       18.7553398915
  I        15.1957518275       24.5902903836       17.7790904752
  I        18.1851926638       24.2118274933       21.3080950489
  I        18.8371405678       27.9717044724       17.8628168384
  I        21.8308092521       24.3469452628       17.7891177196
  I        25.0175309329       23.6188968914       21.2976819556
  I        25.2209020396       27.3048530555       18.0770752424
  I        28.7952619256       23.8153138568       18.6036072809
  I        12.1306802640        7.8642203278       22.7475013799
  I        19.2530431674        8.1145566828       23.6798966789
  I        23.9003095997        7.8318911849       24.9351419804
  I         9.3113347659       12.8083597630       24.5685271744
  I        12.0180015957       11.1234694936       27.6740160503
  I        13.4195718343       14.3764943312       23.9016517297
  I        15.4847540298       10.9124278334       24.4475402743
  I        19.2988878387       11.1864465886       27.5280821900
  I        18.3858499593       14.6049142875       24.5096096696
  I        21.8057209656       11.9188679720       23.8780858144
  I        24.5616048472       11.5649144795       27.9786635472
  I        25.1111550612       14.4103665476       24.7475592702
  I        27.7032872460       11.2577216821       23.7597116277
  I         9.5057538032       16.9561538817       24.4886235867
  I        13.4367236124       17.0048242640       27.4036192434
  I        11.6760968232       20.6048935561       24.9442105973
  I        15.5715796794       18.2972252922       23.9891750211
  I        18.8752429178       17.9646997118       27.8531685710
  I        18.5613291580       20.9785183416       24.4696390043
  I        21.8912834752       17.6153661897       24.2784305896
  I        25.2072075699       17.6284731800       27.6896968787
  I        25.3402691143       20.8406775901       24.4775027907
  I        28.3262405600       17.5097866025       23.7622812334
  I         8.6790240305       23.8210397765       23.6710933804
  I        11.6557484727       23.6927274748       27.7993365787
  I        12.7054157890       27.2152257713       24.6430954987
  I        15.3332041533       23.6683731490       24.8634254100
  I        19.3300642573       23.5781753611       27.6935932141
  I        19.8287607070       27.4164324033       24.1383108984
  I        21.7786804650       23.4549770250       23.8061622312
  I        24.9657736995       23.7542316198       27.9713600644
  I        24.3073693533       27.3242066750       25.2050641728
  I        27.8350702225       24.6262458783       24.5033639743
 Pb        11.6104477633       11.8420368890       11.2478221897
 Pb        18.0715513755       11.3542064421       11.4335635142
 Pb        24.7633135120       11.4329100915       11.5897910085
 Pb        12.3279724685       17.9570795696       11.1330495153
 Pb        18.5216377663       17.7641049712       11.4420048696
 Pb        25.9231871898       17.6808971987       11.2841340875
 Pb        12.4057592955       24.4476681614       11.5745473620
 Pb        18.8358658766       23.8513751483       11.5486279760
 Pb        24.9655008366       24.3197078079       11.6927637084
 Pb        11.9089506838       10.9386325684       17.9149044538
 Pb        18.3970123688       11.0616867983       18.0334876744
 Pb        25.1945636197       11.3799345903       18.1224956117
 Pb        12.1403922112       17.6614400486       18.0263985437
 Pb        18.5594627253       17.6910571865       18.0662785977
 Pb        24.9625035418       17.7963731568       17.8660210880
 Pb        12.0544686920       24.2681047412       18.0972379128
 Pb        18.6707682408       24.3598056789       18.0878971641
 Pb        25.6172622144       24.0944831905       18.2736645619
 Pb        12.1470785515       11.5780944553       24.5014368280
 Pb        18.8328902496       11.1327564161       24.3422157428
 Pb        24.8426500750       11.3704400853       24.8907231571
 Pb        12.5989313909       17.5759958797       24.5565726273
 Pb        18.8013462038       17.7047950209       24.7799040248
 Pb        25.2627286257       17.7075451550       24.4658521409
 Pb        12.2660581547       24.1163544812       24.5464522928
 Pb        18.8720629805       24.1859414607       24.4740121389
 Pb        24.8172589667       24.1656700236       24.9246914608
  C        14.8494779974       14.2573121334        8.6537755012
  C        20.7910805750       14.5443104031        8.5348859883
  C        14.8256647963       21.2850667701        8.3360804647
  C        21.5598713030       20.7617541179        8.3071054659
  C        14.8607273848        8.4371815333       14.5524363867
  C        21.0421959905        8.2504485993       14.3147803862
  C         8.6312962330       14.6562153975       14.5439006048
  C        14.9148078983       14.5430630666       14.6521296714
  C        21.0803286141       14.4464196851       14.6410688794
  C        27.6807660808       14.0393819976       14.6106866406
  C         8.6110088940       20.9606647960       14.5547126802
  C        14.9143965881       20.7730250451       14.6601000773
  C        20.9600582207       20.6408995642       15.1969004935
  C        27.2724565525       21.0480626936       14.8705941012
  C        15.0458192220       27.1581433527       14.6404778991
  C        21.5537340485       26.4467226741       14.2904066618
  C        15.3375969242        8.9345574031       20.8634765833
  C        22.2451995906        8.5480850709       20.5203951022
  C         8.8753961822       14.7642446687       20.9630058624
  C        15.1833438032       14.6903970490       20.5080469236
  C        21.2859729925       14.6677919941       20.9417734401
  C        27.8708853992       14.5312518734       21.0796522490
  C         9.0242693701       20.7572406445       21.0821241433
  C        15.1798118345       20.8612029366       20.9369672527
  C        21.3003929600       20.7482079763       20.9542327785
  C        27.5138642138       20.4559674264       20.9946404143
  C        15.1930695790       26.6464351931       21.4157360762
  C        21.7720781382       26.8537564478       20.7948188091
  C        15.9678723059       13.7492517991       27.4104341599
  C        21.5873053207       14.5612587591       27.1076609547
  C        15.0685293359       20.7463491558       27.5232303186
  C        22.0672923589       20.6654351769       26.9129462095
  N        16.1697687143       15.0675287189        8.5619660539
  N        22.2817248299       14.4427754511        8.9855703303
  N        16.2750702791       21.0687336969        8.8666131223
  N        22.8294181450       21.1675004164        9.0997787006
  N        16.2756892658        8.0436584984       15.0765249416
  N        22.3816526191        8.3504987058       15.0917254389
  N        10.0541243286       14.5597109763       15.1983117728
  N        16.3869398924       14.5505496456       15.1857024145
  N        22.5038524192       14.4509596272       15.3031623749
  N        28.4185165651       14.6376776552       15.8407434760
  N        10.0686989141       20.7634216431       15.0814921120
  N        16.3861531377       20.7593800118       15.2004510299
  N        22.5144521749       20.7630473017       15.0770045648
  N        28.5165528699       20.1335714764       15.0577853931
  N        16.5959673807       27.0668365072       14.8687417865
  N        22.8090198428       26.5390055283       15.2089048229
  N        16.0764590665        7.9527685464       21.8118538729
  N        23.4400003248        7.9375869678       21.2915128377
  N        10.2764473530       14.5488079261       21.6238389945
  N        16.3878978366       14.7521739938       21.5089406818
  N        22.6898184806       14.7648719487       21.6294765960
  N        29.3559864562       14.6669927236       21.5132071634
  N        10.4814809114       20.8597340437       21.6261890107
  N        16.5905742358       20.8657058245       21.6152550444
  N        22.7145989134       20.6563281735       21.6267757119
  N        28.2994426927       20.8422374581       22.2896957957
  N        16.3875970086       27.5619242294       21.8468074883
  N        22.9094567199       26.3522458825       21.7304185942
  N        17.1058652684       14.6498992056       27.9623877937
  N        22.7085217610       14.8615280881       28.1533122253
  N        16.4731708171       21.1678117273       28.0575371783
  N        23.1086153686       20.5536825166       28.0650452384
  H        14.1831042225       14.6270171665        7.9195941318
  H        14.4278013841       14.3778357053        9.6193049178
  H        15.0764989139       13.2375418508        8.4759050475
  H        15.9993933947       16.0533406503        8.8013202975
  H        16.5978062049       15.0343386478        7.4800600775
  H        16.8612007367       14.6926648203        9.2259302302
  H        20.7702404357       14.6798756029        7.4800351080
  H        20.3642032175       15.3849950509        9.0231210033
  H        20.2926630353       13.6504182819        8.8170990234
  H        22.7936242218       15.3051804682        8.6739957713
  H        22.7615169860       13.5994845866        8.5903824631
  H        22.3642530720       14.3861720021       10.0197244256
  H        14.8719287856       21.2664077636        7.2759708795
  H        14.4839113193       22.2236325220        8.6979397039
  H        14.2182219912       20.4941014931        8.7013450760
  H        16.9180699765       21.8109500616        8.5023387178
  H        16.6647857097       20.1395601159        8.5678625991
  H        16.3178760489       21.1026056995        9.9070558233
  H        21.4884855259       21.3944650755        7.4612178597
  H        20.7132292637       20.8785717584        8.9341042619
  H        21.6626711521       19.7500880249        8.0119159560
  H        22.7096859362       22.1178377538        9.4866527875
  H        23.7629830655       21.1846094471        8.4589636613
  H        22.9745721823       20.5187580084        9.8883224726
  H        14.9171063893        8.5707710943       13.5014607771
  H        14.5659121027        9.3405824225       15.0269840723
  H        14.1934750642        7.6488587357       14.7967185749
  H        16.9273208680        8.8313775097       14.9142290263
  H        16.6988075629        7.1305009393       14.6049437460
  H        16.2398829366        7.8602529662       16.0934847462
  H        21.2498186496        7.8841331850       13.3441120700
  H        20.5970196678        9.2124665475       14.2492559714
  H        20.4020946477        7.5807274152       14.8334655756
  H        23.0511990225        8.9420341703       14.5810738570
  H        22.8645951701        7.2899442406       15.2598247555
  H        22.2169537387        8.8020676781       16.0032618475
  H         8.7604540296       14.7138386506       13.4905471128
  H         8.1587191707       15.5304271948       14.9220509382
  H         8.0839196699       13.7882279938       14.8145247969
  H        10.6327302602       15.3845678418       14.9228084590
  H        10.5518907854       13.6803394145       14.9090515412
  H         9.9836435258       14.5403484970       16.2344884745
  H        14.9566944003       14.5301413010       13.5905022136
  H        14.4361542621       15.4242436196       15.0040865553
  H        14.4385804037       13.6688241271       15.0264056165
  H        16.9153510450       15.3680884317       14.8077747805
  H        16.8782666734       13.6652389052       14.9087310670
  H        16.4312600308       14.6046075170       16.2255847376
  H        21.2121820555       14.4953154436       13.5878356246
  H        20.5563493093       15.2978225625       15.0045123425
  H        20.5926403949       13.5435989566       14.9220505759
  H        23.0425364487       15.2971716272       15.0128563950
  H        23.0510433253       13.6001047483       15.0298325754
  H        22.4323073074       14.4641939850       16.3398082329
  H        28.1854180716       14.3549108191       13.7337582654
  H        26.6763249708       14.3802859731       14.5951662094
  H        27.7124681427       12.9816839119       14.6888646935
  H        28.3760211872       15.6673735811       15.8289357827
  H        29.5245038866       14.3140904864       15.8091134878
  H        27.9807397447       14.3004735093       16.7091958296
  H         8.6529982739       20.9551694456       13.4922871674
  H         8.2474471177       21.8904783448       14.9211992810
  H         8.0242044733       20.1498194918       14.9140546882
  H        10.6977882328       21.5167668588       14.7132535334
  H        10.4631180046       19.8282646436       14.8013048374
  H        10.1271925639       20.8185633076       16.1231258342
  H        14.9593837699       20.7684740510       13.5980679074
  H        14.4437517259       21.6557340480       15.0216016494
  H        14.4301432158       19.8992046990       15.0238155146
  H        16.9213074224       21.5687629338       14.8207859557
  H        16.8759250943       19.8765855868       14.9185987463
  H        16.4170385463       20.8161680099       16.2408423280
  H        20.5826611230       20.3520306622       14.2469882619
  H        20.5802100003       21.5907106904       15.4845779919
  H        20.7511077719       19.9021727603       15.9299245088
  H        22.7401036176       21.4824140338       14.3568488373
  H        22.9493559404       19.8479699556       14.7997601587
  H        22.9451035780       21.0378335818       15.9937398683
  H        27.4514316249       21.6977014427       14.0510035226
  H        27.1309749035       21.5901841952       15.7707454497
  H        26.4298817244       20.4324946008       14.6753617755
  H        29.3617763529       20.7290465994       15.3758111543
  H        28.7256824469       19.6096238270       14.1870156726
  H        28.3312636866       19.4272779449       15.8092806634
  H        14.8568876192       26.9543566689       13.6144763464
  H        14.7233566912       28.1321211219       14.9133806776
  H        14.5893301921       26.4174660719       15.2538078940
  H        17.1175115574       27.6171955258       14.1564438078
  H        16.9298247633       26.0631997896       14.8049274335
  H        16.8667943944       27.4161878441       15.8140473199
  H        21.7801815009       26.9268652707       13.3717183854
  H        20.7467395260       26.9139772667       14.7940413984
  H        21.3446910830       25.4158563551       14.1351009208
  H        23.1113243553       27.5311358510       15.3558450108
  H        23.6076137374       25.9902025904       14.8119183732
  H        22.5784222599       26.0816689074       16.1299547862
  H        15.7984953721        8.8830230920       19.9118018553
  H        15.4022501856        9.9177533690       21.2515925388
  H        14.3259901761        8.6303677603       20.7949898443
  H        17.0846233076        8.1523943001       21.7996259715
  H        15.9060514408        6.9057083570       21.4523087379
  H        15.7577004823        8.0493795084       22.8133961111
  H        22.3661257882        8.3427838015       19.4879613669
  H        22.2229647319        9.5969534385       20.6787312562
  H        21.3517439228        8.1116269611       20.8908815500
  H        24.3820184203        8.3971896428       21.1081808666
  H        23.6031792254        6.8535378551       21.0336064839
  H        23.2701844121        8.0016520999       22.3010978537
  H         9.0287358509       14.9424052471       19.9268705636
  H         8.4273525717       15.5995218618       21.4422478939
  H         8.3044539295       13.8812626390       21.1150251445
  H        10.8446773109       15.4259805910       21.5700649834
  H        10.7919955358       13.7802284425       21.1444369502
  H        10.1464701566       14.2743379156       22.6291885041
  H        15.5847781974       14.7095643331       19.5258846947
  H        14.5650093537       15.5351766829       20.6847289194
  H        14.6598430180       13.7833590048       20.6835443805
  H        16.9538146704       15.6238274607       21.3659439332
  H        17.0144522526       13.9213702896       21.3638359022
  H        16.0483459532       14.7375674142       22.4895395139
  H        21.4374265209       14.6843591301       19.8912210006
  H        20.7080803037       15.5055302080       21.2483965561
  H        20.8335110846       13.7551331679       21.2454175021
  H        23.1909551148       15.6450838363       21.3532340869
  H        23.2769404140       13.9361615027       21.3568017783
  H        22.5837415314       14.7629424462       22.6606285158
  H        27.8336328122       14.5371062617       20.0210691247
  H        27.3225241531       15.3486233269       21.4758895078
  H        27.4898138256       13.6123957909       21.4497656807
  H        29.7082801011       15.6358208062       21.2348851206
  H        30.0208863420       13.9511781529       20.9873305790
  H        29.4420381204       14.5398812814       22.5286240951
  H         9.0790638417       20.7507213984       20.0209439665
  H         8.4931486238       21.6070271418       21.4319802450
  H         8.5983253501       19.8572619371       21.4519847090
  H        10.9586565555       21.7212454545       21.2674239538
  H        11.0364594203       20.0150386858       21.3398744666
  H        10.5127594113       20.9012359404       22.6727680194
  H        15.3269865482       20.8648118051       19.8848538920
  H        14.6652742645       21.7378493718       21.2476718078
  H        14.6724456093       19.9796518567       21.2438512736
  H        17.1226807286       21.7226495988       21.3409379487
  H        17.1393735707       20.0159674100       21.3409706172
  H        16.5147336896       20.8572679019       22.6534474992
  H        21.4424720297       20.8000299373       19.9021803393
  H        20.8230041857       21.6233881219       21.3234081258
  H        20.7593418941       19.8732061122       21.2241055568
  H        23.3155189752       21.4640029439       21.3457919387
  H        23.2042883855       19.7647078277       21.3560769389
  H        22.6238502457       20.6757554361       22.6606816390
  H        28.1846839743       19.9549443714       20.3426205634
  H        27.1455785545       21.3487759342       20.5563957925
  H        26.7128454128       19.8118261321       21.2579642628
  H        29.1974136742       21.3829232381       21.9915913524
  H        28.5525518731       19.9706841584       22.8024111942
  H        27.6965026917       21.4125516638       22.9075035167
  H        15.2426675483       26.5086630672       20.3630770076
  H        14.2873353445       27.1258795258       21.6881157684
  H        15.2835856959       25.7121901934       21.9105940655
  H        16.2705626280       28.5056061478       21.3240232954
  H        17.2724129203       27.1085395467       21.5672304131
  H        16.4052957061       27.6764776984       22.8944397036
  H        22.1418152355       26.8566943950       19.8006604808
  H        21.4925146312       27.8248061921       21.1164066401
  H        20.9506079542       26.1855880879       20.8863317512
  H        23.7845336869       26.9900839542       21.6831593386
  H        23.2219549162       25.3946408166       21.4635045467
  H        22.5613304584       26.3180942980       22.7043531045
  H        16.2505409389       13.3647652997       26.4634021550
  H        15.0958579671       14.3497143215       27.3205478420
  H        15.8078564962       12.9676322721       28.1075268702
  H        17.3114359369       15.4236264815       27.3165178100
  H        17.9769499438       14.1157085407       28.1170054746
  H        16.7905924551       15.0820478191       28.9620461900
  H        22.0268682911       14.1373846065       26.2393395921
  H        21.1078679993       15.4789984249       26.8761888470
  H        20.9027371426       13.8800052920       27.5510684436
  H        23.4338715568       15.4836475569       27.7482265083
  H        23.1670301955       13.9819546167       28.4518338234
  H        22.2676779636       15.3844749679       29.0098945336
  H        15.1826956749       20.2903722556       26.5707349262
  H        14.4653040402       21.6157790869       27.4465250249
  H        14.6459302198       20.0586701667       28.2136993683
  H        16.9640987968       21.7331796276       27.3476833623
  H        17.0410984971       20.3237955311       28.2368843537
  H        16.3535718706       21.7988500032       29.0094675188
  H        22.5818393004       20.7914997161       25.9956159471
  H        21.4450158649       21.5036030150       27.1058503568
  H        21.4924439899       19.7739917754       26.8988795536
  H        23.6829151577       21.4162605584       28.1149665713
  H        23.7338043733       19.7395774419       27.9055143112
  H        22.5637434263       20.4195621751       29.0191177371
  H         5.4539643314       11.3140903316        7.4032977347
  O         6.2764644959       11.8741182566        7.3864366787
  H         6.2591552549       13.2506100413        7.5000476442
  H         5.1406108011        9.0064697791       12.1507416830
  O         6.1061893551        9.2572065603       12.1976512535
  H         6.2733091088        9.8500305023       13.0417094809
  H         6.1906609360       11.3176381194       15.4053545782
  O         6.7500154739       10.7885021507       14.2913825004
  H         7.0571204656       11.5593066868       13.7132363982
  H         5.7965112274       13.0274946378       16.6681954518
  O         5.7977210305       11.7739818959       16.3522697722
  H         5.8837079508       11.1511574933       17.1304993939
  H         6.3997179200       10.3148880383       20.8617450167
  O         6.9492820355       10.0753213245       19.9601533709
  H         7.5895478405       10.7945511716       19.6741338332
  H         4.6878707297       10.3416900305       22.0063203383
  O         5.6455234958       10.6243617692       22.0101823599
  H         6.0080287860       10.6926317606       23.0222947910
  H         6.0567914309       11.5569789776       25.0079699479
  O         6.5356349495       10.7902445673       24.3973367713
  H         7.4941575992       11.1199232851       24.3375758561
  H         5.5448556220       11.0277152227       28.9966438706
  O         6.4206687795       11.5057715264       29.0562756750
  H         6.3511607643       12.5305679966       28.6392970116
  H         5.5448211052       15.1630598309        7.6962478379
  O         6.4276622050       14.3458872549        7.5375897560
  H         7.1450412675       14.6475954187        8.3733749481
  H         5.9682026601       14.7346325411       12.1291537931
  O         5.9088658528       13.9409850265       12.8604582035
  H         5.2935951127       13.2442091280       12.4796514150
  H         5.9887457107       14.4862587778       17.9069545306
  O         5.8052588595       14.1407505743       16.9556955719
  H         5.7334993225       15.0236967993       16.2632504451
  H         4.9166184957       13.3358494760       25.3343522894
  O         5.5975885465       12.7224906919       25.7318239733
  H         5.9801891928       13.1528085480       26.6405509508
  H         5.8744125429       14.5996267453       28.1626182251
  O         6.4314643885       13.7404211772       27.9473151145
  H         7.5070211955       14.0960148898       27.9629687798
  H         5.0905956685       17.1759833320        8.2577037464
  O         4.7646317410       16.0726858344        7.9853128870
  H         4.0124747044       15.7775697885        8.5720486796
  H         5.8218949720       16.7448025800       11.2374117331
  O         6.0191441199       15.7681622837       11.0872420945
  H         6.7795353815       15.6266084811       10.3668817417
  H         5.5725090291       16.1678249933       14.6319657124
  O         5.6999121522       16.1805625946       15.6225389551
  H         5.4424767500       17.1313225432       16.1118768811
  H         5.6094452698       16.1773953268       19.4439322033
  O         6.3255349293       15.5731932737       19.0793499259
  H         7.1012087980       16.1634066008       18.7775478227
  H         6.2226218725       17.5883295969       25.4468029897
  O         5.9153767459       16.5907002698       25.5021874725
  H         6.6018675486       16.0382653794       25.0222362089
  H         5.2408394250       17.0742693448       28.4329652876
  O         5.4965987584       16.1746128367       28.0518275703
  H         5.6353281043       16.3172094883       27.0238234495
  H         5.3295150226       19.3206934868        8.3912869536
  O         5.4173493727       18.2955754399        8.7081184168
  H         5.6415379151       18.3419528088        9.7168646979
  H         5.7478083114       19.7581964091       11.3668452551
  O         5.9142039726       18.7246794658       11.3101965145
  H         6.8721902159       18.5800843486       11.6051301260
  H         4.3098327001       18.8330091871       16.3713266025
  O         5.0779401018       18.3194770742       16.7462079651
  H         5.4509236582       18.7853279519       17.6650995245
  H         6.0143587481       20.3624932504       19.1397210192
  O         6.0173347778       19.3315683315       18.8501794946
  H         6.9678456605       18.9958241374       18.8945815385