 DBCSR| CPU Multiplication driver                                           XSMM
 DBCSR| Multrec recursion limit                                              512
 DBCSR| Multiplication stack size                                           1000
 DBCSR| Maximum elements for images                                    UNLIMITED
 DBCSR| Multiplicative factor virtual images                                   1
 DBCSR| Use multiplication densification                                       T
 DBCSR| Multiplication size stacks                                             3
 DBCSR| Use memory pool for CPU allocation                                     F
 DBCSR| Number of 3D layers                                               SINGLE
 DBCSR| Use MPI memory allocation                                              F
 DBCSR| Use RMA algorithm                                                      F
 DBCSR| Use Communication thread                                               T
 DBCSR| Communication thread load                                             87
 DBCSR| MPI: My node id                                                        0
 DBCSR| MPI: Number of nodes                                                  24
 DBCSR| OMP: Current number of threads                                         1
 DBCSR| OMP: Max number of threads                                             1
 DBCSR| Split modifier for TAS multiplication algorithm                  1.0E+00


  **** **** ******  **  PROGRAM STARTED AT               2023-12-04 02:10:01.973
 ***** ** ***  *** **   PROGRAM STARTED ON            milan4.int.triton.aalto.fi
 **    ****   ******    PROGRAM STARTED BY                               huangj4
 ***** **    ** ** **   PROGRAM PROCESS ID                                 20909
  **** **  *******  **  PROGRAM STARTED IN /scratch/phys/sin/Jie/Github/cp2kTest
                                           /PDOS234/Cluster_333

 CP2K| version string:                                          CP2K version 8.2
 CP2K| source code revision number:                                  git:310b7ab
 CP2K| cp2kflags: omp libint fftw3 libxc parallel mpi3 scalapack xsmm           
 CP2K| is freely available from                            https://www.cp2k.org/
 CP2K| Program compiled at                          Thu May 12 10:08:29 UTC 2022
 CP2K| Program compiled on                                          80d7174ae3e8
 CP2K| Program compiled for                            linux-centos7-haswell-gcc
 CP2K| Data directory path    /share/apps/spack/envs/fgci-centos7-haswell/softwa
 CP2K| Input file name                                                 input.inp

 GLOBAL| Force Environment number                                              1
 GLOBAL| Basis set file name                                        BASIS_MOLOPT
 GLOBAL| Potential file name                                      GTH_POTENTIALS
 GLOBAL| MM Potential file name                                     MM_POTENTIAL
 GLOBAL| Coordinate file name                                MAPbI3-pos-last.xyz
 GLOBAL| Method name                                                        CP2K
 GLOBAL| Project name                                                 MAPbI3_DOS
 GLOBAL| Run type                                                         ENERGY
 GLOBAL| FFT library                                                       FFTW3
 GLOBAL| Diagonalization library                                       ScaLAPACK
 GLOBAL| Orthonormality check for eigenvectors                          DISABLED
 GLOBAL| Matrix multiplication library                                    SCALAP
 GLOBAL| All-to-all communication in single precision                          F
 GLOBAL| FFTs using library dependent lengths                                  F
 GLOBAL| Grid backend                                                       AUTO
 GLOBAL| Global print level                                               MEDIUM
 GLOBAL| MPI I/O enabled                                                       T
 GLOBAL| Total number of message passing processes                            24
 GLOBAL| Number of threads for this process                                    1
 GLOBAL| This output is from process                                           0
 GLOBAL| CPU model name                          AMD EPYC 7713 64-Core Processor
 GLOBAL| CPUID                                                              1002

 MEMORY| system memory details [Kb]
 MEMORY|                        rank 0           min           max       average
 MEMORY| MemTotal            528041892     528041892     528041892     528041892
 MEMORY| MemFree             410917552     410591576     410917552     410605158
 MEMORY| Buffers                     0             0             0             0
 MEMORY| Cached               14670088      14670088      14670088      14670088
 MEMORY| Slab                  4061928       4061928       4061928       4061928
 MEMORY| SReclaimable          2223700       2223700       2223700       2223700
 MEMORY| MemLikelyFree       427811340     427485364     427811340     427498946


 *** Fundamental physical constants (SI units) ***

 *** Literature: B. J. Mohr and B. N. Taylor,
 ***             CODATA recommended values of the fundamental physical
 ***             constants: 2006, Web Version 5.1
 ***             http://physics.nist.gov/constants

 Speed of light in vacuum [m/s]                             2.99792458000000E+08
 Magnetic constant or permeability of vacuum [N/A**2]       1.25663706143592E-06
 Electric constant or permittivity of vacuum [F/m]          8.85418781762039E-12
 Planck constant (h) [J*s]                                  6.62606896000000E-34
 Planck constant (h-bar) [J*s]                              1.05457162825177E-34
 Elementary charge [C]                                      1.60217648700000E-19
 Electron mass [kg]                                         9.10938215000000E-31
 Electron g factor [ ]                                     -2.00231930436220E+00
 Proton mass [kg]                                           1.67262163700000E-27
 Fine-structure constant                                    7.29735253760000E-03
 Rydberg constant [1/m]                                     1.09737315685270E+07
 Avogadro constant [1/mol]                                  6.02214179000000E+23
 Boltzmann constant [J/K]                                   1.38065040000000E-23
 Atomic mass unit [kg]                                      1.66053878200000E-27
 Bohr radius [m]                                            5.29177208590000E-11

 *** Conversion factors ***

 [u] -> [a.u.]                                              1.82288848426455E+03
 [Angstrom] -> [Bohr] = [a.u.]                              1.88972613288564E+00
 [a.u.] = [Bohr] -> [Angstrom]                              5.29177208590000E-01
 [a.u.] -> [s]                                              2.41888432650478E-17
 [a.u.] -> [fs]                                             2.41888432650478E-02
 [a.u.] -> [J]                                              4.35974393937059E-18
 [a.u.] -> [N]                                              8.23872205491840E-08
 [a.u.] -> [K]                                              3.15774647902944E+05
 [a.u.] -> [kJ/mol]                                         2.62549961709828E+03
 [a.u.] -> [kcal/mol]                                       6.27509468713739E+02
 [a.u.] -> [Pa]                                             2.94210107994716E+13
 [a.u.] -> [bar]                                            2.94210107994716E+08
 [a.u.] -> [atm]                                            2.90362800883016E+08
 [a.u.] -> [eV]                                             2.72113838565563E+01
 [a.u.] -> [Hz]                                             6.57968392072181E+15
 [a.u.] -> [1/cm] (wave numbers)                            2.19474631370540E+05
 [a.u./Bohr**2] -> [1/cm]                                   5.14048714338585E+03
 

 CELL_TOP| Volume [angstrom^3]:                                     49130.606547
 CELL_TOP| Vector a [angstrom    37.330     0.000     0.000   |a| =    37.330000
 CELL_TOP| Vector b [angstrom     0.000    36.630     0.000   |b| =    36.630000
 CELL_TOP| Vector c [angstrom     0.000     0.000    35.930   |c| =    35.930000
 CELL_TOP| Angle (b,c), alpha [degree]:                                90.000000
 CELL_TOP| Angle (a,c), beta  [degree]:                                90.000000
 CELL_TOP| Angle (a,b), gamma [degree]:                                90.000000
 CELL_TOP| Numerically orthorhombic:                                         YES

 GENERATE|  Preliminary Number of Bonds generated:                             0
 GENERATE|  Achieved consistency in connectivity generation.

 CELL| Volume [angstrom^3]:                                         49130.606547
 CELL| Vector a [angstrom]:      37.330     0.000     0.000   |a| =    37.330000
 CELL| Vector b [angstrom]:       0.000    36.630     0.000   |b| =    36.630000
 CELL| Vector c [angstrom]:       0.000     0.000    35.930   |c| =    35.930000
 CELL| Angle (b,c), alpha [degree]:                                    90.000000
 CELL| Angle (a,c), beta  [degree]:                                    90.000000
 CELL| Angle (a,b), gamma [degree]:                                    90.000000
 CELL| Numerically orthorhombic:                                             YES

 CELL_REF| Volume [angstrom^3]:                                     49130.606547
 CELL_REF| Vector a [angstrom    37.330     0.000     0.000   |a| =    37.330000
 CELL_REF| Vector b [angstrom     0.000    36.630     0.000   |b| =    36.630000
 CELL_REF| Vector c [angstrom     0.000     0.000    35.930   |c| =    35.930000
 CELL_REF| Angle (b,c), alpha [degree]:                                90.000000
 CELL_REF| Angle (a,c), beta  [degree]:                                90.000000
 CELL_REF| Angle (a,b), gamma [degree]:                                90.000000
 CELL_REF| Numerically orthorhombic:                                         YES

 *******************************************************************************
 *******************************************************************************
 **                                                                           **
 **     #####                         ##              ##                      **
 **    ##   ##            ##          ##              ##                      **
 **   ##     ##                       ##            ######                    **
 **   ##     ##  ##   ##  ##   #####  ##  ##   ####   ##    #####    #####    **
 **   ##     ##  ##   ##  ##  ##      ## ##   ##      ##   ##   ##  ##   ##   **
 **   ##  ## ##  ##   ##  ##  ##      ####     ###    ##   ######   ######    **
 **    ##  ###   ##   ##  ##  ##      ## ##      ##   ##   ##       ##        **
 **     #######   #####   ##   #####  ##  ##  ####    ##    #####   ##        **
 **           ##                                                    ##        **
 **                                                                           **
 **                                                ... make the atoms dance   **
 **                                                                           **
 **            Copyright (C) by CP2K developers group (2000-2021)             **
 **                      J. Chem. Phys. 152, 194103 (2020)                    **
 **                                                                           **
 *******************************************************************************

 DFT| Spin unrestricted (spin-polarized) Kohn-Sham calculation               UKS
 DFT| Multiplicity                                                             1
 DFT| Number of spin states                                                    2
 DFT| Charge                                                                   0
 DFT| Self-interaction correction (SIC)                                       NO
 DFT| Cutoffs: density                                              1.000000E-10
 DFT|          gradient                                             1.000000E-10
 DFT|          tau                                                  1.000000E-10
 DFT|          cutoff_smoothing_range                               0.000000E+00
 DFT| XC density smoothing                                                  NONE
 DFT| XC derivatives                                                          PW
 FUNCTIONAL| ROUTINE=NEW
 FUNCTIONAL| PBE:
 FUNCTIONAL| J.P.Perdew, K.Burke, M.Ernzerhof, Phys. Rev. Letter, vol. 77, n 18,
 FUNCTIONAL|  pp. 3865-3868, (1996){spin polarized}                             
 vdW POTENTIAL|                                                   Pair Potential
 vdW POTENTIAL|          DFT-D3 (Version 3.1)
 vdW POTENTIAL|          Potential Form: S. Grimme et al, JCP 132: 154104 (2010)
 vdW POTENTIAL|          Zero Damping
 vdW POTENTIAL|          Cutoff Radius [Bohr]:                             20.00
 vdW POTENTIAL|          s6 Scaling Factor:                               1.0000
 vdW POTENTIAL|          sr6 Scaling Factor:                              1.2170
 vdW POTENTIAL|          s8 Scaling Factor:                               0.7220
 vdW POTENTIAL|          Cutoff for CN calculation:                   0.1000E-05

 QS| Method:                                                                 GPW
 QS| Density plane wave grid type                        NON-SPHERICAL FULLSPACE
 QS| Number of grid levels:                                                    4
 QS| Density cutoff [a.u.]:                                                110.0
 QS| Multi grid cutoff [a.u.]: 1) grid level                               110.0
 QS|                           2) grid level                                36.7
 QS|                           3) grid level                                12.2
 QS|                           4) grid level                                 4.1
 QS| Grid level progression factor:                                          3.0
 QS| Relative density cutoff [a.u.]:                                        30.0
 QS| Interaction thresholds: eps_pgf_orb:                                1.0E-05
 QS|                         eps_filter_matrix:                          0.0E+00
 QS|                         eps_core_charge:                            1.0E-12
 QS|                         eps_rho_gspace:                             1.0E-10
 QS|                         eps_rho_rspace:                             1.0E-10
 QS|                         eps_gvg_rspace:                             1.0E-05
 QS|                         eps_ppl:                                    1.0E-02
 QS|                         eps_ppnl:                                   1.0E-07


 ATOMIC KIND INFORMATION

  1. Atomic kind: I                                     Number of atoms:     108

     Orbital Basis Set                                         SZV-MOLOPT-SR-GTH

       Number of orbital shell sets:                                           1
       Number of orbital shells:                                               2
       Number of primitive Cartesian functions:                                5
       Number of Cartesian basis functions:                                    4
       Number of spherical basis functions:                                    4
       Norm type:                                                              2

       Normalised Cartesian orbitals:

                        Set   Shell   Orbital            Exponent    Coefficient

                          1       1    2s                0.966173      -0.369082
                                                         0.828886      -0.032154
                                                         0.367159       0.255166
                                                         0.201369       0.106471
                                                         0.083015       0.018311

                          1       2    3px               0.966173      -1.009678
                                                         0.828886       0.783764
                                                         0.367159       0.107863
                                                         0.201369       0.101262
                                                         0.083015       0.016495
                          1       2    3py               0.966173      -1.009678
                                                         0.828886       0.783764
                                                         0.367159       0.107863
                                                         0.201369       0.101262
                                                         0.083015       0.016495
                          1       2    3pz               0.966173      -1.009678
                                                         0.828886       0.783764
                                                         0.367159       0.107863
                                                         0.201369       0.101262
                                                         0.083015       0.016495

       Atomic covalent radius [Angstrom]:                                  1.330

       Atomic van der Waals radius [Angstrom]:                             1.980

     GTH Potential information for                                       GTH-PBE

       Description:                       Goedecker-Teter-Hutter pseudopotential
                                           Goedecker et al., PRB 54, 1703 (1996)
                                          Hartwigsen et al., PRB 58, 3641 (1998)
                                                      Krack, TCA 114, 145 (2005)

       Gaussian exponent of the core charge distribution:               1.594388
       Electronic configuration (s p d ...):                               2   5

       Parameters of the local part of the GTH pseudopotential:

                          rloc        C1          C2          C3          C4
                        0.560000    8.207102

       Parameters of the non-local part of the GTH pseudopotential:

                   l      r(l)      h(i,j,l)

                   0    0.531928    2.308146    1.003909   -0.959156
                                    1.003909   -2.856109    2.476530
                                   -0.959156    2.476530   -1.965685
                   1    0.589182    0.906482    0.425071
                                    0.425071   -0.502950
                   2    0.739721    0.479195

  2. Atomic kind: Pb                                    Number of atoms:      27

     Orbital Basis Set                                         SZV-MOLOPT-SR-GTH

       Number of orbital shell sets:                                           1
       Number of orbital shells:                                               2
       Number of primitive Cartesian functions:                                5
       Number of Cartesian basis functions:                                    4
       Number of spherical basis functions:                                    4
       Norm type:                                                              2

       Normalised Cartesian orbitals:

                        Set   Shell   Orbital            Exponent    Coefficient

                          1       1    2s                1.933598      -0.156134
                                                         0.981425       0.419979
                                                         0.222223      -0.230246
                                                         0.077759      -0.022545
                                                         0.073968      -0.008640

                          1       2    3px               1.933598       0.064608
                                                         0.981425      -0.243154
                                                         0.222223       0.142297
                                                         0.077759       0.018505
                                                         0.073968       0.009435
                          1       2    3py               1.933598       0.064608
                                                         0.981425      -0.243154
                                                         0.222223       0.142297
                                                         0.077759       0.018505
                                                         0.073968       0.009435
                          1       2    3pz               1.933598       0.064608
                                                         0.981425      -0.243154
                                                         0.222223       0.142297
                                                         0.077759       0.018505
                                                         0.073968       0.009435

       Atomic covalent radius [Angstrom]:                                  1.470

       Atomic van der Waals radius [Angstrom]:                             2.020

     GTH Potential information for                                       GTH-PBE

       Description:                       Goedecker-Teter-Hutter pseudopotential
                                           Goedecker et al., PRB 54, 1703 (1996)
                                          Hartwigsen et al., PRB 58, 3641 (1998)
                                                      Krack, TCA 114, 145 (2005)

       Gaussian exponent of the core charge distribution:               1.311282
       Electronic configuration (s p d ...):                               2   2

       Parameters of the local part of the GTH pseudopotential:

                          rloc        C1          C2          C3          C4
                        0.617500    4.672384

       Parameters of the non-local part of the GTH pseudopotential:

                   l      r(l)      h(i,j,l)

                   0    0.622359    0.879918    2.081148   -1.431257
                                    2.081148   -5.014690    3.695490
                                   -1.431257    3.695490   -2.933204
                   1    0.812002    0.153457    0.478898
                                    0.478898   -0.566640
                   2    1.025015    0.301702

  3. Atomic kind: C                                     Number of atoms:      32

     Orbital Basis Set                                            SZV-MOLOPT-GTH

       Number of orbital shell sets:                                           1
       Number of orbital shells:                                               2
       Number of primitive Cartesian functions:                                7
       Number of Cartesian basis functions:                                    4
       Number of spherical basis functions:                                    4
       Norm type:                                                              2

       Normalised Cartesian orbitals:

                        Set   Shell   Orbital            Exponent    Coefficient

                          1       1    2s                6.132625      -0.263661
                                                         2.625196      -0.231112
                                                         1.045457       0.042712
                                                         0.478316       0.306085
                                                         0.178617       0.065483
                                                         0.075145       0.000568
                                                         0.030287       0.000417

                          1       2    3px               6.132625       0.562677
                                                         2.625196       0.633910
                                                         1.045457       0.379157
                                                         0.478316       0.235193
                                                         0.178617       0.052379
                                                         0.075145       0.003677
                                                         0.030287       0.000105
                          1       2    3py               6.132625       0.562677
                                                         2.625196       0.633910
                                                         1.045457       0.379157
                                                         0.478316       0.235193
                                                         0.178617       0.052379
                                                         0.075145       0.003677
                                                         0.030287       0.000105
                          1       2    3pz               6.132625       0.562677
                                                         2.625196       0.633910
                                                         1.045457       0.379157
                                                         0.478316       0.235193
                                                         0.178617       0.052379
                                                         0.075145       0.003677
                                                         0.030287       0.000105

       Atomic covalent radius [Angstrom]:                                  0.770

       Atomic van der Waals radius [Angstrom]:                             1.700

     GTH Potential information for                                       GTH-PBE

       Description:                       Goedecker-Teter-Hutter pseudopotential
                                           Goedecker et al., PRB 54, 1703 (1996)
                                          Hartwigsen et al., PRB 58, 3641 (1998)
                                                      Krack, TCA 114, 145 (2005)

       Gaussian exponent of the core charge distribution:               4.364419
       Electronic configuration (s p d ...):                               2   2

       Parameters of the local part of the GTH pseudopotential:

                          rloc        C1          C2          C3          C4
                        0.338471   -8.803674    1.339211

       Parameters of the non-local part of the GTH pseudopotential:

                   l      r(l)      h(i,j,l)

                   0    0.302576    9.622487
                   1    0.291507

  4. Atomic kind: N                                     Number of atoms:      32

     Orbital Basis Set                                            SZV-MOLOPT-GTH

       Number of orbital shell sets:                                           1
       Number of orbital shells:                                               2
       Number of primitive Cartesian functions:                                7
       Number of Cartesian basis functions:                                    4
       Number of spherical basis functions:                                    4
       Norm type:                                                              2

       Normalised Cartesian orbitals:

                        Set   Shell   Orbital            Exponent    Coefficient

                          1       1    2s                9.042730      -0.237404
                                                         3.882225      -0.265910
                                                         1.512880       0.102064
                                                         0.586631       0.295369
                                                         0.222851       0.088647
                                                         0.084583       0.003860
                                                         0.039194       0.000722

                          1       2    3px               9.042730       0.822162
                                                         3.882225       0.990771
                                                         1.512880       0.665657
                                                         0.586631       0.321705
                                                         0.222851       0.063706
                                                         0.084583       0.004155
                                                         0.039194      -0.000005
                          1       2    3py               9.042730       0.822162
                                                         3.882225       0.990771
                                                         1.512880       0.665657
                                                         0.586631       0.321705
                                                         0.222851       0.063706
                                                         0.084583       0.004155
                                                         0.039194      -0.000005
                          1       2    3pz               9.042730       0.822162
                                                         3.882225       0.990771
                                                         1.512880       0.665657
                                                         0.586631       0.321705
                                                         0.222851       0.063706
                                                         0.084583       0.004155
                                                         0.039194      -0.000005

       Atomic covalent radius [Angstrom]:                                  0.750

       Atomic van der Waals radius [Angstrom]:                             1.550

     GTH Potential information for                                       GTH-PBE

       Description:                       Goedecker-Teter-Hutter pseudopotential
                                           Goedecker et al., PRB 54, 1703 (1996)
                                          Hartwigsen et al., PRB 58, 3641 (1998)
                                                      Krack, TCA 114, 145 (2005)

       Gaussian exponent of the core charge distribution:               6.208322
       Electronic configuration (s p d ...):                               2   3

       Parameters of the local part of the GTH pseudopotential:

                          rloc        C1          C2          C3          C4
                        0.283791  -12.415226    1.868096

       Parameters of the non-local part of the GTH pseudopotential:

                   l      r(l)      h(i,j,l)

                   0    0.255405   13.630263
                   1    0.245495

  5. Atomic kind: H                                     Number of atoms:     932

     Orbital Basis Set                                            SZV-MOLOPT-GTH

       Number of orbital shell sets:                                           1
       Number of orbital shells:                                               1
       Number of primitive Cartesian functions:                                7
       Number of Cartesian basis functions:                                    1
       Number of spherical basis functions:                                    1
       Norm type:                                                              2

       Normalised Cartesian orbitals:

                        Set   Shell   Orbital            Exponent    Coefficient

                          1       1    2s               11.478000       0.129129
                                                         3.700759       0.177012
                                                         1.446884       0.141285
                                                         0.716815       0.245670
                                                         0.247919       0.094768
                                                         0.066918       0.004062
                                                         0.021708      -0.000053

       Atomic covalent radius [Angstrom]:                                  0.320

       Atomic van der Waals radius [Angstrom]:                             1.090

     GTH Potential information for                                    GTH-PBE-q1

       Description:                       Goedecker-Teter-Hutter pseudopotential
                                           Goedecker et al., PRB 54, 1703 (1996)
                                          Hartwigsen et al., PRB 58, 3641 (1998)
                                                      Krack, TCA 114, 145 (2005)

       Gaussian exponent of the core charge distribution:              12.500000
       Electronic configuration (s p d ...):                                   1

       Parameters of the local part of the GTH pseudopotential:

                          rloc        C1          C2          C3          C4
                        0.200000   -4.178900    0.724463

  6. Atomic kind: O                                     Number of atoms:     370

     Orbital Basis Set                                            SZV-MOLOPT-GTH

       Number of orbital shell sets:                                           1
       Number of orbital shells:                                               2
       Number of primitive Cartesian functions:                                7
       Number of Cartesian basis functions:                                    4
       Number of spherical basis functions:                                    4
       Norm type:                                                              2

       Normalised Cartesian orbitals:

                        Set   Shell   Orbital            Exponent    Coefficient

                          1       1    2s               12.015955      -0.284499
                                                         5.108150      -0.322498
                                                         2.048398       0.148191
                                                         0.832382       0.295475
                                                         0.352316       0.150829
                                                         0.142977       0.015788
                                                         0.046761      -0.000019

                          1       2    3px              12.015955       1.192141
                                                         5.108150       1.354170
                                                         2.048398       0.897267
                                                         0.832382       0.408839
                                                         0.352316       0.116648
                                                         0.142977       0.022184
                                                         0.046761       0.000308
                          1       2    3py              12.015955       1.192141
                                                         5.108150       1.354170
                                                         2.048398       0.897267
                                                         0.832382       0.408839
                                                         0.352316       0.116648
                                                         0.142977       0.022184
                                                         0.046761       0.000308
                          1       2    3pz              12.015955       1.192141
                                                         5.108150       1.354170
                                                         2.048398       0.897267
                                                         0.832382       0.408839
                                                         0.352316       0.116648
                                                         0.142977       0.022184
                                                         0.046761       0.000308

       Atomic covalent radius [Angstrom]:                                  0.730

       Atomic van der Waals radius [Angstrom]:                             1.520

     GTH Potential information for                                    GTH-PBE-q6

       Description:                       Goedecker-Teter-Hutter pseudopotential
                                           Goedecker et al., PRB 54, 1703 (1996)
                                          Hartwigsen et al., PRB 58, 3641 (1998)
                                                      Krack, TCA 114, 145 (2005)

       Gaussian exponent of the core charge distribution:               8.360253
       Electronic configuration (s p d ...):                               2   4

       Parameters of the local part of the GTH pseudopotential:

                          rloc        C1          C2          C3          C4
                        0.244554  -16.667215    2.487311

       Parameters of the non-local part of the GTH pseudopotential:

                   l      r(l)      h(i,j,l)

                   0    0.220956   18.337458
                   1    0.211332


 MOLECULE KIND INFORMATION


 All atoms are their own molecule, skipping detailed information


 TOTAL NUMBERS AND MAXIMUM NUMBERS

  Total number of            - Atomic kinds:                                   6
                             - Atoms:                                       1501
                             - Shell sets:                                  1501
                             - Shells:                                      2070
                             - Primitive Cartesian functions:              10237
                             - Cartesian basis functions:                   3208
                             - Spherical basis functions:                   3208

  Maximum angular momentum of- Orbital basis functions:                        1
                             - Local part of the GTH pseudopotential:          2
                             - Non-local part of the GTH pseudopotential:      4


 MODULE QUICKSTEP:  ATOMIC COORDINATES IN angstrom

  Atom  Kind  Element       X           Y           Z          Z(eff)       Mass

       1     1 I   53   11.345300   12.864658    8.190618      7.0000     126.9045
       2     1 I   53   17.837444   11.971476    8.278388      7.0000     126.9045
       3     1 I   53   24.239031   11.924233    8.484012      7.0000     126.9045
       4     1 I   53   12.888130   18.025493    8.043668      7.0000     126.9045
       5     1 I   53   18.103945   18.485211    8.296738      7.0000     126.9045
       6     1 I   53   23.449739   17.856800    8.416515      7.0000     126.9045
       7     1 I   53   12.033319   24.793034    8.403085      7.0000     126.9045
       8     1 I   53   18.875769   23.689696    8.431889      7.0000     126.9045
       9     1 I   53   23.774366   25.054447    8.776153      7.0000     126.9045
      10     1 I   53   11.329481    7.994785   12.599602      7.0000     126.9045
      11     1 I   53   17.987507    8.535810   11.446237      7.0000     126.9045
      12     1 I   53   24.131125    8.411102   11.522852      7.0000     126.9045
      13     1 I   53    8.442072   12.474389   11.415856      7.0000     126.9045
      14     1 I   53   11.673772   11.761930   14.738444      7.0000     126.9045
      15     1 I   53   12.038788   14.998056   11.975710      7.0000     126.9045
      16     1 I   53   14.761704   11.541706   11.398937      7.0000     126.9045
      17     1 I   53   17.938613   11.670100   14.683805      7.0000     126.9045
      18     1 I   53   18.347037   14.851905   11.649070      7.0000     126.9045
      19     1 I   53   21.137269   11.521630   11.365306      7.0000     126.9045
      20     1 I   53   24.545833   11.688041   14.803886      7.0000     126.9045
      21     1 I   53   24.259231   14.773854   11.871385      7.0000     126.9045
      22     1 I   53   27.720513   11.973551   11.464250      7.0000     126.9045
      23     1 I   53    9.097632   18.243772   12.074620      7.0000     126.9045
      24     1 I   53   11.817849   18.070141   14.800007      7.0000     126.9045
      25     1 I   53   12.252457   21.327214   11.509301      7.0000     126.9045
      26     1 I   53   15.284122   17.860158   11.881322      7.0000     126.9045
      27     1 I   53   18.315155   17.993657   14.722405      7.0000     126.9045
      28     1 I   53   17.803546   21.227348   11.930648      7.0000     126.9045
      29     1 I   53   21.698129   18.525822   11.443447      7.0000     126.9045
      30     1 I   53   24.442253   18.090643   14.638968      7.0000     126.9045
      31     1 I   53   25.883822   21.049746   11.145838      7.0000     126.9045
      32     1 I   53   28.677653   17.707939   12.599180      7.0000     126.9045
      33     1 I   53    8.787172   24.429214   11.165135      7.0000     126.9045
      34     1 I   53   11.741054   24.193091   14.848281      7.0000     126.9045
      35     1 I   53   11.943062   27.798329   12.072346      7.0000     126.9045
      36     1 I   53   15.513101   25.036476   11.523803      7.0000     126.9045
      37     1 I   53   18.257413   24.402777   14.814909      7.0000     126.9045
      38     1 I   53   18.908183   29.501445   12.644033      7.0000     126.9045
      39     1 I   53   21.810673   23.293613   12.226385      7.0000     126.9045
      40     1 I   53   25.220867   24.365776   14.922926      7.0000     126.9045
      41     1 I   53   24.674084   27.764827   12.109867      7.0000     126.9045
      42     1 I   53   28.009643   24.701524   11.212274      7.0000     126.9045
      43     1 I   53   11.539521    8.227233   17.709921      7.0000     126.9045
      44     1 I   53   18.007345    8.083332   18.138896      7.0000     126.9045
      45     1 I   53   25.145120    8.469972   17.667315      7.0000     126.9045
      46     1 I   53    8.921993   12.407541   17.909492      7.0000     126.9045
      47     1 I   53   11.698013   11.403791   21.184938      7.0000     126.9045
      48     1 I   53   12.287460   14.930456   18.070598      7.0000     126.9045
      49     1 I   53   15.002327   11.672642   17.734952      7.0000     126.9045
      50     1 I   53   18.211829   12.017818   21.072987      7.0000     126.9045
      51     1 I   53   18.323744   14.824430   17.958036      7.0000     126.9045
      52     1 I   53   21.403320   11.377285   17.518728      7.0000     126.9045
      53     1 I   53   24.317110   12.123050   20.961545      7.0000     126.9045
      54     1 I   53   24.871101   14.796108   17.755547      7.0000     126.9045
      55     1 I   53   28.104930   12.047347   18.313157      7.0000     126.9045
      56     1 I   53    8.862990   17.944206   17.909298      7.0000     126.9045
      57     1 I   53   12.025083   18.054839   21.168685      7.0000     126.9045
      58     1 I   53   11.829499   21.425944   18.095992      7.0000     126.9045
      59     1 I   53   15.249432   18.336855   17.693578      7.0000     126.9045
      60     1 I   53   18.375302   18.032486   21.141548      7.0000     126.9045
      61     1 I   53   18.324401   21.464826   18.148254      7.0000     126.9045
      62     1 I   53   21.625157   17.750571   17.830153      7.0000     126.9045
      63     1 I   53   24.556490   17.976525   21.090039      7.0000     126.9045
      64     1 I   53   24.439224   21.222389   17.952841      7.0000     126.9045
      65     1 I   53   28.053672   18.256302   17.653982      7.0000     126.9045
      66     1 I   53    8.531834   24.393629   18.091774      7.0000     126.9045
      67     1 I   53   12.390456   24.139676   21.326007      7.0000     126.9045
      68     1 I   53   11.891549   28.549626   18.691080      7.0000     126.9045
      69     1 I   53   15.134726   24.883855   17.714831      7.0000     126.9045
      70     1 I   53   18.124167   24.505392   21.243836      7.0000     126.9045
      71     1 I   53   18.776115   28.265269   17.798557      7.0000     126.9045
      72     1 I   53   21.769784   24.640510   17.724858      7.0000     126.9045
      73     1 I   53   24.956506   23.912461   21.233422      7.0000     126.9045
      74     1 I   53   25.159877   27.598417   18.012816      7.0000     126.9045
      75     1 I   53   28.734237   24.108878   18.539348      7.0000     126.9045
      76     1 I   53   12.069655    8.157785   22.683242      7.0000     126.9045
      77     1 I   53   19.192018    8.408121   23.615637      7.0000     126.9045
      78     1 I   53   23.839284    8.125456   24.870882      7.0000     126.9045
      79     1 I   53    9.250309   13.101924   24.504268      7.0000     126.9045
      80     1 I   53   11.956976   11.417034   27.609757      7.0000     126.9045
      81     1 I   53   13.358546   14.670059   23.837392      7.0000     126.9045
      82     1 I   53   15.423729   11.205992   24.383281      7.0000     126.9045
      83     1 I   53   19.237862   11.480011   27.463823      7.0000     126.9045
      84     1 I   53   18.324825   14.898479   24.445350      7.0000     126.9045
      85     1 I   53   21.744696   12.212432   23.813826      7.0000     126.9045
      86     1 I   53   24.500579   11.858479   27.914404      7.0000     126.9045
      87     1 I   53   25.050130   14.703931   24.683300      7.0000     126.9045
      88     1 I   53   27.642262   11.551286   23.695452      7.0000     126.9045
      89     1 I   53    9.444728   17.249718   24.424364      7.0000     126.9045
      90     1 I   53   13.375698   17.298389   27.339360      7.0000     126.9045
      91     1 I   53   11.615071   20.898458   24.879951      7.0000     126.9045
      92     1 I   53   15.510554   18.590790   23.924916      7.0000     126.9045
      93     1 I   53   18.814218   18.258264   27.788909      7.0000     126.9045
      94     1 I   53   18.500304   21.272083   24.405379      7.0000     126.9045
      95     1 I   53   21.830258   17.908931   24.214171      7.0000     126.9045
      96     1 I   53   25.146182   17.922038   27.625437      7.0000     126.9045
      97     1 I   53   25.279244   21.134242   24.413243      7.0000     126.9045
      98     1 I   53   28.265215   17.803351   23.698022      7.0000     126.9045
      99     1 I   53    8.617999   24.114604   23.606834      7.0000     126.9045
     100     1 I   53   11.594723   23.986292   27.735077      7.0000     126.9045
     101     1 I   53   12.644390   27.508790   24.578836      7.0000     126.9045
     102     1 I   53   15.272179   23.961938   24.799166      7.0000     126.9045
     103     1 I   53   19.269039   23.871740   27.629334      7.0000     126.9045
     104     1 I   53   19.767735   27.709997   24.074051      7.0000     126.9045
     105     1 I   53   21.717655   23.748541   23.741903      7.0000     126.9045
     106     1 I   53   24.904748   24.047796   27.907101      7.0000     126.9045
     107     1 I   53   24.246344   27.617771   25.140805      7.0000     126.9045
     108     1 I   53   27.774045   24.919810   24.439104      7.0000     126.9045
     109     2 Pb  82   11.549422   12.135601   11.183563      4.0000     207.2000
     110     2 Pb  82   18.010526   11.647771   11.369304      4.0000     207.2000
     111     2 Pb  82   24.702288   11.726474   11.525531      4.0000     207.2000
     112     2 Pb  82   12.266947   18.250644   11.068790      4.0000     207.2000
     113     2 Pb  82   18.460612   18.057669   11.377745      4.0000     207.2000
     114     2 Pb  82   25.862162   17.974462   11.219875      4.0000     207.2000
     115     2 Pb  82   12.344734   24.741233   11.510288      4.0000     207.2000
     116     2 Pb  82   18.774840   24.144940   11.484368      4.0000     207.2000
     117     2 Pb  82   24.904475   24.613272   11.628504      4.0000     207.2000
     118     2 Pb  82   11.847925   11.232197   17.850645      4.0000     207.2000
     119     2 Pb  82   18.335987   11.355251   17.969228      4.0000     207.2000
     120     2 Pb  82   25.133538   11.673499   18.058236      4.0000     207.2000
     121     2 Pb  82   12.079367   17.955004   17.962139      4.0000     207.2000
     122     2 Pb  82   18.498437   17.984622   18.002019      4.0000     207.2000
     123     2 Pb  82   24.901478   18.089938   17.801762      4.0000     207.2000
     124     2 Pb  82   11.993443   24.561669   18.032978      4.0000     207.2000
     125     2 Pb  82   18.609743   24.653370   18.023638      4.0000     207.2000
     126     2 Pb  82   25.556237   24.388048   18.209405      4.0000     207.2000
     127     2 Pb  82   12.086053   11.871659   24.437177      4.0000     207.2000
     128     2 Pb  82   18.771865   11.426321   24.277956      4.0000     207.2000
     129     2 Pb  82   24.781625   11.664004   24.826464      4.0000     207.2000
     130     2 Pb  82   12.537906   17.869560   24.492313      4.0000     207.2000
     131     2 Pb  82   18.740321   17.998359   24.715645      4.0000     207.2000
     132     2 Pb  82   25.201703   18.001110   24.401593      4.0000     207.2000
     133     2 Pb  82   12.205033   24.409919   24.482193      4.0000     207.2000
     134     2 Pb  82   18.811038   24.479506   24.409753      4.0000     207.2000
     135     2 Pb  82   24.756234   24.459234   24.860432      4.0000     207.2000
     136     3 C    6   14.788453   14.550876    8.589516      4.0000      12.0107
     137     3 C    6   20.730055   14.837875    8.470626      4.0000      12.0107
     138     3 C    6   14.764639   21.578631    8.271821      4.0000      12.0107
     139     3 C    6   21.498846   21.055318    8.242846      4.0000      12.0107
     140     3 C    6   14.799702    8.730746   14.488177      4.0000      12.0107
     141     3 C    6   20.981171    8.544013   14.250521      4.0000      12.0107
     142     3 C    6    8.570271   14.949780   14.479641      4.0000      12.0107
     143     3 C    6   14.853782   14.836627   14.587870      4.0000      12.0107
     144     3 C    6   21.019303   14.739984   14.576809      4.0000      12.0107
     145     3 C    6   27.619741   14.332946   14.546427      4.0000      12.0107
     146     3 C    6    8.549983   21.254229   14.490453      4.0000      12.0107
     147     3 C    6   14.853371   21.066589   14.595841      4.0000      12.0107
     148     3 C    6   20.899033   20.934464   15.132641      4.0000      12.0107
     149     3 C    6   27.211431   21.341627   14.806335      4.0000      12.0107
     150     3 C    6   14.984794   27.451708   14.576218      4.0000      12.0107
     151     3 C    6   21.492709   26.740287   14.226147      4.0000      12.0107
     152     3 C    6   15.276572    9.228122   20.799217      4.0000      12.0107
     153     3 C    6   22.184174    8.841649   20.456136      4.0000      12.0107
     154     3 C    6    8.814371   15.057809   20.898746      4.0000      12.0107
     155     3 C    6   15.122318   14.983961   20.443787      4.0000      12.0107
     156     3 C    6   21.224948   14.961356   20.877514      4.0000      12.0107
     157     3 C    6   27.809860   14.824816   21.015393      4.0000      12.0107
     158     3 C    6    8.963244   21.050805   21.017865      4.0000      12.0107
     159     3 C    6   15.118786   21.154767   20.872708      4.0000      12.0107
     160     3 C    6   21.239368   21.041772   20.889973      4.0000      12.0107
     161     3 C    6   27.452839   20.749532   20.930381      4.0000      12.0107
     162     3 C    6   15.132044   26.940000   21.351477      4.0000      12.0107
     163     3 C    6   21.711053   27.147321   20.730559      4.0000      12.0107
     164     3 C    6   15.906847   14.042816   27.346175      4.0000      12.0107
     165     3 C    6   21.526280   14.854823   27.043401      4.0000      12.0107
     166     3 C    6   15.007504   21.039914   27.458971      4.0000      12.0107
     167     3 C    6   22.006267   20.959000   26.848687      4.0000      12.0107
     168     4 N    7   16.108743   15.361093    8.497707      5.0000      14.0067
     169     4 N    7   22.220699   14.736340    8.921311      5.0000      14.0067
     170     4 N    7   16.214045   21.362298    8.802354      5.0000      14.0067
     171     4 N    7   22.768393   21.461065    9.035519      5.0000      14.0067
     172     4 N    7   16.214664    8.337223   15.012265      5.0000      14.0067
     173     4 N    7   22.320627    8.644063   15.027466      5.0000      14.0067
     174     4 N    7    9.993099   14.853275   15.134052      5.0000      14.0067
     175     4 N    7   16.325914   14.844114   15.121443      5.0000      14.0067
     176     4 N    7   22.442827   14.744524   15.238903      5.0000      14.0067
     177     4 N    7   28.357491   14.931242   15.776484      5.0000      14.0067
     178     4 N    7   10.007674   21.056986   15.017233      5.0000      14.0067
     179     4 N    7   16.325128   21.052944   15.136192      5.0000      14.0067
     180     4 N    7   22.453427   21.056612   15.012745      5.0000      14.0067
     181     4 N    7   28.455527   20.427136   14.993526      5.0000      14.0067
     182     4 N    7   16.534942   27.360401   14.804482      5.0000      14.0067
     183     4 N    7   22.747994   26.832570   15.144645      5.0000      14.0067
     184     4 N    7   16.015434    8.246333   21.747594      5.0000      14.0067
     185     4 N    7   23.378975    8.231151   21.227253      5.0000      14.0067
     186     4 N    7   10.215422   14.842372   21.559579      5.0000      14.0067
     187     4 N    7   16.326872   15.045738   21.444681      5.0000      14.0067
     188     4 N    7   22.628793   15.058436   21.565217      5.0000      14.0067
     189     4 N    7   29.294961   14.960557   21.448948      5.0000      14.0067
     190     4 N    7   10.420456   21.153298   21.561929      5.0000      14.0067
     191     4 N    7   16.529549   21.159270   21.550996      5.0000      14.0067
     192     4 N    7   22.653574   20.949893   21.562516      5.0000      14.0067
     193     4 N    7   28.238417   21.135802   22.225436      5.0000      14.0067
     194     4 N    7   16.326572   27.855489   21.782548      5.0000      14.0067
     195     4 N    7   22.848431   26.645810   21.666159      5.0000      14.0067
     196     4 N    7   17.044840   14.943464   27.898128      5.0000      14.0067
     197     4 N    7   22.647496   15.155092   28.089053      5.0000      14.0067
     198     4 N    7   16.412145   21.461376   27.993278      5.0000      14.0067
     199     4 N    7   23.047590   20.847247   28.000786      5.0000      14.0067
     200     5 H    1   14.122079   14.920582    7.855335      1.0000       1.0079
     201     5 H    1   14.366776   14.671400    9.555045      1.0000       1.0079
     202     5 H    1   15.015474   13.531106    8.411646      1.0000       1.0079
     203     5 H    1   15.938368   16.346905    8.737061      1.0000       1.0079
     204     5 H    1   16.536781   15.327903    7.415801      1.0000       1.0079
     205     5 H    1   16.800175   14.986229    9.161671      1.0000       1.0079
     206     5 H    1   20.709215   14.973440    7.415776      1.0000       1.0079
     207     5 H    1   20.303178   15.678559    8.958861      1.0000       1.0079
     208     5 H    1   20.231638   13.943983    8.752840      1.0000       1.0079
     209     5 H    1   22.732599   15.598745    8.609736      1.0000       1.0079
     210     5 H    1   22.700492   13.893049    8.526123      1.0000       1.0079
     211     5 H    1   22.303228   14.679736    9.955465      1.0000       1.0079
     212     5 H    1   14.810903   21.559972    7.211711      1.0000       1.0079
     213     5 H    1   14.422886   22.517197    8.633680      1.0000       1.0079
     214     5 H    1   14.157197   20.787666    8.637086      1.0000       1.0079
     215     5 H    1   16.857045   22.104514    8.438079      1.0000       1.0079
     216     5 H    1   16.603760   20.433124    8.503603      1.0000       1.0079
     217     5 H    1   16.256851   21.396170    9.842796      1.0000       1.0079
     218     5 H    1   21.427460   21.688029    7.396958      1.0000       1.0079
     219     5 H    1   20.652204   21.172136    8.869845      1.0000       1.0079
     220     5 H    1   21.601646   20.043652    7.947656      1.0000       1.0079
     221     5 H    1   22.648661   22.411402    9.422393      1.0000       1.0079
     222     5 H    1   23.701958   21.478174    8.394704      1.0000       1.0079
     223     5 H    1   22.913547   20.812322    9.824063      1.0000       1.0079
     224     5 H    1   14.856081    8.864335   13.437201      1.0000       1.0079
     225     5 H    1   14.504887    9.634147   14.962725      1.0000       1.0079
     226     5 H    1   14.132450    7.942423   14.732459      1.0000       1.0079
     227     5 H    1   16.866295    9.124942   14.849970      1.0000       1.0079
     228     5 H    1   16.637782    7.424065   14.540684      1.0000       1.0079
     229     5 H    1   16.178858    8.153817   16.029225      1.0000       1.0079
     230     5 H    1   21.188793    8.177698   13.279853      1.0000       1.0079
     231     5 H    1   20.535994    9.506031   14.184996      1.0000       1.0079
     232     5 H    1   20.341069    7.874292   14.769206      1.0000       1.0079
     233     5 H    1   22.990174    9.235599   14.516814      1.0000       1.0079
     234     5 H    1   22.803570    7.583509   15.195565      1.0000       1.0079
     235     5 H    1   22.155928    9.095632   15.939002      1.0000       1.0079
     236     5 H    1    8.699429   15.007403   13.426288      1.0000       1.0079
     237     5 H    1    8.097694   15.823992   14.857791      1.0000       1.0079
     238     5 H    1    8.022894   14.081792   14.750265      1.0000       1.0079
     239     5 H    1   10.571705   15.678132   14.858549      1.0000       1.0079
     240     5 H    1   10.490865   13.973904   14.844792      1.0000       1.0079
     241     5 H    1    9.922618   14.833913   16.170229      1.0000       1.0079
     242     5 H    1   14.895669   14.823706   13.526243      1.0000       1.0079
     243     5 H    1   14.375129   15.717808   14.939827      1.0000       1.0079
     244     5 H    1   14.377555   13.962388   14.962146      1.0000       1.0079
     245     5 H    1   16.854326   15.661653   14.743515      1.0000       1.0079
     246     5 H    1   16.817241   13.958803   14.844472      1.0000       1.0079
     247     5 H    1   16.370235   14.898172   16.161325      1.0000       1.0079
     248     5 H    1   21.151157   14.788880   13.523576      1.0000       1.0079
     249     5 H    1   20.495324   15.591387   14.940253      1.0000       1.0079
     250     5 H    1   20.531615   13.837163   14.857791      1.0000       1.0079
     251     5 H    1   22.981511   15.590736   14.948597      1.0000       1.0079
     252     5 H    1   22.990018   13.893669   14.965573      1.0000       1.0079
     253     5 H    1   22.371282   14.757758   16.275549      1.0000       1.0079
     254     5 H    1   28.124393   14.648475   13.669499      1.0000       1.0079
     255     5 H    1   26.615300   14.673850   14.530907      1.0000       1.0079
     256     5 H    1   27.651443   13.275248   14.624605      1.0000       1.0079
     257     5 H    1   28.314996   15.960938   15.764676      1.0000       1.0079
     258     5 H    1   29.463478   14.607655   15.744854      1.0000       1.0079
     259     5 H    1   27.919714   14.594038   16.644936      1.0000       1.0079
     260     5 H    1    8.591973   21.248734   13.428028      1.0000       1.0079
     261     5 H    1    8.186422   22.184043   14.856940      1.0000       1.0079
     262     5 H    1    7.963179   20.443384   14.849795      1.0000       1.0079
     263     5 H    1   10.636763   21.810331   14.648994      1.0000       1.0079
     264     5 H    1   10.402093   20.121829   14.737045      1.0000       1.0079
     265     5 H    1   10.066167   21.112128   16.058866      1.0000       1.0079
     266     5 H    1   14.898358   21.062038   13.533808      1.0000       1.0079
     267     5 H    1   14.382726   21.949298   14.957342      1.0000       1.0079
     268     5 H    1   14.369118   20.192769   14.959556      1.0000       1.0079
     269     5 H    1   16.860282   21.862327   14.756526      1.0000       1.0079
     270     5 H    1   16.814900   20.170150   14.854339      1.0000       1.0079
     271     5 H    1   16.356013   21.109732   16.176583      1.0000       1.0079
     272     5 H    1   20.521636   20.645595   14.182729      1.0000       1.0079
     273     5 H    1   20.519185   21.884275   15.420318      1.0000       1.0079
     274     5 H    1   20.690082   20.195737   15.865665      1.0000       1.0079
     275     5 H    1   22.679078   21.775978   14.292589      1.0000       1.0079
     276     5 H    1   22.888331   20.141534   14.735501      1.0000       1.0079
     277     5 H    1   22.884078   21.331398   15.929480      1.0000       1.0079
     278     5 H    1   27.390406   21.991266   13.986744      1.0000       1.0079
     279     5 H    1   27.069949   21.883749   15.706486      1.0000       1.0079
     280     5 H    1   26.368856   20.726059   14.611102      1.0000       1.0079
     281     5 H    1   29.300751   21.022611   15.311552      1.0000       1.0079
     282     5 H    1   28.664657   19.903188   14.122756      1.0000       1.0079
     283     5 H    1   28.270238   19.720842   15.745021      1.0000       1.0079
     284     5 H    1   14.795862   27.247921   13.550217      1.0000       1.0079
     285     5 H    1   14.662331   28.425685   14.849121      1.0000       1.0079
     286     5 H    1   14.528305   26.711030   15.189548      1.0000       1.0079
     287     5 H    1   17.056486   27.910760   14.092184      1.0000       1.0079
     288     5 H    1   16.868799   26.356764   14.740668      1.0000       1.0079
     289     5 H    1   16.805769   27.709752   15.749788      1.0000       1.0079
     290     5 H    1   21.719156   27.220430   13.307459      1.0000       1.0079
     291     5 H    1   20.685714   27.207542   14.729782      1.0000       1.0079
     292     5 H    1   21.283666   25.709421   14.070841      1.0000       1.0079
     293     5 H    1   23.050299   27.824700   15.291585      1.0000       1.0079
     294     5 H    1   23.546588   26.283767   14.747659      1.0000       1.0079
     295     5 H    1   22.517397   26.375233   16.065695      1.0000       1.0079
     296     5 H    1   15.737470    9.176587   19.847542      1.0000       1.0079
     297     5 H    1   15.341225   10.211318   21.187333      1.0000       1.0079
     298     5 H    1   14.264965    8.923932   20.730730      1.0000       1.0079
     299     5 H    1   17.023598    8.445959   21.735366      1.0000       1.0079
     300     5 H    1   15.845026    7.199273   21.388049      1.0000       1.0079
     301     5 H    1   15.696675    8.342944   22.749137      1.0000       1.0079
     302     5 H    1   22.305100    8.636348   19.423702      1.0000       1.0079
     303     5 H    1   22.161939    9.890518   20.614472      1.0000       1.0079
     304     5 H    1   21.290719    8.405191   20.826622      1.0000       1.0079
     305     5 H    1   24.320993    8.690754   21.043921      1.0000       1.0079
     306     5 H    1   23.542154    7.147102   20.969347      1.0000       1.0079
     307     5 H    1   23.209159    8.295216   22.236838      1.0000       1.0079
     308     5 H    1    8.967710   15.235970   19.862611      1.0000       1.0079
     309     5 H    1    8.366327   15.893086   21.377988      1.0000       1.0079
     310     5 H    1    8.243429   14.174827   21.050766      1.0000       1.0079
     311     5 H    1   10.783652   15.719545   21.505805      1.0000       1.0079
     312     5 H    1   10.730970   14.073793   21.080177      1.0000       1.0079
     313     5 H    1   10.085445   14.567902   22.564929      1.0000       1.0079
     314     5 H    1   15.523753   15.003129   19.461625      1.0000       1.0079
     315     5 H    1   14.503984   15.828741   20.620469      1.0000       1.0079
     316     5 H    1   14.598818   14.076923   20.619285      1.0000       1.0079
     317     5 H    1   16.892789   15.917392   21.301684      1.0000       1.0079
     318     5 H    1   16.953427   14.214935   21.299576      1.0000       1.0079
     319     5 H    1   15.987321   15.031132   22.425280      1.0000       1.0079
     320     5 H    1   21.376401   14.977923   19.826961      1.0000       1.0079
     321     5 H    1   20.647055   15.799095   21.184137      1.0000       1.0079
     322     5 H    1   20.772486   14.048698   21.181158      1.0000       1.0079
     323     5 H    1   23.129930   15.938648   21.288975      1.0000       1.0079
     324     5 H    1   23.215915   14.229726   21.292542      1.0000       1.0079
     325     5 H    1   22.522716   15.056507   22.596369      1.0000       1.0079
     326     5 H    1   27.772607   14.830671   19.956810      1.0000       1.0079
     327     5 H    1   27.261499   15.642188   21.411630      1.0000       1.0079
     328     5 H    1   27.428788   13.905960   21.385506      1.0000       1.0079
     329     5 H    1   29.647255   15.929385   21.170626      1.0000       1.0079
     330     5 H    1   29.959861   14.244743   20.923071      1.0000       1.0079
     331     5 H    1   29.381013   14.833446   22.464365      1.0000       1.0079
     332     5 H    1    9.018038   21.044286   19.956684      1.0000       1.0079
     333     5 H    1    8.432123   21.900592   21.367721      1.0000       1.0079
     334     5 H    1    8.537300   20.150826   21.387725      1.0000       1.0079
     335     5 H    1   10.897631   22.014810   21.203164      1.0000       1.0079
     336     5 H    1   10.975434   20.308603   21.275615      1.0000       1.0079
     337     5 H    1   10.451734   21.194800   22.608509      1.0000       1.0079
     338     5 H    1   15.265961   21.158376   19.820594      1.0000       1.0079
     339     5 H    1   14.604249   22.031414   21.183412      1.0000       1.0079
     340     5 H    1   14.611420   20.273216   21.179592      1.0000       1.0079
     341     5 H    1   17.061655   22.016214   21.276678      1.0000       1.0079
     342     5 H    1   17.078348   20.309532   21.276711      1.0000       1.0079
     343     5 H    1   16.453708   21.150832   22.589188      1.0000       1.0079
     344     5 H    1   21.381447   21.093594   19.837921      1.0000       1.0079
     345     5 H    1   20.761979   21.916952   21.259149      1.0000       1.0079
     346     5 H    1   20.698316   20.166770   21.159846      1.0000       1.0079
     347     5 H    1   23.254494   21.757567   21.281532      1.0000       1.0079
     348     5 H    1   23.143263   20.058272   21.291817      1.0000       1.0079
     349     5 H    1   22.562825   20.969320   22.596422      1.0000       1.0079
     350     5 H    1   28.123659   20.248509   20.278361      1.0000       1.0079
     351     5 H    1   27.084553   21.642340   20.492136      1.0000       1.0079
     352     5 H    1   26.651820   20.105390   21.193705      1.0000       1.0079
     353     5 H    1   29.136388   21.676488   21.927332      1.0000       1.0079
     354     5 H    1   28.491526   20.264249   22.738152      1.0000       1.0079
     355     5 H    1   27.635477   21.706116   22.843244      1.0000       1.0079
     356     5 H    1   15.181642   26.802227   20.298817      1.0000       1.0079
     357     5 H    1   14.226310   27.419444   21.623856      1.0000       1.0079
     358     5 H    1   15.222560   26.005755   21.846335      1.0000       1.0079
     359     5 H    1   16.209537   28.799171   21.259764      1.0000       1.0079
     360     5 H    1   17.211388   27.402104   21.502971      1.0000       1.0079
     361     5 H    1   16.344270   27.970042   22.830180      1.0000       1.0079
     362     5 H    1   22.080790   27.150259   19.736401      1.0000       1.0079
     363     5 H    1   21.431489   28.118371   21.052147      1.0000       1.0079
     364     5 H    1   20.889583   26.479152   20.822072      1.0000       1.0079
     365     5 H    1   23.723508   27.283648   21.618900      1.0000       1.0079
     366     5 H    1   23.160930   25.688205   21.399245      1.0000       1.0079
     367     5 H    1   22.500305   26.611659   22.640094      1.0000       1.0079
     368     5 H    1   16.189516   13.658330   26.399143      1.0000       1.0079
     369     5 H    1   15.034833   14.643279   27.256288      1.0000       1.0079
     370     5 H    1   15.746831   13.261197   28.043267      1.0000       1.0079
     371     5 H    1   17.250411   15.717191   27.252258      1.0000       1.0079
     372     5 H    1   17.915925   14.409273   28.052746      1.0000       1.0079
     373     5 H    1   16.729567   15.375612   28.897787      1.0000       1.0079
     374     5 H    1   21.965843   14.430949   26.175080      1.0000       1.0079
     375     5 H    1   21.046843   15.772563   26.811929      1.0000       1.0079
     376     5 H    1   20.841712   14.173570   27.486809      1.0000       1.0079
     377     5 H    1   23.372846   15.777212   27.683967      1.0000       1.0079
     378     5 H    1   23.106005   14.275519   28.387574      1.0000       1.0079
     379     5 H    1   22.206653   15.678039   28.945635      1.0000       1.0079
     380     5 H    1   15.121670   20.583937   26.506475      1.0000       1.0079
     381     5 H    1   14.404279   21.909343   27.382266      1.0000       1.0079
     382     5 H    1   14.584905   20.352235   28.149440      1.0000       1.0079
     383     5 H    1   16.903073   22.026744   27.283424      1.0000       1.0079
     384     5 H    1   16.980073   20.617360   28.172625      1.0000       1.0079
     385     5 H    1   16.292546   22.092414   28.945208      1.0000       1.0079
     386     5 H    1   22.520814   21.085064   25.931356      1.0000       1.0079
     387     5 H    1   21.383990   21.797167   27.041591      1.0000       1.0079
     388     5 H    1   21.431419   20.067556   26.834620      1.0000       1.0079
     389     5 H    1   23.621890   21.709825   28.050707      1.0000       1.0079
     390     5 H    1   23.672779   20.033142   27.841255      1.0000       1.0079
     391     5 H    1   22.502718   20.713127   28.954858      1.0000       1.0079
     392     5 H    1    5.392939   11.607655    7.339038      1.0000       1.0079
     393     6 O    8    6.215439   12.167683    7.322177      6.0000      15.9994
     394     5 H    1    6.198130   13.544174    7.435788      1.0000       1.0079
     395     5 H    1    5.079585    9.300034   12.086482      1.0000       1.0079
     396     6 O    8    6.045164    9.550771   12.133392      6.0000      15.9994
     397     5 H    1    6.212284   10.143595   12.977450      1.0000       1.0079
     398     5 H    1    6.129636   11.611202   15.341095      1.0000       1.0079
     399     6 O    8    6.688990   11.082067   14.227123      6.0000      15.9994
     400     5 H    1    6.996095   11.852871   13.648977      1.0000       1.0079
     401     5 H    1    5.735486   13.321059   16.603936      1.0000       1.0079
     402     6 O    8    5.736696   12.067546   16.288010      6.0000      15.9994
     403     5 H    1    5.822683   11.444722   17.066240      1.0000       1.0079
     404     5 H    1    6.338693   10.608452   20.797486      1.0000       1.0079
     405     6 O    8    6.888257   10.368886   19.895894      6.0000      15.9994
     406     5 H    1    7.528522   11.088116   19.609874      1.0000       1.0079
     407     5 H    1    4.626845   10.635254   21.942061      1.0000       1.0079
     408     6 O    8    5.584498   10.917926   21.945923      6.0000      15.9994
     409     5 H    1    5.947003   10.986196   22.958035      1.0000       1.0079
     410     5 H    1    5.995766   11.850543   24.943710      1.0000       1.0079
     411     6 O    8    6.474610   11.083809   24.333077      6.0000      15.9994
     412     5 H    1    7.433132   11.413488   24.273316      1.0000       1.0079
     413     5 H    1    5.483830   11.321280   28.932384      1.0000       1.0079
     414     6 O    8    6.359643   11.799336   28.992016      6.0000      15.9994
     415     5 H    1    6.290135   12.824132   28.575037      1.0000       1.0079
     416     5 H    1    5.483796   15.456624    7.631988      1.0000       1.0079
     417     6 O    8    6.366637   14.639452    7.473330      6.0000      15.9994
     418     5 H    1    7.084016   14.941160    8.309115      1.0000       1.0079
     419     5 H    1    5.907177   15.028197   12.064894      1.0000       1.0079
     420     6 O    8    5.847840   14.234549   12.796199      6.0000      15.9994
     421     5 H    1    5.232570   13.537773   12.415392      1.0000       1.0079
     422     5 H    1    5.927720   14.779823   17.842695      1.0000       1.0079
     423     6 O    8    5.744233   14.434315   16.891436      6.0000      15.9994
     424     5 H    1    5.672474   15.317261   16.198991      1.0000       1.0079
     425     5 H    1    4.855593   13.629414   25.270093      1.0000       1.0079
     426     6 O    8    5.536563   13.016055   25.667564      6.0000      15.9994
     427     5 H    1    5.919164   13.446373   26.576291      1.0000       1.0079
     428     5 H    1    5.813387   14.893191   28.098359      1.0000       1.0079
     429     6 O    8    6.370439   14.033986   27.883056      6.0000      15.9994
     430     5 H    1    7.445996   14.389579   27.898709      1.0000       1.0079
     431     5 H    1    5.029570   17.469548    8.193444      1.0000       1.0079
     432     6 O    8    4.703606   16.366250    7.921053      6.0000      15.9994
     433     5 H    1    3.951449   16.071134    8.507789      1.0000       1.0079
     434     5 H    1    5.760870   17.038367   11.173152      1.0000       1.0079
     435     6 O    8    5.958119   16.061727   11.022983      6.0000      15.9994
     436     5 H    1    6.718510   15.920173   10.302622      1.0000       1.0079
     437     5 H    1    5.511484   16.461389   14.567706      1.0000       1.0079
     438     6 O    8    5.638887   16.474127   15.558279      6.0000      15.9994
     439     5 H    1    5.381451   17.424887   16.047617      1.0000       1.0079
     440     5 H    1    5.548420   16.470960   19.379673      1.0000       1.0079
     441     6 O    8    6.264510   15.866758   19.015090      6.0000      15.9994
     442     5 H    1    7.040183   16.456971   18.713288      1.0000       1.0079
     443     5 H    1    6.161596   17.881894   25.382543      1.0000       1.0079
     444     6 O    8    5.854351   16.884265   25.437928      6.0000      15.9994
     445     5 H    1    6.540842   16.331830   24.957977      1.0000       1.0079
     446     5 H    1    5.179814   17.367834   28.368706      1.0000       1.0079
     447     6 O    8    5.435573   16.468177   27.987568      6.0000      15.9994
     448     5 H    1    5.574303   16.610774   26.959564      1.0000       1.0079
     449     5 H    1    5.268490   19.614258    8.327027      1.0000       1.0079
     450     6 O    8    5.356324   18.589140    8.643859      6.0000      15.9994
     451     5 H    1    5.580513   18.635517    9.652605      1.0000       1.0079
     452     5 H    1    5.686783   20.051761   11.302586      1.0000       1.0079
     453     6 O    8    5.853179   19.018244   11.245937      6.0000      15.9994
     454     5 H    1    6.811165   18.873649   11.540871      1.0000       1.0079
     455     5 H    1    4.248807   19.126574   16.307067      1.0000       1.0079
     456     6 O    8    5.016915   18.613041   16.681948      6.0000      15.9994
     457     5 H    1    5.389898   19.078892   17.600840      1.0000       1.0079
     458     5 H    1    5.953333   20.656058   19.075462      1.0000       1.0079
     459     6 O    8    5.956309   19.625133   18.785920      6.0000      15.9994
     460     5 H    1    6.906820   19.289388   18.830322      1.0000       1.0079
     461     5 H    1    6.672727   20.301807   25.302115      1.0000       1.0079
     462     6 O    8    6.891333   19.320719   25.550882      6.0000      15.9994
     463     5 H    1    7.874935   19.155830   25.401712      1.0000       1.0079
     464     5 H    1    5.409389   20.295209   28.116892      1.0000       1.0079
     465     6 O    8    5.848923   19.324869   28.210571      6.0000      15.9994
     466     5 H    1    6.367631   19.206695   27.342911      1.0000       1.0079
     467     5 H    1    5.529329   21.912893    7.968394      1.0000       1.0079
     468     6 O    8    5.229309   21.059632    8.474615      6.0000      15.9994
     469     5 H    1    5.298581   21.291780    9.471080      1.0000       1.0079
     470     5 H    1    5.214151   22.477899   11.603861      1.0000       1.0079
     471     6 O    8    5.754846   21.657728   11.135584      6.0000      15.9994
     472     5 H    1    6.709051   21.962169   11.068909      1.0000       1.0079
     473     5 H    1    5.996260   22.614600   20.306563      1.0000       1.0079
     474     6 O    8    6.166244   22.070507   19.439629      6.0000      15.9994
     475     5 H    1    6.776517   22.626785   18.856453      1.0000       1.0079
     476     5 H    1    5.587003   22.094444   24.390036      1.0000       1.0079
     477     6 O    8    6.363581   21.869403   24.989302      6.0000      15.9994
     478     5 H    1    7.125811   22.509239   24.738341      1.0000       1.0079
     479     5 H    1    4.841362   22.546484   28.179020      1.0000       1.0079
     480     6 O    8    5.023415   21.664209   27.651670      6.0000      15.9994
     481     5 H    1    5.570131   21.890386   26.833995      1.0000       1.0079
     482     5 H    1    5.621712   24.047144    8.478709      1.0000       1.0079
     483     6 O    8    6.059238   23.496437    7.705513      6.0000      15.9994
     484     5 H    1    7.060449   23.633758    7.866273      1.0000       1.0079
     485     5 H    1    5.006292   24.479158   10.756720      1.0000       1.0079
     486     6 O    8    5.436530   24.916892    9.911920      6.0000      15.9994
     487     5 H    1    6.359103   25.184274   10.207807      1.0000       1.0079
     488     5 H    1    3.723783   23.664508   12.387440      1.0000       1.0079
     489     6 O    8    4.690532   23.695249   12.134892      6.0000      15.9994
     490     5 H    1    5.337921   24.021012   13.057754      1.0000       1.0079
     491     5 H    1    5.721406   24.735623   14.910625      1.0000       1.0079
     492     6 O    8    6.063341   24.310476   14.031636      6.0000      15.9994
     493     5 H    1    7.090138   24.590401   13.952069      1.0000       1.0079
     494     5 H    1    5.699704   26.422303   16.516239      1.0000       1.0079
     495     6 O    8    5.745731   25.432153   16.353938      6.0000      15.9994
     496     5 H    1    6.554481   25.073824   16.867635      1.0000       1.0079
     497     5 H    1    5.389828   24.427641   21.508273      1.0000       1.0079
     498     6 O    8    5.952363   23.598622   21.563085      6.0000      15.9994
     499     5 H    1    6.809235   23.828320   22.081094      1.0000       1.0079
     500     5 H    1    5.177144   26.017731   26.395029      1.0000       1.0079
     501     6 O    8    5.554270   25.228367   26.869618      6.0000      15.9994
[...]
 flops   802 x   156 x   288           1153032192       0.0%    100.0%      0.0%
 flops   800 x   520 x   234           1168128000       0.0%    100.0%      0.0%
 flops   802 x   160 x   264           1355059200       0.0%    100.0%      0.0%
 flops   808 x   160 x   263           1360025600       0.0%    100.0%      0.0%
 flops   576 x   156 x   192           1380188160       0.0%    100.0%      0.0%
 flops   808 x   544 x   219           1540190208       0.0%    100.0%      0.0%
 flops   576 x   384 x   229           1620836352       0.0%    100.0%      0.0%
 flops   808 x   544 x   234           1645682688       0.0%    100.0%      0.0%
 flops   800 x   160 x   219           1681920000       0.0%    100.0%      0.0%
 flops   576 x   384 x   242           1712848896       0.0%    100.0%      0.0%
 flops   800 x   156 x   288           1725235200       0.0%    100.0%      0.0%
 flops   576 x   384 x   246           1741160448       0.0%    100.0%      0.0%
 flops   802 x   156 x   256           1793605632       0.0%    100.0%      0.0%
 flops   800 x   160 x   234           1797120000       0.0%    100.0%      0.0%
 flops   800 x   160 x   264           2027520000       0.0%    100.0%      0.0%
 flops   800 x   512 x   263           2585395200       0.0%    100.0%      0.0%
 flops   800 x   520 x   263           2625792000       0.0%    100.0%      0.0%
 flops   800 x   156 x   256           2683699200       0.0%    100.0%      0.0%
 flops     1 x    32 x     1           2776410624       0.0%    100.0%      0.0%
 flops   801 x   160 x   288           2952806400       0.0%    100.0%      0.0%
 flops   803 x   160 x   288           2960179200       0.0%    100.0%      0.0%
 flops   808 x   160 x   288           2978611200       0.0%    100.0%      0.0%
 flops   544 x   160 x   192           3342336000       0.0%    100.0%      0.0%
 flops   556 x   160 x   192           3416064000       0.0%    100.0%      0.0%
 flops   808 x   544 x   263           3699269632       0.0%    100.0%      0.0%
 flops   800 x   160 x   263           4039680000       0.0%    100.0%      0.0%
 flops   800 x   544 x   219           4574822400       0.0%    100.0%      0.0%
 flops   801 x   160 x   256           4593254400       0.0%    100.0%      0.0%
 flops   803 x   160 x   256           4604723200       0.0%    100.0%      0.0%
 flops   808 x   160 x   256           4633395200       0.0%    100.0%      0.0%
 flops   757 x   160 x   192           4651008000       0.0%    100.0%      0.0%
 flops   763 x   160 x   192           4687872000       0.0%    100.0%      0.0%
 flops   800 x   544 x   234           4888166400       0.0%    100.0%      0.0%
 flops   840 x   160 x   192           5160960000       0.0%    100.0%      0.0%
 flops   848 x   160 x   192           5210112000       0.0%    100.0%      0.0%
 flops   802 x   160 x   288           5912985600       0.0%    100.0%      0.0%
 flops   576 x   160 x   192           7077888000       0.0%    100.0%      0.0%
 flops     4 x    32 x     1           8763282944       0.0%    100.0%      0.0%
 flops     1 x    32 x     4           8763282944       0.0%    100.0%      0.0%
 flops   800 x   160 x   288           8847360000       0.0%    100.0%      0.0%
 flops   802 x   160 x   256           9197977600       0.0%    100.0%      0.0%
 flops     1 x     1 x   160           9511680000       0.0%    100.0%      0.0%
 flops     1 x     1 x   172          10225056000       0.0%    100.0%      0.0%
 flops   800 x   544 x   263          10987929600       0.0%    100.0%      0.0%
 flops   800 x   160 x   256          13762560000       0.0%    100.0%      0.0%
 flops     4 x    32 x     4          27633076224       0.0%    100.0%      0.0%
 flops     1 x     4 x   160          29637888000       0.0%    100.0%      0.0%
 flops     4 x     1 x   160          29841408000       0.0%    100.0%      0.0%
 flops     1 x     4 x   172          31860729600       0.0%    100.0%      0.0%
 flops     4 x     1 x   172          32079513600       0.0%    100.0%      0.0%
 flops     4 x     4 x   160          94651392000       0.0%    100.0%      0.0%
 flops     4 x     4 x   172         101750246400       0.0%    100.0%      0.0%
 flops     1 x     1 x   192         114140160000       0.0%    100.0%      0.0%
 flops     1 x     4 x   192         355654656000       0.0%    100.0%      0.0%
 flops     4 x     1 x   192         358096896000       0.0%    100.0%      0.0%
 flops     4 x     4 x   192        1135816704000       0.0%    100.0%      0.0%
 flops inhomo. stacks                224861171584     100.0%      0.0%      0.0%
 flops total                         2.780845E+12       8.1%     91.9%      0.0%
 flops max/rank                    119.730317E+09       8.1%     91.9%      0.0%
 matmuls inhomo. stacks                      2016     100.0%      0.0%      0.0%
 matmuls total                         1278796059       0.0%    100.0%      0.0%
 number of processed stacks               1734102       0.1%     99.9%      0.0%
 average stack size                                     1.0     738.3       0.0
 marketing flops                    27.344480E+12
 -------------------------------------------------------------------------------
 # multiplications                            641
 max memory usage/rank               2.345521E+09
 # max total images/rank                        3
 # max 3D layers                                1
 # MPI messages exchanged                  292296
 MPI messages size (bytes):
  total size                       287.722570E+09
  min size                           0.000000E+00
  max size                           1.971520E+06
  average size                     984.353438E+03
 MPI breakdown and total messages size (bytes):
             size <=      128                3192                        0
       128 < size <=     8192                   0                        0
      8192 < size <=    32768                 360                  7315200
     32768 < size <=   131072                   0                        0
    131072 < size <=  4194304              288744             287715178400
   4194304 < size <= 16777216                   0                        0
  16777216 < size                               0                        0
 -------------------------------------------------------------------------------

 *** WARNING in dbcsr_mm.F:294 :: Using a non-square number of MPI ranks ***
 *** might lead to poor performance. Used ranks: 24 Suggested: 25 49     ***

 -------------------------------------------------------------------------------
 -                                                                             -
 -                      DBCSR MESSAGE PASSING PERFORMANCE                      -
 -                                                                             -
 -------------------------------------------------------------------------------
 ROUTINE             CALLS      AVE VOLUME [Bytes]
 MP_Bcast              194                     12.
 MP_Allreduce         4796                      9.
 MP_Alltoall         17379                 629488.
 MP_ISend            30682                 448378.
 MP_IRecv            29456                 455492.
 -------------------------------------------------------------------------------

 -------------------------------------------------------------------------------
 -                                                                             -
 -                                GRID STATISTICS                              -
 -                                                                             -
 -------------------------------------------------------------------------------
 LP    KERNEL             BACKEND                              COUNT     PERCENT
 1     collocate ortho    REF                              491980888      23.52%
 1     integrate ortho    REF                              490346400      23.45%
 0     collocate ortho    REF                              378402150      18.09%
 0     integrate ortho    REF                              377145000      18.03%
 2     collocate ortho    REF                              177003652       8.46%
 2     integrate ortho    REF                              176415600       8.44%
 0     collocate general  REF                                  72048       0.00%
 0     integrate general  REF                                  72048       0.00%
 -------------------------------------------------------------------------------

 MEMORY| Estimated peak process memory [MiB]                                2245

 -------------------------------------------------------------------------------
 ----                             MULTIGRID INFO                            ----
 -------------------------------------------------------------------------------
 count for grid        1:         824929          cutoff [a.u.]          110.00
 count for grid        2:         516524          cutoff [a.u.]           36.67
 count for grid        3:         494928          cutoff [a.u.]           12.22
 count for grid        4:         367144          cutoff [a.u.]            4.07
 total gridlevel count  :        2203525

 -------------------------------------------------------------------------------
 -                                                                             -
 -                         MESSAGE PASSING PERFORMANCE                         -
 -                                                                             -
 -------------------------------------------------------------------------------

 ROUTINE             CALLS      AVE VOLUME [Bytes]
 MP_Group                4
 MP_Bcast              524                2498497.
 MP_Allreduce        11929                  14015.
 MP_Sync               610
 MP_Alltoall         11725               68512711.
 MP_ISendRecv        55292                 308352.
 MP_Wait             86596
 MP_comm_split           2
 MP_ISend            24080                2785528.
 MP_IRecv            24080                2785519.
 MP_Recv              2040                 821248.
 -------------------------------------------------------------------------------


 -------------------------------------------------------------------------------
 -                                                                             -
 -                           R E F E R E N C E S                               -
 -                                                                             -
 -------------------------------------------------------------------------------
 
 CP2K version 8.2, the CP2K developers group (2021).
 CP2K is freely available from https://www.cp2k.org/ .

 Kuehne,Thomas D.; Iannuzzi,Marcella; Del Ben,Mauro;
 Rybkin,Vladimir V.; Seewald,Patrick; Stein,Frederick; Laino,Teodoro;
 Khaliullin,Rustam Z.; Schuett,Ole; Schiffmann,Florian; Golze,Dorothea;
 Wilhelm,Jan; Chulkov,Sergey; Bani-Hashemian,Mohammad Hossein;
 Weber,Valery; Borstnik,Urban; Taillefumier,Mathieu;
 Jakobovits,Alice Shoshana; Lazzaro,Alfio; Pabst,Hans; Mueller,Tiziano;
 Schade,Robert; Guidon,Manuel; Andermatt,Samuel; Holmberg,Nico;
 Schenter,Gregory K.; Hehn,Anna; Bussy,Augustin; Belleflamme,Fabian;
 Tabacchi,Gloria; Gloess,Andreas; Lass,Michael; Bethune,Iain;
 Mundy,Christopher J.; Plessl,Christian; Watkins,Matt;
 VandeVondele,Joost; Krack,Matthias; Hutter,Juerg. 
 The Journal of Chemical Physics, 152 (19), (2020). 
 CP2K: An electronic structure and molecular dynamics software package -
 Quickstep: Efficient and accurate electronic structure calculations.
 https://doi.org/10.1063/5.0007045

 Goerigk, Lars; Hansen, Andreas; Bauer, Christoph; Ehrlich, Stephan;
 Najibi, Asim; Grimme, Stefan. , 19 (48), (2017). 
 A look at the density functional theory zoo with the advanced GMTKN55 database
 for general main group thermochemistry, kinetics and noncovalent interactions.
 https://doi.org/10.1039/C7CP04913G

 Schuett, Ole; Messmer, Peter; Hutter, Juerg; VandeVondele, Joost. 
 Electronic Structure Calculations on Graphics Processing Units, John
 Wiley & Sons, Ltd, 173-190 (2016). 
 GPU-Accelerated Sparse Matrix-Matrix Multiplication for
 Linear Scaling Density Functional Theory.
 https://doi.org/10.1002/9781118670712.ch8

 Heinecke, A; Henry, G; Hutchinson, M; Pabst, H. 
 Proceedings of Intl. Supercomputing Conference, 981-991 (2016). 
 LIBXSMM: Accelerating Small Matrix Multiplications
 by Runtime Code Generation.
 https://doi.org/10.1109/SC.2016.83

 Borstnik, U; VandeVondele, J; Weber, V; Hutter, J. 
 PARALLEL COMPUTING, 40 (5-6), 47-58 (2014). 
 Sparse matrix multiplication: The distributed block-compressed sparse
 row library.
 https://doi.org/10.1016/j.parco.2014.03.012

 Hutter, J; Iannuzzi, M; Schiffmann, F; VandeVondele, J. 
 WIREs Comput Mol Sci., 4 (1), 15-25 (2014). 
 CP2K: atomistic simulations of condensed matter systems.
 https://doi.org/10.1002/wcms.1159

 Grimme, S; Ehrlich, S; Goerigk, L. 
 JOURNAL OF COMPUTATIONAL CHEMISTRY, 32, 1456 (2011). 
 Effect of the damping function in dispersion corrected density functional theory.
 https://doi.org/10.1002/jcc.21759

 Grimme, S; Antony, J; Ehrlich, S; Krieg, H. 
 JOURNAL OF CHEMICAL PHYSICS, 132 (15), 154104 (2010). 
 A consistent and accurate ab initio parametrization of density
 functional dispersion correction (DFT-D) for the 94 elements H-Pu.
 https://doi.org/10.1063/1.3382344

 VandeVondele, J; Hutter, J. 
 JOURNAL OF CHEMICAL PHYSICS, 127 (11), 114105 (2007). 
 Gaussian basis sets for accurate calculations on molecular systems in
 gas and condensed phases.
 https://doi.org/10.1063/1.2770708

 Krack, M. 
 THEORETICAL CHEMISTRY ACCOUNTS, 114 (1-3), 145-152 (2005). 
 Pseudopotentials for H to Kr optimized for gradient-corrected
 exchange-correlation functionals.
 https://doi.org/10.1007/s00214-005-0655-y

 VandeVondele, J; Krack, M; Mohamed, F; Parrinello, M; Chassaing, T;
 Hutter, J. COMPUTER PHYSICS COMMUNICATIONS, 167 (2), 103-128 (2005). 
 QUICKSTEP: Fast and accurate density functional calculations using a
 mixed Gaussian and plane waves approach.
 https://doi.org/10.1016/j.cpc.2004.12.014

 Frigo, M; Johnson, SG. 
 PROCEEDINGS OF THE IEEE, 93 (2), 216-231 (2005). 
 The design and implementation of FFTW3.
 https://doi.org/10.1109/JPROC.2004.840301

 VandeVondele, J; Hutter, J. 
 JOURNAL OF CHEMICAL PHYSICS, 118 (10), 4365-4369 (2003). 
 An efficient orbital transformation method for electronic structure
 calculations.
 https://doi.org/10.1063/1.1543154

 Hartwigsen, C; Goedecker, S; Hutter, J. 
 PHYSICAL REVIEW B, 58 (7), 3641-3662 (1998). 
 Relativistic separable dual-space Gaussian pseudopotentials from H to Rn.
 https://doi.org/10.1103/PhysRevB.58.3641

 Lippert, G; Hutter, J; Parrinello, M. 
 MOLECULAR PHYSICS, 92 (3), 477-487 (1997). 
 A hybrid Gaussian and plane wave density functional scheme.
 https://doi.org/10.1080/002689797170220

 Perdew, JP; Burke, K; Ernzerhof, M. 
 PHYSICAL REVIEW LETTERS, 77 (18), 3865-3868 (1996). 
 Generalized gradient approximation made simple.
 https://doi.org/10.1103/PhysRevLett.77.3865

 Goedecker, S; Teter, M; Hutter, J. 
 PHYSICAL REVIEW B, 54 (3), 1703-1710 (1996). 
 Separable dual-space Gaussian pseudopotentials.
 https://doi.org/10.1103/PhysRevB.54.1703


 -------------------------------------------------------------------------------
 -                                                                             -
 -                                T I M I N G                                  -
 -                                                                             -
 -------------------------------------------------------------------------------
 SUBROUTINE                       CALLS  ASD         SELF TIME        TOTAL TIME
                                MAXIMUM       AVERAGE  MAXIMUM  AVERAGE  MAXIMUM
 CP2K                                 1  1.0    0.179    0.210 5474.633 5474.637
 qs_energies                          1  2.0    0.000    0.000 5473.453 5473.458
 scf_env_do_scf                       1  3.0    0.001    0.001 5457.626 5457.640
 scf_env_do_scf_inner_loop          300  4.0    0.011    0.068 5457.626 5457.640
 qs_ks_update_qs_env                300  5.0    0.003    0.004 2481.154 2481.230
 rebuild_ks_matrix                  300  6.0    0.001    0.001 2480.479 2480.548
 qs_ks_build_kohn_sham_matrix       300  7.0    0.050    0.057 2480.477 2480.547
 pw_transfer                      11109  9.5    0.819    0.991 1555.667 1715.456
 fft_wrap_pw1pw2                  10509 10.5    0.134    0.180 1549.121 1711.194
 fft_wrap_pw1pw2_110               6903 11.6   76.809  107.014 1464.350 1613.498
 qs_vxc_create                      300  8.0    0.009    0.011 1356.671 1362.437
 xc_vxc_pw_create                   300  9.0   30.933   31.899 1356.662 1362.430
 qs_scf_new_mos                     300  5.0    0.007    0.009 1325.205 1325.823
 fft3d_ps                         10509 12.5  463.786  531.457 1067.417 1284.228
 eigensolver                        600  6.0    0.042    0.057 1240.165 1240.573
 qs_rho_update_rho                  301  5.0    0.002    0.003 1089.486 1089.653
 calculate_rho_elec                 602  6.0    5.185    5.355 1089.483 1089.651
 cp_fm_syevd                        604  7.0    0.009    0.011 1080.909 1081.103
 cp_fm_syevd_base                   604  8.0 1080.541 1080.779 1080.541 1080.779
 sum_up_and_integrate               300  8.0    3.259    4.731 1030.526 1030.594
 integrate_v_rspace                 600  9.0    0.024    0.032 1027.265 1028.964
 mp_alltoall_z22v                 10509 14.5  443.734  771.682  443.734  771.682
 xc_rho_set_and_dset_create         300 10.0    9.489   12.105  713.135  765.403
 grid_integrate_task_list           600 10.0  662.763  739.095  662.763  739.095
 grid_collocate_task_list           602  7.0  659.480  738.189  659.480  738.189
 gspace_mixing                      299  5.0    5.159    5.320  561.180  561.194
 yz_to_x                           4809 13.1   68.434   82.111  295.670  516.472
 density_rs2pw                      602  7.0    0.029    0.036  413.794  470.055
 broyden_mixing                     299  6.0  301.390  385.748  413.643  419.658
 x_to_yz                           5700 13.9   91.244  133.411  307.742  377.539
 xc_functional_eval                 300 11.0    0.004    0.005  288.755  342.909
 pbe_lsd_eval                       300 12.0  288.751  342.906  288.751  342.906
 rs_pw_transfer                    4812  9.5    0.071    0.098  225.385  286.246
 potential_pw2rs                    600 10.0    0.188    0.218  269.762  271.499
 pw_gather_p                       4809 12.1  216.801  265.161  216.801  265.161
 mp_waitany                       24080 11.5  126.281  211.087  126.281  211.087
 pw_scatter_p                      5700 12.9  186.327  198.345  186.327  198.345
 mp_alltoall_d11v                  8639  9.3  102.176  183.014  102.176  183.014
 rs_gather_matrices                 600 10.0    1.079    1.150   94.717  174.896
 rs_pw_transfer_RS2PW_110           604  9.0   15.828   26.059  107.469  174.000
 cp_fm_cholesky_restore            1800  7.0  154.451  156.958  154.451  156.958
 mp_sum_dm                         7013  7.9   80.555  152.630   80.555  152.630
 -------------------------------------------------------------------------------

 The number of warnings for this run is : 4
 
 -------------------------------------------------------------------------------
  **** **** ******  **  PROGRAM ENDED AT                 2023-12-04 03:41:17.073
 ***** ** ***  *** **   PROGRAM RAN ON                milan4.int.triton.aalto.fi
 **    ****   ******    PROGRAM RAN BY                                   huangj4
 ***** **    ** ** **   PROGRAM PROCESS ID                                 20909
  **** **  *******  **  PROGRAM STOPPED IN /scratch/phys/sin/Jie/Github/cp2kTest
                                           /PDOS234/Cluster_333
