# Projected DOS for atomic kind C at iteration step i = 0, E(Fermi) =    -0.128951 a.u.
#     MO Eigenvalue [a.u.]      Occupation                 s                py                pz                px
       1         -0.933489        1.000000        0.00000000        0.00000001        0.00000001        0.00000000
       2         -0.923274        1.000000        0.00000000        0.00000001        0.00000001        0.00000000
       3         -0.922567        1.000000        0.00000000        0.00000000        0.00000000        0.00000000
       4         -0.917149        1.000000        0.00003375        0.00001798        0.00002114        0.00000778
       5         -0.914829        1.000000        0.00000168        0.00000025        0.00000037        0.00000227
       6         -0.911733        1.000000        0.00000000        0.00000001        0.00000002        0.00000000
       7         -0.907239        1.000000        0.00000000        0.00000093        0.00000272        0.00000001
       8         -0.906524        1.000000        0.00000134        0.00000009        0.00000002        0.00000186
       9         -0.906511        1.000000        0.00000000        0.00000001        0.00000000        0.00000001
      10         -0.906027        1.000000        0.00000021        0.00000001        0.00000011        0.00000023
      11         -0.905718        1.000000        0.00000001        0.00000000        0.00000001        0.00000001
      12         -0.903045        1.000000        0.00000002        0.00000004        0.00000004        0.00000015
      13         -0.899914        1.000000        0.00000659        0.00000005        0.00000095        0.00000792
      14         -0.896968        1.000000        0.00000042        0.00000006        0.00000037        0.00000008
      15         -0.891149        1.000000        0.00000196        0.00000081        0.00000157        0.00000001
      16         -0.888149        1.000000        0.00000008        0.00000008        0.00000001        0.00000001
      17         -0.888110        1.000000        0.00000001        0.00000000        0.00000001        0.00000000
      18         -0.887551        1.000000        0.06073716        0.00069093        0.02969183        0.01382204
      19         -0.884965        1.000000        0.00000127        0.00000062        0.00000012        0.00000000
      20         -0.884408        1.000000        0.00000154        0.00000009        0.00000101        0.00000035
      21         -0.882451        1.000000        0.00151628        0.00009244        0.00097610        0.00030086
      22         -0.881891        1.000000        0.00003353        0.00000044        0.00000532        0.00003114
      23         -0.881080        1.000000        0.00000028        0.00000017        0.00000126        0.00000000
      24         -0.880631        1.000000        0.00000001        0.00000000        0.00000000        0.00000001
      25         -0.879854        1.000000        0.00000083        0.00000047        0.00000006        0.00000089
      26         -0.879356        1.000000        0.00000003        0.00000003        0.00000002        0.00000000
      27         -0.877565        1.000000        0.05490844        0.00945738        0.00484933        0.02793735
      28         -0.875874        1.000000        0.00000005        0.00000000        0.00000001        0.00000002
      29         -0.872741        1.000000        0.00000000        0.00000000        0.00000000        0.00000001
      30         -0.872608        1.000000        0.00000032        0.00000065        0.00000068        0.00000045
      31         -0.872093        1.000000        0.00259205        0.00038510        0.00158100        0.00018005
      32         -0.870424        1.000000        0.00001461        0.00000027        0.00000622        0.00000628
      33         -0.868887        1.000000        0.00001707        0.00000011        0.00000132        0.00001584
      34         -0.868092        1.000000        0.00000058        0.00001178        0.00000149        0.00000578
      35         -0.866190        1.000000        0.00242521        0.00001480        0.00106044        0.00080585
      36         -0.861567        1.000000        0.00007676        0.00000191        0.00005662        0.00001337
      37         -0.858645        1.000000        0.00000001        0.00000000        0.00000001        0.00000001
      38         -0.857406        1.000000        0.00000679        0.00000092        0.00000002        0.00000356
      39         -0.854513        1.000000        0.00032629        0.00001512        0.00000320        0.00027493
      40         -0.853342        1.000000        0.01131058        0.00010632        0.00382817        0.00393643
      41         -0.852811        1.000000        0.00120645        0.00001423        0.00009636        0.00094160
      42         -0.851403        1.000000        0.00000000        0.00000000        0.00000003        0.00000000
      43         -0.850268        1.000000        0.00000006        0.00000001        0.00000001        0.00000008
      44         -0.849872        1.000000        0.00000015        0.00000008        0.00000004        0.00000008
      45         -0.849340        1.000000        0.00000000        0.00000000        0.00000178        0.00000447
      46         -0.848152        1.000000        0.00011651        0.00000663        0.00000864        0.00008126
      47         -0.847895        1.000000        0.00000000        0.00000000        0.00000000        0.00000001
      48         -0.845622        1.000000        0.00000124        0.00000153        0.00000001        0.00000105
      49         -0.842436        1.000000        0.00609551        0.00021165        0.00005607        0.00404876
      50         -0.840838        1.000000        0.00000646        0.00000476        0.00000208        0.00001158
      51         -0.839561        1.000000        0.00000000        0.00000000        0.00000000        0.00000000
      52         -0.839465        1.000000        0.00000517        0.00000390        0.00003168        0.00003637
      53         -0.839388        1.000000        0.00093207        0.00001431        0.00007764        0.00062537
      54         -0.838348        1.000000        0.00680391        0.00010943        0.00040499        0.00460614
      55         -0.838231        1.000000        0.00028758        0.00000340        0.00011756        0.00010189
      56         -0.837821        1.000000        0.03324636        0.00032758        0.00854881        0.01161345
      57         -0.837370        1.000000        0.00000970        0.00000004        0.00000147        0.00000492
      58         -0.837208        1.000000        0.00036881        0.00003983        0.00014406        0.00008669
      59         -0.836867        1.000000        0.00000021        0.00000001        0.00000000        0.00000011
      60         -0.835929        1.000000        0.00014660        0.00000093        0.00003705        0.00004917
      61         -0.833962        1.000000        0.00700222        0.00018266        0.00051080        0.00465382
      62         -0.832059        1.000000        0.07287229        0.00262483        0.03531204        0.00492111
      63         -0.831677        1.000000        0.00000159        0.00000040        0.00001368        0.00002106
      64         -0.831426        1.000000        0.00000000        0.00000000        0.00000000        0.00000000
      65         -0.830211        1.000000        0.00000000        0.00000000        0.00000000        0.00000000
      66         -0.829346        1.000000        0.01241835        0.00027377        0.00024686        0.00738087
      67         -0.827819        1.000000        0.00253657        0.00016011        0.00006760        0.00155203
      68         -0.827504        1.000000        0.00703147        0.00019588        0.00052770        0.00431691
      69         -0.822699        1.000000        0.03099518        0.00026172        0.00623725        0.01039395
      70         -0.820240        1.000000        0.00004764        0.00001027        0.00006601        0.00000104
      71         -0.820218        1.000000        0.00000003        0.00000000        0.00000001        0.00000000
      72         -0.819045        1.000000        0.00000000        0.00000000        0.00000000        0.00000000
      73         -0.818910        1.000000        0.02505367        0.00047729        0.00069000        0.01350983
      74         -0.813264        1.000000        0.00000010        0.00000002        0.00000008        0.00000001
      75         -0.811352        1.000000        0.02068291        0.00051847        0.00112562        0.01034333
      76         -0.809118        1.000000        0.05386087        0.00217278        0.00421128        0.02740187
      77         -0.807865        1.000000        0.00005280        0.00000338        0.00000052        0.00002433
      78         -0.807543        1.000000        0.00005662        0.00001184        0.00014786        0.00009290
      79         -0.805303        1.000000        0.00000003        0.00000001        0.00000037        0.00000005
      80         -0.804449        1.000000        0.00000148        0.00000004        0.00000005        0.00000056
      81         -0.804379        1.000000        0.00003602        0.00000828        0.00008224        0.00011552
      82         -0.803402        1.000000        0.01100311        0.00012604        0.00027583        0.00510049
      83         -0.796826        1.000000        0.07733629        0.00221300        0.00385638        0.03482018
      84         -0.793356        1.000000        0.00000114        0.00000004        0.00000026        0.00000030
      85         -0.790390        1.000000        0.00637820        0.00005616        0.00022680        0.00260793
      86         -0.630531        1.000000        0.43910702        0.00001524        0.00095117        0.00063705
      87         -0.613764        1.000000        0.44110136        0.00002788        0.00062982        0.00015128
      88         -0.604606        1.000000        0.15364628        0.00000040        0.00048804        0.00171850
      89         -0.603396        1.000000        0.43029719        0.00013287        0.00643515        0.00049134
      90         -0.602726        1.000000        0.27601401        0.00011846        0.00181975        0.00273895
      91         -0.591218        1.000000        0.21671135        0.00004004        0.00031104        0.00459112
      92         -0.588677        1.000000        0.20858316        0.00018649        0.00037635        0.00291231
      93         -0.581329        1.000000        0.42100935        0.00046566        0.00077058        0.00813092
      94         -0.572554        1.000000        0.42205157        0.00013651        0.00031558        0.00377555
      95         -0.570375        1.000000        0.01253608        0.00008819        0.00000977        0.00007332
      96         -0.569125        1.000000        0.00021199        0.00000310        0.00003493        0.00003754
      97         -0.561235        1.000000        0.00004904        0.00002617        0.00008553        0.00000444
      98         -0.556799        1.000000        0.00101175        0.00016604        0.00002581        0.00014367
      99         -0.550726        1.000000        0.00010431        0.00001110        0.00035923        0.00011627
     100         -0.547832        1.000000        0.00023068        0.00056387        0.00045409        0.00016369
     101         -0.546125        1.000000        0.00033883        0.00048154        0.00003833        0.00009078
     102         -0.545668        1.000000        0.00044095        0.00044137        0.00007011        0.00058914
     103         -0.542035        1.000000        0.00015145        0.00008856        0.00002764        0.00014957
     104         -0.540173        1.000000        0.00005903        0.00010891        0.00005922        0.00001065
     105         -0.539977        1.000000        0.00137756        0.00064526        0.00193119        0.00162573
     106         -0.538110        1.000000        0.00025435        0.00417078        0.00022691        0.00016253
     107         -0.537637        1.000000        0.00026441        0.00123478        0.00151531        0.00069318
     108         -0.537020        1.000000        0.00021585        0.00033514        0.00114562        0.00104488
     109         -0.536458        1.000000        0.00044773        0.00019098        0.00004185        0.00011944
     110         -0.536150        1.000000        0.00027681        0.00015411        0.00025010        0.00094035
     111         -0.534598        1.000000        0.00011391        0.00079021        0.00012685        0.00062520
     112         -0.531895        1.000000        0.00031379        0.00035082        0.00008070        0.00038278
     113         -0.531127        1.000000        0.00026082        0.00256005        0.00148616        0.00192687
     114         -0.529754        1.000000        0.00069754        0.00052985        0.00019863        0.00020241
     115         -0.529250        1.000000        0.00009114        0.00038292        0.00006666        0.00014969
     116         -0.527659        1.000000        0.00058125        0.00090246        0.00125702        0.00132396
     117         -0.526471        1.000000        0.00055575        0.00047232        0.00013155        0.00014486
     118         -0.525774        1.000000        0.00027419        0.00024697        0.00015822        0.00022549
     119         -0.525564        1.000000        0.00035304        0.00011241        0.00027734        0.00112633
     120         -0.522886        1.000000        0.00038556        0.00025482        0.00107819        0.00147761
     121         -0.522396        1.000000        0.00001194        0.00011025        0.00004019        0.00019342
     122         -0.520511        1.000000        0.00009471        0.00055802        0.00017488        0.00039506
     123         -0.520175        1.000000        0.00022584        0.00015328        0.00029575        0.00031601
     124         -0.519290        1.000000        0.00004484        0.00011101        0.00007221        0.00003062
     125         -0.518827        1.000000        0.00019079        0.00026061        0.00054819        0.00017135
     126         -0.518642        1.000000        0.00007496        0.00040227        0.00025305        0.00004372
     127         -0.518304        1.000000        0.00003515        0.00036453        0.00008132        0.00010179
     128         -0.516844        1.000000        0.00010733        0.00046713        0.00016545        0.00016041
     129         -0.507240        1.000000        0.00006859        0.00171402        0.01348406        0.03099701
     130         -0.502454        1.000000        0.00009365        0.04960007        0.00191468        0.00107988
     131         -0.502068        1.000000        0.00022101        0.03881218        0.00680442        0.00341220
     132         -0.492506        1.000000        0.00019528        0.00307139        0.03467506        0.01376106
     133         -0.484946        1.000000        0.00004589        0.00054675        0.00216735        0.00023513
     134         -0.482316        1.000000        0.00002676        0.00002234        0.00007026        0.00000715
     135         -0.481215        1.000000        0.00011682        0.01582063        0.00402292        0.00788488
     136         -0.478234        1.000000        0.00000128        0.00002399        0.00000278        0.00000060
     137         -0.477608        1.000000        0.00000442        0.00004051        0.00001913        0.00000076
     138         -0.475276        1.000000        0.00011231        0.01601130        0.00491747        0.01317497
     139         -0.474404        1.000000        0.00000148        0.00130150        0.00000246        0.00000642
     140         -0.473861        1.000000        0.00000005        0.00000026        0.00000005        0.00000019
     141         -0.472843        1.000000        0.00001306        0.07491756        0.00058930        0.00023676
     142         -0.472416        1.000000        0.00001534        0.00012548        0.00002067        0.00000881
     143         -0.472361        1.000000        0.00000788        0.00005590        0.00003696        0.00007274
     144         -0.468669        1.000000        0.00000593        0.00035906        0.00020720        0.00066430
     145         -0.468237        1.000000        0.00000612        0.00056001        0.00018080        0.00002202
     146         -0.465697        1.000000        0.00001207        0.00046135        0.00022279        0.00026204
     147         -0.464177        1.000000        0.00001505        0.00001501        0.00053235        0.00018772
     148         -0.463155        1.000000        0.00073636        0.00052197        0.04885850        0.02156669
     149         -0.462965        1.000000        0.00000010        0.00000131        0.00000153        0.00000047
     150         -0.460959        1.000000        0.00004410        0.02036645        0.00212668        0.04414521
     151         -0.459946        1.000000        0.00000046        0.00001295        0.00000292        0.00000429
     152         -0.459490        1.000000        0.00000005        0.00000036        0.00000238        0.00000037
     153         -0.457463        1.000000        0.00000092        0.00000197        0.00000419        0.00000100
     154         -0.455569        1.000000        0.00000201        0.00002319        0.00001943        0.00000182
     155         -0.454918        1.000000        0.00012340        0.04151471        0.02956443        0.00890799
     156         -0.454348        1.000000        0.00001946        0.00152310        0.00133370        0.00054549
     157         -0.453780        1.000000        0.00000444        0.00245026        0.00000982        0.00020189
     158         -0.453484        1.000000        0.00000175        0.00000254        0.00004312        0.00000767
     159         -0.452236        1.000000        0.00000013        0.00000290        0.00001031        0.00000110
     160         -0.451747        1.000000        0.00007327        0.01728809        0.00001593        0.00129985
     161         -0.451444        1.000000        0.00001689        0.00595811        0.05514270        0.00453367
     162         -0.450306        1.000000        0.00000846        0.00020790        0.00018902        0.00011150
     163         -0.450045        1.000000        0.00000173        0.00000764        0.00001535        0.00000365
     164         -0.449426        1.000000        0.00000263        0.03105931        0.02926403        0.00976142
     165         -0.445792        1.000000        0.00000210        0.00002105        0.00002929        0.00001714
     166         -0.444896        1.000000        0.00000003        0.00000051        0.00000021        0.00000012
     167         -0.441982        1.000000        0.00002327        0.00019258        0.00072121        0.00366464
     168         -0.440946        1.000000        0.00000066        0.00000343        0.00000108        0.00000555
     169         -0.440847        1.000000        0.00011811        0.00345608        0.00798482        0.00079914
     170         -0.439312        1.000000        0.00005402        0.01301387        0.00052773        0.00235133
     171         -0.439263        1.000000        0.00016367        0.04317769        0.00154613        0.00811420
     172         -0.438190        1.000000        0.00043863        0.04152889        0.03637177        0.00146238
     173         -0.436422        1.000000        0.00001892        0.00037811        0.00076812        0.00008565
     174         -0.435848        1.000000        0.00000006        0.00018921        0.00000513        0.00000544
     175         -0.434809        1.000000        0.00000183        0.00295057        0.00010738        0.00006932
     176         -0.434665        1.000000        0.00000238        0.00007660        0.00030733        0.00021649
     177         -0.434576        1.000000        0.00000058        0.00006703        0.00004499        0.00003057
     178         -0.434556        1.000000        0.00001149        0.00002212        0.00010291        0.00001292
     179         -0.433343        1.000000        0.00000012        0.00002491        0.00000836        0.00000042
     180         -0.432349        1.000000        0.00001938        0.00033194        0.00226438        0.00138820
     181         -0.432300        1.000000        0.00000364        0.00030607        0.00013611        0.00003295
     182         -0.428043        1.000000        0.00000121        0.00000083        0.00000984        0.00000390
     183         -0.427552        1.000000        0.00001601        0.00021717        0.00015901        0.00026106
     184         -0.427513        1.000000        0.00002422        0.00020105        0.00031039        0.00043569
     185         -0.426462        1.000000        0.00001726        0.00009964        0.00006592        0.00004233
     186         -0.425906        1.000000        0.00000479        0.00001082        0.00000365        0.00004738
     187         -0.425405        1.000000        0.00000754        0.00018700        0.00007388        0.00037804
     188         -0.422797        1.000000        0.00000073        0.04771068        0.05270405        0.00056051
     189         -0.421258        1.000000        0.00035258        0.00135852        0.00010283        0.00154042
     190         -0.420844        1.000000        0.00001477        0.00011830        0.00011565        0.00000572
     191         -0.420013        1.000000        0.00001644        0.00007789        0.00004947        0.00011701
     192         -0.419152        1.000000        0.00000014        0.00000009        0.00000129        0.00000146
     193         -0.418913        1.000000        0.00000233        0.00000928        0.00011388        0.00000779
     194         -0.415844        1.000000        0.00002354        0.00003031        0.00026031        0.00012763
     195         -0.415456        1.000000        0.00004515        0.00005354        0.00078629        0.00043469
     196         -0.414934        1.000000        0.00015036        0.00010697        0.00173499        0.00442222
     197         -0.414882        1.000000        0.00048612        0.00023575        0.00404593        0.00442996
     198         -0.413610        1.000000        0.00002917        0.00001374        0.00026523        0.00017428
     199         -0.413413        1.000000        0.00027220        0.00035150        0.00288902        0.00161481
     200         -0.412879        1.000000        0.00001324        0.00002031        0.00019384        0.00008880
     201         -0.411689        1.000000        0.00010495        0.00149161        0.00162209        0.00028501
     202         -0.411529        1.000000        0.00703791        0.00301399        0.06314424        0.03730499
     203         -0.410561        1.000000        0.00006045        0.00010354        0.00069915        0.00045897
     204         -0.410201        1.000000        0.01423884        0.00275811        0.14182980        0.07150821
     205         -0.408774        1.000000        0.00035149        0.00031317        0.00359106        0.00302246
     206         -0.407468        1.000000        0.00008262        0.00005804        0.00062179        0.00035434
     207         -0.406634        1.000000        0.00023924        0.00038856        0.00090523        0.00124496
     208         -0.405800        1.000000        0.00004551        0.00021583        0.00063021        0.00042753
     209         -0.404271        1.000000        0.00000131        0.00001580        0.00000557        0.00007505
     210         -0.403298        1.000000        0.00000667        0.00008762        0.00002266        0.00012233
     211         -0.402935        1.000000        0.00000720        0.00001003        0.00001694        0.00000887
     212         -0.402570        1.000000        0.00022665        0.00054151        0.00090523        0.00142882
     213         -0.401794        1.000000        0.00079749        0.00270023        0.00263188        0.00469919
     214         -0.401052        1.000000        0.00056299        0.00131575        0.00264857        0.00348447
     215         -0.399498        1.000000        0.00000305        0.00001612        0.00001168        0.00003062
     216         -0.398051        1.000000        0.00000591        0.00001608        0.00004866        0.00004558
     217         -0.395842        1.000000        0.02356540        0.06152059        0.04679806        0.18807843
     218         -0.395451        1.000000        0.00024054        0.00060356        0.00049545        0.00187519
     219         -0.395013        1.000000        0.00000147        0.00000208        0.00000319        0.00005526
     220         -0.394846        1.000000        0.00000258        0.00000757        0.00002781        0.00002787
     221         -0.393253        1.000000        0.00000363        0.00011169        0.00013727        0.00011328
     222         -0.389440        1.000000        0.00000027        0.00000083        0.00000109        0.00000257
     223         -0.388826        1.000000        0.00000081        0.00000677        0.00000110        0.00000202
     224         -0.384148        1.000000        0.00120644        0.00159435        0.00972427        0.00133165
     225         -0.383338        1.000000        0.00004031        0.00400868        0.00221523        0.00821046
     226         -0.380726        1.000000        0.01152369        0.00449123        0.19426039        0.14378877
     227         -0.380658        1.000000        0.01172773        0.02464171        0.26345827        0.05141831
     228         -0.378853        1.000000        0.00053870        0.00464579        0.00013681        0.00063938
     229         -0.378096        1.000000        0.00088677        0.00472964        0.00048136        0.00146763
     230         -0.376898        1.000000        0.00000143        0.00000668        0.00001866        0.00000960
     231         -0.375658        1.000000        0.00000028        0.00000016        0.00000333        0.00000185
     232         -0.371036        1.000000        0.00000207        0.00000319        0.00003563        0.00002413
     233         -0.368574        1.000000        0.00000532        0.00006949        0.00028254        0.00003944
     234         -0.364545        1.000000        0.00992717        0.01328486        0.00686466        0.32014412
     235         -0.361036        1.000000        0.00995186        0.00268122        0.01589002        0.31696639
     236         -0.353424        1.000000        0.00000341        0.00007746        0.00009002        0.00003724
     237         -0.352841        1.000000        0.00014257        0.00025617        0.00024069        0.00290365
     238         -0.352199        1.000000        0.01452922        0.00221861        0.02789313        0.30130852
     239         -0.348784        1.000000        0.00000423        0.33450413        0.09710844        0.09219423
     240         -0.348277        1.000000        0.00000071        0.00062062        0.00014094        0.00046043
     241         -0.347527        1.000000        0.00000978        0.18429545        0.08771489        0.25765811
     242         -0.339081        1.000000        0.00019793        0.00138095        0.17043375        0.26030568
     243         -0.336848        1.000000        0.00000250        0.00197073        0.00177495        0.00270129
     244         -0.335589        1.000000        0.00000800        0.33388842        0.02394519        0.02536456
     245         -0.335158        1.000000        0.00000388        0.00740819        0.00179494        0.00114921
     246         -0.331105        1.000000        0.00001824        0.01280605        0.09187121        0.38283746
     247         -0.330514        1.000000        0.00008427        0.26113123        0.07358803        0.18934810
     248         -0.327889        1.000000        0.00006816        0.06653337        0.00747596        0.00216141
     249         -0.327572        1.000000        0.00017190        0.14850037        0.35317022        0.00442953
     250         -0.327314        1.000000        0.00002187        0.02548540        0.00499366        0.00102250
     251         -0.325814        1.000000        0.00001475        0.00087601        0.03285410        0.00129376
     252         -0.325775        1.000000        0.00000012        0.47819024        0.00126439        0.00669928
     253         -0.323749        1.000000        0.00000065        0.01485879        0.00013777        0.00013781
     254         -0.323101        1.000000        0.00000701        0.01110961        0.00107569        0.00039533
     255         -0.322316        1.000000        0.00010170        0.04672624        0.35054392        0.00002420
     256         -0.314659        1.000000        0.00001759        0.03056831        0.00706883        0.00127493
     257         -0.314018        1.000000        0.00002540        0.24923954        0.02641286        0.00032848
     258         -0.312933        1.000000        0.00001766        0.37679072        0.04656516        0.02752465
     259         -0.312526        1.000000        0.00001920        0.02555369        0.01237304        0.00778498