# Projected DOS for atomic kind Pb at iteration step i = 0, E(Fermi) =    -0.128951 a.u.
#     MO Eigenvalue [a.u.]      Occupation                 s                py                pz                px
       1         -0.933489        1.000000        0.00000040        0.00000023        0.00000105        0.00000960
       2         -0.923274        1.000000        0.00000054        0.00000158        0.00000062        0.00000792
       3         -0.922567        1.000000        0.00000067        0.00000949        0.00000180        0.00000422
       4         -0.917149        1.000000        0.00000015        0.00000083        0.00000012        0.00000004
       5         -0.914829        1.000000        0.00000010        0.00000007        0.00000002        0.00000047
       6         -0.911733        1.000000        0.00000039        0.00000026        0.00000012        0.00000372
       7         -0.907239        1.000000        0.00000002        0.00000022        0.00000001        0.00000004
       8         -0.906524        1.000000        0.00000054        0.00000001        0.00000075        0.00000528
       9         -0.906511        1.000000        0.00000000        0.00000010        0.00000055        0.00000020
      10         -0.906027        1.000000        0.00000056        0.00000284        0.00000677        0.00000112
      11         -0.905718        1.000000        0.00000002        0.00000150        0.00000429        0.00000006
      12         -0.903045        1.000000        0.00000129        0.00000591        0.00001614        0.00000276
      13         -0.899914        1.000000        0.00000010        0.00000006        0.00000002        0.00000048
      14         -0.896968        1.000000        0.00000076        0.00000210        0.00001248        0.00000749
      15         -0.891149        1.000000        0.00000011        0.00000145        0.00000001        0.00000000
      16         -0.888149        1.000000        0.00000009        0.00000008        0.00000063        0.00000015
      17         -0.888110        1.000000        0.00000010        0.00000178        0.00000217        0.00000000
      18         -0.887551        1.000000        0.00000022        0.00000166        0.00000257        0.00000081
      19         -0.884965        1.000000        0.00000001        0.00000005        0.00000017        0.00000020
      20         -0.884408        1.000000        0.00000060        0.00000127        0.00000255        0.00000110
      21         -0.882451        1.000000        0.00001094        0.00008047        0.00009995        0.00000911
      22         -0.881891        1.000000        0.00000004        0.00000031        0.00000040        0.00000039
      23         -0.881080        1.000000        0.00000031        0.00000360        0.00000115        0.00000218
      24         -0.880631        1.000000        0.00000098        0.00000640        0.00001441        0.00000474
      25         -0.879854        1.000000        0.00000016        0.00000013        0.00000063        0.00000277
      26         -0.879356        1.000000        0.00000052        0.00000264        0.00000197        0.00000835
      27         -0.877565        1.000000        0.00000017        0.00000109        0.00000088        0.00000162
      28         -0.875874        1.000000        0.00000001        0.00000117        0.00000032        0.00000003
      29         -0.872741        1.000000        0.00000026        0.00000134        0.00000433        0.00000056
      30         -0.872608        1.000000        0.00000096        0.00000061        0.00000092        0.00000492
      31         -0.872093        1.000000        0.00000005        0.00000018        0.00000018        0.00000167
      32         -0.870424        1.000000        0.00000018        0.00000032        0.00000016        0.00000130
      33         -0.868887        1.000000        0.00000004        0.00000059        0.00000005        0.00000045
      34         -0.868092        1.000000        0.00000003        0.00000003        0.00000010        0.00000041
      35         -0.866190        1.000000        0.00000001        0.00000018        0.00000020        0.00000043
      36         -0.861567        1.000000        0.00000002        0.00000023        0.00000002        0.00000003
      37         -0.858645        1.000000        0.00000042        0.00000222        0.00000317        0.00000158
      38         -0.857406        1.000000        0.00000003        0.00000048        0.00000025        0.00000022
      39         -0.854513        1.000000        0.00000043        0.00000009        0.00000010        0.00000142
      40         -0.853342        1.000000        0.00000007        0.00000016        0.00000067        0.00000065
      41         -0.852811        1.000000        0.00000010        0.00000056        0.00000004        0.00000028
      42         -0.851403        1.000000        0.00000001        0.00000035        0.00000256        0.00000258
      43         -0.850268        1.000000        0.00000030        0.00000314        0.00000223        0.00000001
      44         -0.849872        1.000000        0.00000000        0.00000154        0.00000018        0.00000105
      45         -0.849340        1.000000        0.00000015        0.00000115        0.00000000        0.00000005
      46         -0.848152        1.000000        0.00000141        0.00000835        0.00000918        0.00000973
      47         -0.847895        1.000000        0.00000003        0.00000003        0.00000014        0.00000000
      48         -0.845622        1.000000        0.00000043        0.00000121        0.00000006        0.00000000
      49         -0.842436        1.000000        0.00000019        0.00000099        0.00000166        0.00000031
      50         -0.840838        1.000000        0.00000769        0.00000034        0.00002218        0.00000556
      51         -0.839561        1.000000        0.00000004        0.00000009        0.00000042        0.00000018
      52         -0.839465        1.000000        0.00000015        0.00000003        0.00000002        0.00000050
      53         -0.839388        1.000000        0.00000016        0.00000078        0.00000045        0.00000001
      54         -0.838348        1.000000        0.00000004        0.00000002        0.00000003        0.00000018
      55         -0.838231        1.000000        0.00000014        0.00000063        0.00000031        0.00000059
      56         -0.837821        1.000000        0.00000013        0.00000045        0.00000084        0.00000035
      57         -0.837370        1.000000        0.00000017        0.00000001        0.00000059        0.00000000
      58         -0.837208        1.000000        0.00000001        0.00000007        0.00000001        0.00000001
      59         -0.836867        1.000000        0.00000005        0.00000005        0.00000046        0.00000019
      60         -0.835929        1.000000        0.00000192        0.00000004        0.00000565        0.00000140
      61         -0.833962        1.000000        0.00000010        0.00000029        0.00000006        0.00000029
      62         -0.832059        1.000000        0.00000196        0.00001555        0.00001986        0.00002021
      63         -0.831677        1.000000        0.00000038        0.00000009        0.00000017        0.00000103
      64         -0.831426        1.000000        0.00000003        0.00000036        0.00000008        0.00000020
      65         -0.830211        1.000000        0.00000027        0.00000205        0.00000192        0.00000313
      66         -0.829346        1.000000        0.00000088        0.00000425        0.00000812        0.00000321
      67         -0.827819        1.000000        0.00000041        0.00000003        0.00000004        0.00000167
      68         -0.827504        1.000000        0.00000009        0.00000051        0.00000009        0.00000048
      69         -0.822699        1.000000        0.00000013        0.00000033        0.00000066        0.00000035
      70         -0.820240        1.000000        0.00000055        0.00000287        0.00000047        0.00000001
      71         -0.820218        1.000000        0.00000020        0.00000072        0.00000131        0.00000120
      72         -0.819045        1.000000        0.00000010        0.00000078        0.00000070        0.00000055
      73         -0.818910        1.000000        0.00000198        0.00000510        0.00001787        0.00000864
      74         -0.813264        1.000000        0.00000127        0.00001058        0.00000037        0.00000034
      75         -0.811352        1.000000        0.00000048        0.00000342        0.00000396        0.00000109
      76         -0.809118        1.000000        0.00000006        0.00000028        0.00000009        0.00000027
      77         -0.807865        1.000000        0.00000052        0.00000122        0.00000035        0.00000039
      78         -0.807543        1.000000        0.00000007        0.00000004        0.00000007        0.00000029
      79         -0.805303        1.000000        0.00000084        0.00000442        0.00000335        0.00000252
      80         -0.804449        1.000000        0.00000002        0.00000068        0.00000006        0.00000000
      81         -0.804379        1.000000        0.00000017        0.00000007        0.00000008        0.00000046
      82         -0.803402        1.000000        0.00000110        0.00000471        0.00000774        0.00000288
      83         -0.796826        1.000000        0.00000003        0.00000033        0.00000032        0.00000013
      84         -0.793356        1.000000        0.00000120        0.00001062        0.00000025        0.00000061
      85         -0.790390        1.000000        0.00000046        0.00000108        0.00000277        0.00000127
      86         -0.630531        1.000000        0.00003954        0.00004041        0.00002708        0.00002364
      87         -0.613764        1.000000        0.00001376        0.00001329        0.00000379        0.00001528
      88         -0.604606        1.000000        0.00125036        0.00102372        0.00142593        0.00012461
      89         -0.603396        1.000000        0.00019353        0.00016772        0.00012495        0.00017988
      90         -0.602726        1.000000        0.00084931        0.00067006        0.00085000        0.00004649
      91         -0.591218        1.000000        0.00054503        0.00023919        0.00026983        0.00000591
      92         -0.588677        1.000000        0.00027255        0.00024122        0.00023657        0.00001642
      93         -0.581329        1.000000        0.00007688        0.00002148        0.00003628        0.00003509
      94         -0.572554        1.000000        0.00359723        0.00012455        0.00003678        0.00001184
      95         -0.570375        1.000000        0.09898303        0.00030427        0.00639060        0.00060294
      96         -0.569125        1.000000        0.00270191        0.00287475        0.00000598        0.00070747
      97         -0.561235        1.000000        0.00499112        0.00264802        0.00020980        0.00085805
      98         -0.556799        1.000000        0.05760186        0.00268703        0.02646919        0.00918411
      99         -0.550726        1.000000        0.01971139        0.00465220        0.00089243        0.00013286
     100         -0.547832        1.000000        0.10906353        0.00214828        0.00303683        0.00418794
     101         -0.546125        1.000000        0.08523516        0.00150357        0.00533133        0.00051361
     102         -0.545668        1.000000        0.00178725        0.03517162        0.00587305        0.00127064
     103         -0.542035        1.000000        0.00218178        0.00617739        0.00837269        0.02229302
     104         -0.540173        1.000000        0.00457720        0.00277457        0.00015280        0.00234018
     105         -0.539977        1.000000        0.08278733        0.00891862        0.00440810        0.00403952
     106         -0.538110        1.000000        0.04996777        0.00109347        0.01325196        0.00483522
     107         -0.537637        1.000000        0.03247559        0.00982219        0.00293208        0.00675850
     108         -0.537020        1.000000        0.05049785        0.00389086        0.00675429        0.01344714
     109         -0.536458        1.000000        0.07649935        0.00253280        0.00383222        0.01604560
     110         -0.536150        1.000000        0.05803906        0.01068733        0.00565195        0.00484686
     111         -0.534598        1.000000        0.07053501        0.00557225        0.00856595        0.00728987
     112         -0.531895        1.000000        0.03955655        0.00323737        0.01806691        0.01414280
     113         -0.531127        1.000000        0.01300046        0.00141109        0.01265578        0.01292402
     114         -0.529754        1.000000        0.00735925        0.01070311        0.00441585        0.01380836
     115         -0.529250        1.000000        0.00185442        0.02954269        0.00057927        0.00108819
     116         -0.527659        1.000000        0.01528951        0.01181806        0.00580320        0.00750803
     117         -0.526471        1.000000        0.00414389        0.00970619        0.01425802        0.00336869
     118         -0.525774        1.000000        0.00099376        0.01056028        0.00502017        0.00743908
     119         -0.525564        1.000000        0.00265169        0.00914666        0.00671005        0.01393855
     120         -0.522886        1.000000        0.00108104        0.02255288        0.00054882        0.00590030
     121         -0.522396        1.000000        0.00736787        0.00795380        0.00931034        0.01238409
     122         -0.520511        1.000000        0.00647123        0.00107290        0.02512882        0.00209661
     123         -0.520175        1.000000        0.00368352        0.00401116        0.01463639        0.02028189
     124         -0.519290        1.000000        0.01020607        0.00019544        0.02687928        0.00335322
     125         -0.518827        1.000000        0.00254160        0.00114547        0.00285222        0.00575337
     126         -0.518642        1.000000        0.00606425        0.00127940        0.00421160        0.01256261
     127         -0.518304        1.000000        0.00173508        0.00200565        0.00100572        0.00551073
     128         -0.516844        1.000000        0.00318130        0.00145934        0.01004640        0.00891464
     129         -0.507240        1.000000        0.00497473        0.00224889        0.00372103        0.00105197
     130         -0.502454        1.000000        0.00597500        0.00056443        0.00441592        0.00059948
     131         -0.502068        1.000000        0.00394951        0.00050028        0.00169119        0.00078472
     132         -0.492506        1.000000        0.00458932        0.00096662        0.00055844        0.00202473
     133         -0.484946        1.000000        0.00315654        0.00040709        0.00009216        0.00155451
     134         -0.482316        1.000000        0.00531829        0.00005975        0.00080629        0.00226740
     135         -0.481215        1.000000        0.00167127        0.00084543        0.00009211        0.00005862
     136         -0.478234        1.000000        0.00011074        0.00007171        0.00001412        0.00002261
     137         -0.477608        1.000000        0.00090632        0.00007094        0.00002921        0.00016954
     138         -0.475276        1.000000        0.00190075        0.00056323        0.00014828        0.00006612
     139         -0.474404        1.000000        0.00002722        0.00000249        0.00000567        0.00000970
     140         -0.473861        1.000000        0.00002703        0.00000917        0.00000005        0.00000002
     141         -0.472843        1.000000        0.00122930        0.00001009        0.00031964        0.00012077
     142         -0.472416        1.000000        0.00438323        0.00006073        0.00025295        0.00187467
     143         -0.472361        1.000000        0.00348924        0.00036382        0.00013860        0.00107109
     144         -0.468669        1.000000        0.00000940        0.00000250        0.00000091        0.00000180
     145         -0.468237        1.000000        0.00442353        0.00071843        0.00003140        0.00003432
     146         -0.465697        1.000000        0.00024068        0.00024071        0.00008806        0.00146645
     147         -0.464177        1.000000        0.00193861        0.00006114        0.00001634        0.00023287
     148         -0.463155        1.000000        0.00037123        0.00002331        0.00003089        0.00000339
     149         -0.462965        1.000000        0.00015604        0.00005665        0.00000682        0.00000028
     150         -0.460959        1.000000        0.00013681        0.00011611        0.00001773        0.00006884
     151         -0.459946        1.000000        0.00071429        0.00009134        0.00001518        0.00001001
     152         -0.459490        1.000000        0.00076182        0.00000225        0.00000781        0.00014644
     153         -0.457463        1.000000        0.00096429        0.00000239        0.00022656        0.00013751
     154         -0.455569        1.000000        0.00034272        0.00001379        0.00000810        0.00003310
     155         -0.454918        1.000000        0.00053563        0.00022716        0.00037954        0.00005077
     156         -0.454348        1.000000        0.00091199        0.00001267        0.00003359        0.00020078
     157         -0.453780        1.000000        0.00317497        0.00058122        0.00001485        0.00004958
     158         -0.453484        1.000000        0.00559411        0.00002697        0.00006243        0.00020200
     159         -0.452236        1.000000        0.00077553        0.00000354        0.00003354        0.00001307
     160         -0.451747        1.000000        0.00101873        0.00020136        0.00002487        0.00000485
     161         -0.451444        1.000000        0.00070952        0.00004266        0.00000225        0.00014424
     162         -0.450306        1.000000        0.00000838        0.00000558        0.00001784        0.00006018
     163         -0.450045        1.000000        0.00031460        0.00003995        0.00000190        0.00000680
     164         -0.449426        1.000000        0.00039210        0.00000533        0.00000257        0.00003084
     165         -0.445792        1.000000        0.00451823        0.00011647        0.00002937        0.00028246
     166         -0.444896        1.000000        0.00000127        0.00000077        0.00001002        0.00000448
     167         -0.441982        1.000000        0.00210180        0.00068994        0.00026696        0.00001630
     168         -0.440946        1.000000        0.00039692        0.00003397        0.00014190        0.00001674
     169         -0.440847        1.000000        0.00830528        0.00001199        0.00012456        0.00009667
     170         -0.439312        1.000000        0.00068422        0.00003040        0.00000020        0.00001169
     171         -0.439263        1.000000        0.00066756        0.00001564        0.00000065        0.00002528
     172         -0.438190        1.000000        0.00825873        0.00001066        0.00011365        0.00011208
     173         -0.436422        1.000000        0.00104542        0.00000065        0.00001261        0.00001680
     174         -0.435848        1.000000        0.00028085        0.00001246        0.00000170        0.00001961
     175         -0.434809        1.000000        0.00129202        0.00000259        0.00000700        0.00004483
     176         -0.434665        1.000000        0.00069540        0.00009029        0.00000551        0.00003525
     177         -0.434576        1.000000        0.00327996        0.00020125        0.00000282        0.00000653
     178         -0.434556        1.000000        0.01865601        0.00001032        0.00009092        0.00004341
     179         -0.433343        1.000000        0.00011221        0.00000066        0.00002857        0.00000082
     180         -0.432349        1.000000        0.00063427        0.00000547        0.00002201        0.00000805
     181         -0.432300        1.000000        0.00011193        0.00000608        0.00003717        0.00005160
     182         -0.428043        1.000000        0.00033943        0.00000012        0.00001085        0.00000087
     183         -0.427552        1.000000        0.16288925        0.00007196        0.00011424        0.00011860
     184         -0.427513        1.000000        0.42457854        0.00017353        0.00020329        0.00016732
     185         -0.426462        1.000000        0.00781513        0.00001050        0.00001533        0.00008989
     186         -0.425906        1.000000        0.00272374        0.00000019        0.00002117        0.00001146
     187         -0.425405        1.000000        0.06598812        0.00001863        0.00000917        0.00006194
     188         -0.422797        1.000000        0.00075456        0.00000340        0.00000631        0.00000516
     189         -0.421258        1.000000        0.01105395        0.00000414        0.00000436        0.00003722
     190         -0.420844        1.000000        0.00122171        0.00000127        0.00000185        0.00000173
     191         -0.420013        1.000000        0.04751241        0.00010420        0.00011262        0.00004582
     192         -0.419152        1.000000        0.00055955        0.00000183        0.00000234        0.00000037
     193         -0.418913        1.000000        0.04024320        0.00001690        0.00005699        0.00006894
     194         -0.415844        1.000000        0.18976730        0.00003415        0.00025997        0.00015413
     195         -0.415456        1.000000        0.44483506        0.00008066        0.00042675        0.00051299
     196         -0.414934        1.000000        0.19530769        0.00001647        0.00007561        0.00007359
     197         -0.414882        1.000000        0.45098969        0.00002403        0.00017079        0.00013000
     198         -0.413610        1.000000        0.01245057        0.00000879        0.00001270        0.00000418
     199         -0.413413        1.000000        0.13436257        0.00002048        0.00006373        0.00015081
     200         -0.412879        1.000000        0.01406343        0.00001254        0.00001896        0.00006918
     201         -0.411689        1.000000        0.00255004        0.00000111        0.00000062        0.00000436
     202         -0.411529        1.000000        0.40852523        0.00005247        0.00021749        0.00048550
     203         -0.410561        1.000000        0.00137118        0.00000197        0.00000129        0.00000447
     204         -0.410201        1.000000        0.24974246        0.00003203        0.00036186        0.00038539
     205         -0.408774        1.000000        0.23913831        0.00012161        0.00013597        0.00018674
     206         -0.407468        1.000000        0.06916231        0.00000341        0.00007365        0.00000315
     207         -0.406634        1.000000        0.07617454        0.00024659        0.00004469        0.00012466
     208         -0.405800        1.000000        0.55370135        0.00013873        0.00026356        0.00057911
     209         -0.404271        1.000000        0.00261100        0.00000146        0.00000084        0.00000313
     210         -0.403298        1.000000        0.00242883        0.00005277        0.00000551        0.00000071
     211         -0.402935        1.000000        0.01004903        0.00001441        0.00000882        0.00001220
     212         -0.402570        1.000000        0.68253427        0.00020780        0.00003792        0.00017683
     213         -0.401794        1.000000        0.67322387        0.00022571        0.00029653        0.00053714
     214         -0.401052        1.000000        0.64161612        0.00039409        0.00012300        0.00034929
     215         -0.399498        1.000000        0.01442954        0.00004665        0.00002333        0.00003293
     216         -0.398051        1.000000        0.02153413        0.00003637        0.00003976        0.00000254
     217         -0.395842        1.000000        0.03417529        0.00004285        0.00001120        0.00008616
     218         -0.395451        1.000000        0.00313421        0.00000697        0.00000062        0.00000087
     219         -0.395013        1.000000        0.00714642        0.00000824        0.00004633        0.00000320
     220         -0.394846        1.000000        0.00914782        0.00000290        0.00002555        0.00000167
     221         -0.393253        1.000000        0.00072823        0.00004036        0.00000005        0.00000384
     222         -0.389440        1.000000        0.00056960        0.00002123        0.00000812        0.00000004
     223         -0.388826        1.000000        0.00018261        0.00002341        0.00000000        0.00002841
     224         -0.384148        1.000000        0.00059268        0.00000495        0.00000105        0.00001543
     225         -0.383338        1.000000        0.00048004        0.00000110        0.00000687        0.00000338
     226         -0.380726        1.000000        0.00088646        0.00004576        0.00005230        0.00006724
     227         -0.380658        1.000000        0.00210773        0.00020087        0.00018631        0.00031192
     228         -0.378853        1.000000        0.00097899        0.00003389        0.00003649        0.00000882
     229         -0.378096        1.000000        0.00015169        0.00004652        0.00000207        0.00015777
     230         -0.376898        1.000000        0.00151702        0.00000142        0.00008508        0.00001109
     231         -0.375658        1.000000        0.00020767        0.00006105        0.00002900        0.00000122
     232         -0.371036        1.000000        0.00053524        0.00002468        0.00000409        0.00000684
     233         -0.368574        1.000000        0.00139559        0.00001086        0.00009418        0.00000197
     234         -0.364545        1.000000        0.00036253        0.00001067        0.00001568        0.00001063
     235         -0.361036        1.000000        0.00016999        0.00001586        0.00003334        0.00002397
     236         -0.353424        1.000000        0.00045286        0.00003341        0.00001508        0.00001422
     237         -0.352841        1.000000        0.00008762        0.00016246        0.00001127        0.00000680
     238         -0.352199        1.000000        0.00009433        0.00001614        0.00000627        0.00002241
     239         -0.348784        1.000000        0.00066732        0.00013615        0.00032459        0.00003059
     240         -0.348277        1.000000        0.00038122        0.00041328        0.00000504        0.00001709
     241         -0.347527        1.000000        0.00038910        0.00016253        0.00015662        0.00014844
     242         -0.339081        1.000000        0.00011277        0.00001544        0.00002044        0.00003105
     243         -0.336848        1.000000        0.00002536        0.00003803        0.00021720        0.00007975
     244         -0.335589        1.000000        0.00042197        0.00003088        0.00029626        0.00022383
     245         -0.335158        1.000000        0.00004323        0.00017789        0.00009562        0.00000180
     246         -0.331105        1.000000        0.00033385        0.00037898        0.00031898        0.00066012
     247         -0.330514        1.000000        0.00015250        0.00001598        0.00003226        0.00010357
     248         -0.327889        1.000000        0.00050177        0.00007436        0.00004301        0.00015427
     249         -0.327572        1.000000        0.00036972        0.00001535        0.00002216        0.00018758
     250         -0.327314        1.000000        0.00019777        0.00015237        0.00000729        0.00007919
     251         -0.325814        1.000000        0.00044999        0.00011952        0.00097331        0.00033239
     252         -0.325775        1.000000        0.00013484        0.00009308        0.00011436        0.00033482
     253         -0.323749        1.000000        0.00002333        0.00002209        0.00006664        0.00011818
     254         -0.323101        1.000000        0.00056560        0.00011078        0.00011047        0.00039398
     255         -0.322316        1.000000        0.00006112        0.00005479        0.00006200        0.00006284
     256         -0.314659        1.000000        0.00041473        0.00004245        0.00011770        0.00089408
     257         -0.314018        1.000000        0.00006117        0.00021437        0.00009545        0.00005482
     258         -0.312933        1.000000        0.00010668        0.00008253        0.00020942        0.00004881
     259         -0.312526        1.000000        0.00030885        0.00020941        0.00005325        0.00019929