# Projected DOS for atomic kind O at iteration step i = 0, E(Fermi) =    -0.128954 a.u.
#     MO Eigenvalue [a.u.]      Occupation                 s                py                pz                px
       1         -0.933491        1.000000        0.71384374        0.00400372        0.01808980        0.00979949
       2         -0.923274        1.000000        0.71752035        0.01530446        0.00371988        0.01095749
       3         -0.922568        1.000000        0.70300444        0.01430416        0.00940119        0.00324870
       4         -0.917149        1.000000        0.70994107        0.00336783        0.00066525        0.02889338
       5         -0.914847        1.000000        0.70797619        0.03109072        0.00547997        0.00017010
       6         -0.911734        1.000000        0.71483166        0.01524337        0.00552729        0.01066763
       7         -0.907239        1.000000        0.70771771        0.02045484        0.00434538        0.01400951
       8         -0.906524        1.000000        0.70587322        0.00793875        0.01835475        0.00356640
       9         -0.906511        1.000000        0.71526983        0.00982351        0.00956312        0.00353017
      10         -0.906055        1.000000        0.71235607        0.00374349        0.02065056        0.00423195
      11         -0.905718        1.000000        0.70888489        0.00495909        0.02085467        0.00457589
      12         -0.903046        1.000000        0.71150072        0.00216882        0.02253788        0.00328580
      13         -0.899914        1.000000        0.70902768        0.02544078        0.00937651        0.00108274
      14         -0.896969        1.000000        0.70897310        0.00693050        0.02206305        0.00380325
      15         -0.891150        1.000000        0.71086697        0.01804749        0.01193384        0.00130964
      16         -0.888150        1.000000        0.73113226        0.01148459        0.00914626        0.01003536
      17         -0.888111        1.000000        0.72607466        0.00344275        0.02710239        0.00160343
      18         -0.887572        1.000000        0.00000026        0.00000001        0.00000001        0.00000000
      19         -0.884970        1.000000        0.71657468        0.01496178        0.01806028        0.00287206
      20         -0.884408        1.000000        0.74387250        0.01781651        0.01193046        0.00687494
      21         -0.882452        1.000000        0.69032950        0.01258924        0.00517507        0.01624704
      22         -0.881892        1.000000        0.72523900        0.01718558        0.00676747        0.00987162
      23         -0.881027        1.000000        0.70616331        0.02627281        0.00783929        0.00524895
      24         -0.880632        1.000000        0.71880535        0.01157562        0.00873542        0.00228919
      25         -0.879857        1.000000        0.71004633        0.00650953        0.01106471        0.00399916
      26         -0.879359        1.000000        0.70528733        0.00273264        0.00010488        0.03522872
      27         -0.877567        1.000000        0.00011602        0.00000597        0.00000710        0.00000711
      28         -0.875876        1.000000        0.71863863        0.01573905        0.00745807        0.00867253
      29         -0.872907        1.000000        0.72689743        0.00913617        0.01134691        0.00790905
      30         -0.872742        1.000000        0.71416638        0.00940184        0.01728400        0.00279622
      31         -0.872568        1.000000        0.71760795        0.01281163        0.00758230        0.01195797
      32         -0.872093        1.000000        0.69239684        0.01877099        0.00253929        0.00832969
      33         -0.868890        1.000000        0.71311832        0.00516595        0.01263909        0.00917389
      34         -0.868093        1.000000        0.70648875        0.03761412        0.00047376        0.00199234
      35         -0.866192        1.000000        0.68572828        0.00397964        0.00955506        0.00199395
      36         -0.861562        1.000000        0.71837316        0.00353898        0.01485447        0.01039865
      37         -0.858654        1.000000        0.70398976        0.02171823        0.01177525        0.00625202
      38         -0.857406        1.000000        0.76021058        0.00252522        0.02284787        0.01005159
      39         -0.854516        1.000000        0.71144240        0.01478701        0.00783725        0.00980858
      40         -0.853343        1.000000        0.60931969        0.00887736        0.00688523        0.00530689
      41         -0.852823        1.000000        0.70038196        0.00749080        0.00779220        0.00729204
      42         -0.851403        1.000000        0.73901281        0.01332214        0.00856349        0.00591707
      43         -0.850264        1.000000        0.76997256        0.01211183        0.02891084        0.00256294
      44         -0.849873        1.000000        0.73549645        0.01318585        0.00695617        0.00257132
      45         -0.849341        1.000000        0.71153167        0.02329119        0.00209205        0.00722679
      46         -0.848148        1.000000        0.71160477        0.01419941        0.00556221        0.00387273
      47         -0.847897        1.000000        0.69266530        0.03217588        0.00152188        0.01620095
      48         -0.845708        1.000000        0.74326849        0.02436283        0.00228047        0.02063335
      49         -0.845607        1.000000        0.69816611        0.01287654        0.03515038        0.00094105
      50         -0.842454        1.000000        0.65100511        0.00843309        0.00149810        0.00574889
      51         -0.842103        1.000000        0.74953299        0.02338540        0.00276776        0.01530103
      52         -0.839594        1.000000        0.71187084        0.02641762        0.01005445        0.00306426
      53         -0.839561        1.000000        0.69237267        0.00087246        0.00533799        0.04368085
      54         -0.839389        1.000000        0.73120927        0.01211699        0.01118747        0.00452471
      55         -0.838350        1.000000        0.64669995        0.01819743        0.00382569        0.00185433
      56         -0.838168        1.000000        0.72369002        0.00118470        0.01765854        0.01201836
      57         -0.837815        1.000000        0.42055526        0.00807424        0.00514876        0.00794293
      58         -0.837398        1.000000        0.69314713        0.03127073        0.01694837        0.00160142
      59         -0.837206        1.000000        0.69603222        0.00020858        0.04261427        0.00345267
      60         -0.836867        1.000000        0.69269730        0.04124340        0.00836811        0.00026312
      61         -0.833968        1.000000        0.65693264        0.00824266        0.01170775        0.00677404
      62         -0.832060        1.000000        0.05863620        0.00707411        0.00033174        0.00328166
      63         -0.831683        1.000000        0.72449673        0.02103711        0.00919603        0.00729610
      64         -0.831468        1.000000        0.69221386        0.00002111        0.00881995        0.04140295
      65         -0.830208        1.000000        0.69138487        0.00027162        0.04574327        0.00438190
      66         -0.829348        1.000000        0.60498514        0.00975026        0.00301980        0.00637056
      67         -0.827826        1.000000        0.70154538        0.01341718        0.01911461        0.00521086
      68         -0.827509        1.000000        0.67814500        0.01052068        0.00991394        0.01122361
      69         -0.822700        1.000000        0.49032248        0.00540527        0.01595413        0.00506846
      70         -0.820308        1.000000        0.69511150        0.00019993        0.00542632        0.04351889
      71         -0.819047        1.000000        0.69199978        0.01300307        0.00809402        0.02916305
      72         -0.818911        1.000000        0.50732761        0.00853487        0.00822480        0.00617237
      73         -0.816191        1.000000        0.71300148        0.00590738        0.02181767        0.01795037
      74         -0.813252        1.000000        0.77597805        0.01719140        0.01190002        0.01081864
      75         -0.811381        1.000000        0.52742398        0.00949914        0.01410317        0.00947637
      76         -0.809123        1.000000        0.20681755        0.00266015        0.00666126        0.00577624
      77         -0.808080        1.000000        0.70718938        0.02038597        0.02259513        0.00493542
      78         -0.807584        1.000000        0.73638047        0.00364735        0.02253659        0.02065752
      79         -0.805432        1.000000        0.70641619        0.02815289        0.01743012        0.00165959
      80         -0.804615        1.000000        0.70671324        0.01986002        0.00622915        0.02208848
      81         -0.804360        1.000000        0.71832659        0.00898509        0.01641810        0.02185429
      82         -0.803411        1.000000        0.66337401        0.00802041        0.00979077        0.01489949
      83         -0.796828        1.000000        0.11430030        0.00665272        0.00741016        0.00145871
      84         -0.793352        1.000000        0.79530636        0.01879667        0.01198255        0.00658603
      85         -0.790394        1.000000        0.73104523        0.00902507        0.00825171        0.01749515
      86         -0.630539        1.000000        0.00000003        0.00000010        0.00000003        0.00000003
      87         -0.613767        1.000000        0.00026688        0.00006678        0.00082543        0.00056335
      88         -0.604616        1.000000        0.00239813        0.00760175        0.00188254        0.00133472
      89         -0.603400        1.000000        0.00016034        0.00129351        0.00021565        0.00118099
      90         -0.602736        1.000000        0.00147173        0.00431167        0.00157749        0.00098745
      91         -0.591221        1.000000        0.00082093        0.00252984        0.00327533        0.00023644
      92         -0.588678        1.000000        0.00081085        0.00267697        0.00347386        0.00022594
      93         -0.581333        1.000000        0.00040967        0.00242032        0.00200666        0.00061752
      94         -0.572573        1.000000        0.00026475        0.00141564        0.00153684        0.00022479
      95         -0.571026        1.000000        0.00083004        0.00104385        0.00489095        0.00101824
      96         -0.569198        1.000000        0.00446030        0.00277757        0.00216435        0.01681708
      97         -0.561263        1.000000        0.00876224        0.00322428        0.00390446        0.01938046
      98         -0.557081        1.000000        0.00052429        0.00051901        0.00219433        0.00065754
      99         -0.554484        1.000000        0.00096989        0.00199271        0.00307109        0.00086881
     100         -0.549986        1.000000        0.00085982        0.00394785        0.00118380        0.00054629
     101         -0.547890        1.000000        0.00081624        0.00705168        0.00112766        0.00103695
     102         -0.545672        1.000000        0.00023922        0.00045499        0.00035293        0.00041950
     103         -0.542341        1.000000        0.00089687        0.00076890        0.00099986        0.00044819
     104         -0.541844        1.000000        0.00059941        0.00085249        0.00178657        0.00102087
     105         -0.540197        1.000000        0.00075400        0.00662722        0.00467621        0.00141681
     106         -0.540048        1.000000        0.00084192        0.00342165        0.00145072        0.00295676
     107         -0.537827        1.000000        0.00066826        0.00651798        0.00203351        0.00201891
     108         -0.537657        1.000000        0.00054386        0.00688469        0.00229140        0.00207378
     109         -0.536742        1.000000        0.00130384        0.00938878        0.00357429        0.00386177
     110         -0.536274        1.000000        0.00082861        0.00551899        0.00296027        0.00384866
     111         -0.534928        1.000000        0.00063024        0.00111669        0.00116015        0.00240746
     112         -0.533343        1.000000        0.00054030        0.00198186        0.00267034        0.00404174
     113         -0.531903        1.000000        0.00066130        0.00161709        0.00095773        0.00252910
     114         -0.531533        1.000000        0.00083933        0.00222972        0.00246572        0.00160033
     115         -0.529936        1.000000        0.00175666        0.00714206        0.00567051        0.01478832
     116         -0.527669        1.000000        0.00142983        0.00214848        0.00539570        0.01844121
     117         -0.526615        1.000000        0.00124692        0.00777405        0.00551773        0.00940981
     118         -0.525833        1.000000        0.00122833        0.01511628        0.00919821        0.00864045
     119         -0.525806        1.000000        0.00087840        0.00699273        0.00981901        0.01350401
     120         -0.522784        1.000000        0.00059718        0.00085321        0.00077567        0.00446197
     121         -0.522591        1.000000        0.00016902        0.00057483        0.00044057        0.00098169
     122         -0.520509        1.000000        0.00086685        0.00422741        0.00498691        0.01344395
     123         -0.520112        1.000000        0.00096989        0.00065769        0.00091735        0.00395319
     124         -0.519294        1.000000        0.00081708        0.00598349        0.00296662        0.00648546
     125         -0.519129        1.000000        0.00097379        0.00119172        0.00080997        0.00513038
     126         -0.518650        1.000000        0.00136915        0.00262131        0.00518522        0.01864952
     127         -0.518566        1.000000        0.00123157        0.00096847        0.00122206        0.00581234
     128         -0.516788        1.000000        0.00021092        0.00029548        0.00174119        0.00707639
     129         -0.507571        1.000000        0.00002511        0.00057348        0.00054116        0.00084306
     130         -0.502754        1.000000        0.00003033        0.00249082        0.00040347        0.00089076
     131         -0.502099        1.000000        0.00004941        0.01849976        0.00186660        0.00233484
     132         -0.492495        1.000000        0.00003838        0.01935898        0.00144261        0.00222142
     133         -0.484957        1.000000        0.00110125        0.50273265        0.02443067        0.04654529
     134         -0.482317        1.000000        0.00292255        0.03969346        0.16356267        0.37504954
     135         -0.481216        1.000000        0.00074199        0.20288210        0.07968072        0.11075555
     136         -0.478235        1.000000        0.00099581        0.05994051        0.33556985        0.25419319
     137         -0.477642        1.000000        0.00021035        0.03567007        0.31239820        0.28531682
     138         -0.475277        1.000000        0.00045533        0.19128550        0.08433206        0.06600662
     139         -0.474407        1.000000        0.00307820        0.34046695        0.02103123        0.26976127
     140         -0.473861        1.000000        0.00122802        0.14142753        0.50273184        0.00526794
     141         -0.472955        1.000000        0.00014069        0.01078218        0.00513976        0.00602843
     142         -0.472421        1.000000        0.00312466        0.10552130        0.05899911        0.42771753
     143         -0.472362        1.000000        0.00141852        0.37305743        0.01228470        0.22918135
     144         -0.468667        1.000000        0.00026923        0.24301519        0.01583829        0.37101386
     145         -0.468238        1.000000        0.00157853        0.02409298        0.14370198        0.44601915
     146         -0.465696        1.000000        0.00164550        0.02325455        0.14112077        0.43159768
     147         -0.464210        1.000000        0.00038038        0.55866068        0.04232983        0.02905452
     148         -0.463164        1.000000        0.00063777        0.00920417        0.18355457        0.00127254
     149         -0.462966        1.000000        0.00313103        0.11990857        0.06570638        0.47334659
     150         -0.460961        1.000000        0.00105507        0.06979359        0.04905059        0.07171525
     151         -0.459947        1.000000        0.00170497        0.25891327        0.35670007        0.03032383
     152         -0.459487        1.000000        0.00053310        0.36506218        0.08983722        0.18171377
     153         -0.457464        1.000000        0.00044488        0.00971960        0.25481161        0.37135883
     154         -0.455572        1.000000        0.00036266        0.03636021        0.01190651        0.59212722
     155         -0.454926        1.000000        0.00020273        0.01632837        0.01540620        0.01424433
     156         -0.454351        1.000000        0.00269715        0.21758910        0.19442078        0.20971129
     157         -0.453780        1.000000        0.00174078        0.02582673        0.06194456        0.52217757
     158         -0.453485        1.000000        0.00232565        0.18049503        0.24938496        0.20886794
     159         -0.452228        1.000000        0.00222794        0.08517748        0.54682665        0.01296504
     160         -0.451748        1.000000        0.00327896        0.02247760        0.19551639        0.30790795
     161         -0.451451        1.000000        0.00004735        0.00149342        0.00101495        0.00147276
     162         -0.450329        1.000000        0.00509335        0.02166829        0.57692106        0.04665077
     163         -0.450046        1.000000        0.00350839        0.19453365        0.09960543        0.35022111
     164         -0.449429        1.000000        0.00027051        0.04329875        0.03773482        0.03244031
     165         -0.445793        1.000000        0.00117642        0.13745144        0.01429236        0.48485242
     166         -0.444897        1.000000        0.00286182        0.22093869        0.15782554        0.27418701
     167         -0.441983        1.000000        0.00026371        0.08554230        0.48774910        0.00772379
     168         -0.440947        1.000000        0.00045141        0.19140666        0.32958499        0.12349180
     169         -0.440850        1.000000        0.00154650        0.13556778        0.14716586        0.28384927
     170         -0.439320        1.000000        0.00006904        0.10005053        0.01160647        0.38844827
     171         -0.439274        1.000000        0.00014871        0.08066321        0.02738328        0.17021030
     172         -0.438196        1.000000        0.00055010        0.03651168        0.05980920        0.11400948
     173         -0.436427        1.000000        0.00227605        0.46499566        0.09104102        0.09238463
     174         -0.435850        1.000000        0.00223735        0.12222620        0.30825793        0.21178949
     175         -0.434973        1.000000        0.00485513        0.05440490        0.01803711        0.56029409
     176         -0.434810        1.000000        0.00536286        0.19478854        0.32454884        0.10279253
     177         -0.434667        1.000000        0.00154688        0.05448670        0.33457358        0.25468815
     178         -0.434578        1.000000        0.00076214        0.06119174        0.46315636        0.11434839
     179         -0.433342        1.000000        0.00596199        0.16595113        0.13607815        0.35794956
     180         -0.432370        1.000000        0.00204189        0.29145665        0.10044578        0.23086409
     181         -0.432302        1.000000        0.00149316        0.10717821        0.34822625        0.19415439
     182         -0.428443        1.000000        0.00482762        0.11705683        0.01430816        0.51124772
     183         -0.428043        1.000000        0.00446843        0.26518154        0.03255381        0.35172963
     184         -0.427830        1.000000        0.00031075        0.00562998        0.05250055        0.01625603
     185         -0.427543        1.000000        0.00292576        0.23167640        0.19229370        0.21814288
     186         -0.426465        1.000000        0.00361216        0.24390463        0.24033231        0.15140148
     187         -0.425432        1.000000        0.00004168        0.00702574        0.58459592        0.00106232
     188         -0.422799        1.000000        0.00129818        0.05313813        0.05284071        0.03778662
     189         -0.421318        1.000000        0.00134632        0.12816604        0.17944969        0.30871345
     190         -0.420838        1.000000        0.00510487        0.04188574        0.22822384        0.37847827
     191         -0.420237        1.000000        0.00026253        0.21371284        0.12144820        0.21255269
     192         -0.419153        1.000000        0.00783625        0.08478417        0.46428271        0.10660130
     193         -0.418911        1.000000        0.00278696        0.08356740        0.05243263        0.47640657
     194         -0.417003        1.000000        0.00076443        0.04334874        0.04233180        0.05266770
     195         -0.415848        1.000000        0.00149116        0.04150875        0.03050183        0.40049766
     196         -0.415470        1.000000        0.00157427        0.03797795        0.06272628        0.16208506
     197         -0.414947        1.000000        0.00457569        0.16131223        0.40908305        0.02245418
     198         -0.413627        1.000000        0.00572815        0.09738773        0.37879867        0.17896853
     199         -0.413415        1.000000        0.00391374        0.06662847        0.39891094        0.05887233
     200         -0.412879        1.000000        0.00567724        0.14720718        0.11885956        0.37322614
     201         -0.411692        1.000000        0.00341683        0.29021134        0.12342999        0.21406474
     202         -0.411538        1.000000        0.00055936        0.01472625        0.07483516        0.01843769
     203         -0.410562        1.000000        0.00359667        0.15986444        0.28630996        0.20434811
     204         -0.410228        1.000000        0.00025683        0.00359832        0.01468332        0.00562670
     205         -0.408817        1.000000        0.00259626        0.32884851        0.04585230        0.03607922
     206         -0.407469        1.000000        0.00002136        0.02242400        0.37566579        0.17062008
     207         -0.406783        1.000000        0.00337141        0.06685283        0.42319060        0.10754638
     208         -0.405856        1.000000        0.00195956        0.11268808        0.03627352        0.01890504
     209         -0.404287        1.000000        0.00398498        0.27796633        0.28479228        0.08052396
     210         -0.403290        1.000000        0.00002900        0.06266937        0.07024234        0.49764992
     211         -0.402908        1.000000        0.00705618        0.03917553        0.19560485        0.39886177
     212         -0.402563        1.000000        0.00027335        0.00492607        0.03959211        0.02370233
     213         -0.401801        1.000000        0.00056800        0.03580324        0.00993669        0.01344251
     214         -0.401072        1.000000        0.00052948        0.04635534        0.02140515        0.01905285
     215         -0.399497        1.000000        0.00593627        0.05715509        0.10683630        0.46872835
     216         -0.398052        1.000000        0.00012814        0.27178327        0.32137564        0.01639392
     217         -0.395849        1.000000        0.00043987        0.01359827        0.02458979        0.01310048
     218         -0.395444        1.000000        0.00004393        0.02987594        0.04515934        0.54863073
     219         -0.395023        1.000000        0.00006891        0.03011894        0.00405685        0.59047367
     220         -0.394847        1.000000        0.00009829        0.04629233        0.09706226        0.47770040
     221         -0.392208        1.000000        0.00472183        0.26082158        0.26412459        0.11671903
     222         -0.389460        1.000000        0.00001047        0.09579638        0.43943113        0.09297255
     223         -0.388824        1.000000        0.00000834        0.42970975        0.00645952        0.19009717
     224         -0.384172        1.000000        0.00453703        0.39648336        0.09147241        0.12922394
     225         -0.383348        1.000000        0.00192239        0.23038332        0.32800831        0.02759537
     226         -0.380739        1.000000        0.00217289        0.00218427        0.03240604        0.00587156
     227         -0.380661        1.000000        0.00293993        0.02079520        0.00249568        0.01662728
     228         -0.378942        1.000000        0.00544775        0.23489320        0.14052602        0.24442818
     229         -0.378169        1.000000        0.00431640        0.18334070        0.10888518        0.32942877
     230         -0.376911        1.000000        0.00002044        0.60060332        0.02637582        0.00012509
     231         -0.375660        1.000000        0.00001077        0.29373436        0.33118459        0.00285009
     232         -0.371120        1.000000        0.00485240        0.05577903        0.34622030        0.23571682
     233         -0.368573        1.000000        0.12769417        0.31783910        0.27440057        0.07869076
     234         -0.364545        1.000000        0.00042056        0.00709366        0.02547539        0.01069715
     235         -0.361039        1.000000        0.00549403        0.03602325        0.02436063        0.01038466
     236         -0.353425        1.000000        0.12939416        0.11538968        0.45123625        0.12249956
     237         -0.352840        1.000000        0.10712317        0.20236088        0.28379343        0.17404022
     238         -0.352203        1.000000        0.00458704        0.01891175        0.01037442        0.02768517
     239         -0.348794        1.000000        0.00006413        0.00015031        0.00014803        0.00010269
     240         -0.348274        1.000000        0.11807219        0.16058078        0.20470558        0.30178793
     241         -0.347537        1.000000        0.00028363        0.00039746        0.00051010        0.00066545
     242         -0.339085        1.000000        0.02391862        0.02254875        0.11820769        0.02619695
     243         -0.336849        1.000000        0.12122531        0.26031116        0.24978367        0.19922823
     244         -0.335592        1.000000        0.04154056        0.12008337        0.02225547        0.09220392
     245         -0.335160        1.000000        0.12031614        0.04985341        0.44277040        0.20293339
     246         -0.331109        1.000000        0.00684028        0.00435531        0.00373744        0.05133998
     247         -0.330517        1.000000        0.00193455        0.00733760        0.00979348        0.00299826
     248         -0.327895        1.000000        0.12424058        0.25832110        0.17455220        0.17829910
     249         -0.327590        1.000000        0.00519013        0.01502647        0.01947192        0.01511156
     250         -0.327327        1.000000        0.13492957        0.28377400        0.22703491        0.15445068
     251         -0.326085        1.000000        0.13196093        0.06206679        0.31003715        0.28490372
     252         -0.325879        1.000000        0.02385013        0.01674709        0.05243635        0.04618098
     253         -0.324797        1.000000        0.12730426        0.06050768        0.30951779        0.23845834
     254         -0.323102        1.000000        0.12624096        0.33807384        0.16100643        0.22769276
     255         -0.322329        1.000000        0.02604679        0.03762043        0.05894398        0.09504483
     256         -0.314665        1.000000        0.12549804        0.31074203        0.19968180        0.16741437
     257         -0.314022        1.000000        0.06126930        0.11079276        0.10450817        0.14887552
     258         -0.312936        1.000000        0.01269915        0.02580331        0.02350694        0.02469942
     259         -0.312525        1.000000        0.13017584        0.11405253        0.23257201        0.28523562