# Projected DOS for atomic kind O at iteration step i = 0, E(Fermi) =    -0.128951 a.u.
#     MO Eigenvalue [a.u.]      Occupation                 s                py                pz                px
       1         -0.933489        1.000000        0.71384454        0.00400391        0.01808934        0.00979950
       2         -0.923274        1.000000        0.71751821        0.01530499        0.00371996        0.01095761
       3         -0.922567        1.000000        0.70300502        0.01430399        0.00940119        0.00324871
       4         -0.917149        1.000000        0.70994097        0.00336784        0.00066524        0.02889363
       5         -0.914829        1.000000        0.70797256        0.03108736        0.00547919        0.00017041
       6         -0.911733        1.000000        0.71483179        0.01524344        0.00552725        0.01066774
       7         -0.907239        1.000000        0.70771770        0.02045537        0.00434543        0.01400814
       8         -0.906524        1.000000        0.70587301        0.00793884        0.01835475        0.00356635
       9         -0.906511        1.000000        0.71527053        0.00982384        0.00956306        0.00353029
      10         -0.906027        1.000000        0.71245234        0.00371057        0.02074101        0.00423959
      11         -0.905718        1.000000        0.70888605        0.00495883        0.02085479        0.00457579
      12         -0.903045        1.000000        0.71152039        0.00215743        0.02256452        0.00328874
      13         -0.899914        1.000000        0.70902879        0.02544079        0.00937657        0.00108274
      14         -0.896968        1.000000        0.70897462        0.00693048        0.02206276        0.00380314
      15         -0.891149        1.000000        0.71086793        0.01804723        0.01193382        0.00130969
      16         -0.888149        1.000000        0.73113805        0.01148375        0.00914475        0.01003730
      17         -0.888110        1.000000        0.72607536        0.00344271        0.02710225        0.00160342
      18         -0.887551        1.000000        0.00000025        0.00000001        0.00000001        0.00000000
      19         -0.884965        1.000000        0.71657569        0.01496149        0.01806660        0.00287021
      20         -0.884408        1.000000        0.74387384        0.01781663        0.01192999        0.00687505
      21         -0.882451        1.000000        0.69033129        0.01258913        0.00517512        0.01624707
      22         -0.881891        1.000000        0.72523942        0.01718573        0.00676745        0.00987167
      23         -0.881080        1.000000        0.70604375        0.02618116        0.00786645        0.00525773
      24         -0.880631        1.000000        0.71880533        0.01157545        0.00873513        0.00228937
      25         -0.879854        1.000000        0.71004586        0.00651031        0.01106372        0.00399970
      26         -0.879356        1.000000        0.70528831        0.00273302        0.00010492        0.03522785
      27         -0.877565        1.000000        0.00011565        0.00000596        0.00000711        0.00000710
      28         -0.875874        1.000000        0.71863865        0.01573885        0.00745795        0.00867185
      29         -0.872741        1.000000        0.71416632        0.00940192        0.01728384        0.00279623
      30         -0.872608        1.000000        0.72708908        0.00858773        0.01151680        0.00828296
      31         -0.872093        1.000000        0.69239860        0.01877061        0.00253977        0.00832949
      32         -0.870424        1.000000        0.71974227        0.00878624        0.00850653        0.01486627
      33         -0.868887        1.000000        0.71312185        0.00516576        0.01264000        0.00917426
      34         -0.868092        1.000000        0.70648736        0.03761611        0.00047316        0.00199286
      35         -0.866190        1.000000        0.68576960        0.00398026        0.00955538        0.00200338
      36         -0.861567        1.000000        0.71836071        0.00353851        0.01485038        0.01039217
      37         -0.858645        1.000000        0.70398663        0.02172488        0.01177353        0.00624972
      38         -0.857406        1.000000        0.76021242        0.00252525        0.02284821        0.01005144
      39         -0.854513        1.000000        0.71144692        0.01478948        0.00783499        0.00980932
      40         -0.853342        1.000000        0.60929588        0.00887681        0.00688497        0.00530240
      41         -0.852811        1.000000        0.70036661        0.00749231        0.00779091        0.00729055
      42         -0.851403        1.000000        0.73901273        0.01332362        0.00856230        0.00591771
      43         -0.850268        1.000000        0.76997773        0.01211121        0.02891096        0.00256266
      44         -0.849872        1.000000        0.73549661        0.01318529        0.00695683        0.00257138
      45         -0.849340        1.000000        0.71153637        0.02329541        0.00209007        0.00722802
      46         -0.848152        1.000000        0.71160604        0.01420356        0.00556547        0.00387581
      47         -0.847895        1.000000        0.69266709        0.03217559        0.00152186        0.01620069
      48         -0.845622        1.000000        0.69817521        0.01287437        0.03515171        0.00094226
      49         -0.842436        1.000000        0.64550178        0.00754374        0.00141801        0.00516997
      50         -0.840838        1.000000        0.75401173        0.02494767        0.00265211        0.01554436
      51         -0.839561        1.000000        0.69237292        0.00087244        0.00533801        0.04368088
      52         -0.839465        1.000000        0.71183452        0.02644737        0.01004500        0.00306872
      53         -0.839388        1.000000        0.73123458        0.01211667        0.01118760        0.00452413
      54         -0.838348        1.000000        0.64670992        0.01819917        0.00382459        0.00185395
      55         -0.838231        1.000000        0.72366120        0.00119980        0.01766234        0.01199780
      56         -0.837821        1.000000        0.42183155        0.00814661        0.00514708        0.00800789
      57         -0.837370        1.000000        0.69312445        0.03124947        0.01696864        0.00160296
      58         -0.837208        1.000000        0.69603218        0.00023208        0.04259806        0.00345178
      59         -0.836867        1.000000        0.69269811        0.04124317        0.00836815        0.00026313
      60         -0.835929        1.000000        0.73205419        0.02930468        0.00133068        0.01798334
      61         -0.833962        1.000000        0.65701507        0.00824932        0.01170185        0.00677651
      62         -0.832059        1.000000        0.05858818        0.00707341        0.00033090        0.00328136
      63         -0.831677        1.000000        0.72448942        0.02103035        0.00919803        0.00730130
      64         -0.831426        1.000000        0.69218964        0.00002104        0.00882034        0.04140496
      65         -0.830211        1.000000        0.69138550        0.00027163        0.04574281        0.00438203
      66         -0.829346        1.000000        0.60495240        0.00974696        0.00302024        0.00637198
      67         -0.827819        1.000000        0.70149489        0.01341268        0.01911492        0.00521136
      68         -0.827504        1.000000        0.67798603        0.01051521        0.00991633        0.01122146
      69         -0.822699        1.000000        0.49035484        0.00540577        0.01595423        0.00506895
      70         -0.820240        1.000000        0.71614988        0.00592913        0.02159391        0.01783878
      71         -0.820218        1.000000        0.69503571        0.00019987        0.00542615        0.04352228
      72         -0.819045        1.000000        0.69200174        0.01300291        0.00809398        0.02916293
      73         -0.818910        1.000000        0.50713993        0.00852750        0.00822554        0.00617064
      74         -0.813264        1.000000        0.77599165        0.01719136        0.01190114        0.01081602
      75         -0.811352        1.000000        0.52720318        0.00948930        0.01408181        0.00947901
      76         -0.809118        1.000000        0.20646775        0.00265601        0.00663985        0.00576730
      77         -0.807865        1.000000        0.73681697        0.00363907        0.02251005        0.02066691
      78         -0.807543        1.000000        0.70678069        0.02039342        0.02261913        0.00494049
      79         -0.805303        1.000000        0.70631642        0.02815537        0.01744455        0.00166248
      80         -0.804449        1.000000        0.70663286        0.01986198        0.00622660        0.02208774
      81         -0.804379        1.000000        0.71837610        0.00898942        0.01641661        0.02185781
      82         -0.803402        1.000000        0.66367516        0.00803311        0.00980462        0.01489678
      83         -0.796826        1.000000        0.11432311        0.00665243        0.00741190        0.00145861
      84         -0.793356        1.000000        0.79531118        0.01879648        0.01198253        0.00658571
      85         -0.790390        1.000000        0.73102833        0.00902679        0.00825409        0.01749498
      86         -0.630531        1.000000        0.00000003        0.00000010        0.00000003        0.00000003
      87         -0.613764        1.000000        0.00026764        0.00006667        0.00082470        0.00056249
      88         -0.604606        1.000000        0.00240221        0.00761986        0.00188521        0.00133634
      89         -0.603396        1.000000        0.00016032        0.00129354        0.00021565        0.00118101
      90         -0.602726        1.000000        0.00146798        0.00429702        0.00157516        0.00098644
      91         -0.591218        1.000000        0.00081992        0.00252659        0.00326991        0.00023613
      92         -0.588677        1.000000        0.00081128        0.00268125        0.00347788        0.00022628
      93         -0.581329        1.000000        0.00040973        0.00242061        0.00200689        0.00061760
      94         -0.572554        1.000000        0.00025092        0.00142343        0.00146880        0.00020962
      95         -0.570375        1.000000        0.00083228        0.00101567        0.00475583        0.00101869
      96         -0.569125        1.000000        0.00446844        0.00278490        0.00216936        0.01686632
      97         -0.561235        1.000000        0.00877425        0.00322925        0.00391128        0.01941325
      98         -0.556799        1.000000        0.00054516        0.00054312        0.00233025        0.00069594
      99         -0.550726        1.000000        0.00087215        0.00397592        0.00118671        0.00055428
     100         -0.547832        1.000000        0.00081361        0.00699941        0.00112446        0.00103638
     101         -0.546125        1.000000        0.00084506        0.00233089        0.00227921        0.00088849
     102         -0.545668        1.000000        0.00025012        0.00042817        0.00037526        0.00041525
     103         -0.542035        1.000000        0.00090648        0.00076841        0.00107292        0.00041352
     104         -0.540173        1.000000        0.00072120        0.00671298        0.00470077        0.00141370
     105         -0.539977        1.000000        0.00085318        0.00346985        0.00137128        0.00310852
     106         -0.538110        1.000000        0.00062382        0.00254402        0.00187173        0.00179006
     107         -0.537637        1.000000        0.00058538        0.00981833        0.00252016        0.00193377
     108         -0.537020        1.000000        0.00082510        0.00591560        0.00319497        0.00209445
     109         -0.536458        1.000000        0.00157325        0.00771306        0.00378184        0.00525781
     110         -0.536150        1.000000        0.00062371        0.00353218        0.00233915        0.00261942
     111         -0.534598        1.000000        0.00061077        0.00141593        0.00181080        0.00325038
     112         -0.531895        1.000000        0.00064291        0.00162492        0.00091390        0.00240883
     113         -0.531127        1.000000        0.00064361        0.00275910        0.00319154        0.00501087
     114         -0.529754        1.000000        0.00163844        0.00627551        0.00492803        0.01332705
     115         -0.529250        1.000000        0.00082467        0.00217031        0.00257887        0.00217569
     116         -0.527659        1.000000        0.00140716        0.00222455        0.00555337        0.01827559
     117         -0.526471        1.000000        0.00129255        0.00953170        0.00661230        0.00906282
     118         -0.525774        1.000000        0.00128288        0.01722875        0.00958656        0.00573644
     119         -0.525564        1.000000        0.00070186        0.00286374        0.00770758        0.01560361
     120         -0.522886        1.000000        0.00064884        0.00086516        0.00082420        0.00489458
     121         -0.522396        1.000000        0.00011191        0.00051992        0.00037795        0.00053261
     122         -0.520511        1.000000        0.00086369        0.00422355        0.00500542        0.01346007
     123         -0.520175        1.000000        0.00097791        0.00069355        0.00094950        0.00403269
     124         -0.519290        1.000000        0.00081099        0.00616453        0.00301444        0.00649310
     125         -0.518827        1.000000        0.00108092        0.00131117        0.00147926        0.00728364
     126         -0.518642        1.000000        0.00133355        0.00240347        0.00471180        0.01711858
     127         -0.518304        1.000000        0.00113777        0.00083254        0.00086838        0.00487262
     128         -0.516844        1.000000        0.00021404        0.00030539        0.00174780        0.00714194
     129         -0.507240        1.000000        0.00002735        0.00063825        0.00056109        0.00090320
     130         -0.502454        1.000000        0.00003168        0.00494796        0.00063737        0.00108943
     131         -0.502068        1.000000        0.00004655        0.01606288        0.00161873        0.00207502
     132         -0.492506        1.000000        0.00003811        0.01934946        0.00144271        0.00221866
     133         -0.484946        1.000000        0.00110276        0.50253750        0.02443471        0.04657089
     134         -0.482316        1.000000        0.00292229        0.03971096        0.16353706        0.37499699
     135         -0.481215        1.000000        0.00074215        0.20293074        0.07969819        0.11077198
     136         -0.478234        1.000000        0.00099576        0.05994753        0.33556934        0.25419673
     137         -0.477608        1.000000        0.00020980        0.03576491        0.31226109        0.28516827
     138         -0.475276        1.000000        0.00045518        0.19123741        0.08431137        0.06600978
     139         -0.474404        1.000000        0.00308851        0.34146601        0.02108257        0.27049336
     140         -0.473861        1.000000        0.00122803        0.14143446        0.50272381        0.00526822
     141         -0.472843        1.000000        0.00013140        0.00982260        0.00491308        0.00534216
     142         -0.472416        1.000000        0.00310139        0.10932863        0.05833304        0.42481356
     143         -0.472361        1.000000        0.00144348        0.36922572        0.01294805        0.23202374
     144         -0.468669        1.000000        0.00026931        0.24301652        0.01584207        0.37099937
     145         -0.468237        1.000000        0.00157897        0.02407812        0.14369536        0.44604468
     146         -0.465697        1.000000        0.00164478        0.02324689        0.14113350        0.43162951
     147         -0.464177        1.000000        0.00038562        0.55789919        0.04237086        0.02892659
     148         -0.463155        1.000000        0.00063877        0.00982869        0.18357632        0.00129278
     149         -0.462965        1.000000        0.00313116        0.11989944        0.06571640        0.47334583
     150         -0.460959        1.000000        0.00105508        0.06979330        0.04905568        0.07171544
     151         -0.459946        1.000000        0.00170448        0.25895189        0.35662219        0.03036419
     152         -0.459490        1.000000        0.00053375        0.36491232        0.09002549        0.18166224
     153         -0.457463        1.000000        0.00044497        0.00971968        0.25482230        0.37135646
     154         -0.455569        1.000000        0.00036265        0.03636818        0.01190457        0.59211821
     155         -0.454918        1.000000        0.00020416        0.01644862        0.01551747        0.01436678
     156         -0.454348        1.000000        0.00269551        0.21747857        0.19429929        0.20959493
     157         -0.453780        1.000000        0.00174047        0.02582800        0.06192232        0.52222128
     158         -0.453484        1.000000        0.00232610        0.18049445        0.24938195        0.20887213
     159         -0.452236        1.000000        0.00222714        0.08529186        0.54670882        0.01299244
     160         -0.451747        1.000000        0.00327915        0.02247349        0.19552153        0.30788624
     161         -0.451444        1.000000        0.00004736        0.00149093        0.00101321        0.00147068
     162         -0.450306        1.000000        0.00508556        0.02164052        0.57667792        0.04650912
     163         -0.450045        1.000000        0.00350943        0.19442465        0.09990891        0.35002508
     164         -0.449426        1.000000        0.00027221        0.04328276        0.03802471        0.03244888
     165         -0.445792        1.000000        0.00117637        0.13745102        0.01429247        0.48485057
     166         -0.444896        1.000000        0.00286187        0.22094279        0.15782436        0.27418344
     167         -0.441982        1.000000        0.00026364        0.08554303        0.48775275        0.00772256
     168         -0.440946        1.000000        0.00045139        0.19140046        0.32959213        0.12349330
     169         -0.440847        1.000000        0.00154583        0.13553810        0.14714531        0.28382534
     170         -0.439312        1.000000        0.00005937        0.10219316        0.00986578        0.41235176
     171         -0.439263        1.000000        0.00015663        0.07865575        0.02915701        0.14615585
     172         -0.438190        1.000000        0.00054947        0.03651031        0.05984906        0.11391558
     173         -0.436422        1.000000        0.00227713        0.46514071        0.09106684        0.09237795
     174         -0.435848        1.000000        0.00223816        0.12226469        0.30812882        0.21188377
     175         -0.434809        1.000000        0.00536258        0.19486605        0.32449272        0.10278489
     176         -0.434665        1.000000        0.00154268        0.05419347        0.33530175        0.25428357
     177         -0.434576        1.000000        0.00076513        0.06108525        0.46288107        0.11474550
     178         -0.434556        1.000000        0.00494919        0.05467617        0.01852213        0.55904717
     179         -0.433343        1.000000        0.00596179        0.16592360        0.13609497        0.35796839
     180         -0.432349        1.000000        0.00202751        0.29299282        0.10059413        0.22907261
     181         -0.432300        1.000000        0.00149414        0.10749408        0.34782377        0.19422662
     182         -0.428043        1.000000        0.00446269        0.26325517        0.03289037        0.35329390
     183         -0.427552        1.000000        0.00224306        0.17001968        0.15849513        0.16191882
     184         -0.427513        1.000000        0.00099010        0.06758149        0.10127592        0.07247732
     185         -0.426462        1.000000        0.00361475        0.24385900        0.24043041        0.15124045
     186         -0.425906        1.000000        0.00542943        0.12080910        0.01421309        0.50467669
     187         -0.425405        1.000000        0.00004870        0.00693492        0.56952876        0.00135477
     188         -0.422797        1.000000        0.00129840        0.05314350        0.05280576        0.03775968
     189         -0.421258        1.000000        0.00144444        0.12850497        0.18372660        0.32039572
     190         -0.420844        1.000000        0.00510383        0.04188175        0.22828781        0.37845718
     191         -0.420013        1.000000        0.00018398        0.23499737        0.13012838        0.22577909
     192         -0.419152        1.000000        0.00783626        0.08477592        0.46429219        0.10660920
     193         -0.418913        1.000000        0.00279277        0.08368086        0.05244370        0.47720675
     194         -0.415844        1.000000        0.00150736        0.04203425        0.03084102        0.40695320
     195         -0.415456        1.000000        0.00153154        0.03672830        0.06004061        0.15641980
     196         -0.414934        1.000000        0.00369730        0.12559549        0.31419455        0.02291135
     197         -0.414882        1.000000        0.00192842        0.06045615        0.14234857        0.03228608
     198         -0.413610        1.000000        0.00560558        0.09561125        0.37478893        0.17573142
     199         -0.413413        1.000000        0.00391400        0.06657116        0.39850288        0.05918462
     200         -0.412879        1.000000        0.00567128        0.14706953        0.11917568        0.37258020
     201         -0.411689        1.000000        0.00341702        0.29020193        0.12343328        0.21403862
     202         -0.411529        1.000000        0.00056545        0.01494913        0.07528618        0.01867040
     203         -0.410561        1.000000        0.00359647        0.15986139        0.28632444        0.20440060
     204         -0.410201        1.000000        0.00027796        0.00443142        0.01578513        0.00589877
     205         -0.408774        1.000000        0.00263793        0.33117358        0.04913158        0.03698959
     206         -0.407468        1.000000        0.00002193        0.02241807        0.37553805        0.17055382
     207         -0.406634        1.000000        0.00323627        0.07608120        0.39228309        0.10117670
     208         -0.405800        1.000000        0.00189058        0.09882155        0.05040503        0.02127812
     209         -0.404271        1.000000        0.00398623        0.27799930        0.28485485        0.08035326
     210         -0.403298        1.000000        0.00003240        0.06283696        0.07039811        0.49735702
     211         -0.402935        1.000000        0.00704793        0.03907637        0.19573119        0.39900067
     212         -0.402570        1.000000        0.00027181        0.00486878        0.03970397        0.02367795
     213         -0.401794        1.000000        0.00056298        0.03276899        0.00941322        0.01301191
     214         -0.401052        1.000000        0.00053736        0.04923763        0.02216076        0.01991294
     215         -0.399498        1.000000        0.00593274        0.05722980        0.10658575        0.46855222
     216         -0.398051        1.000000        0.00012816        0.27170479        0.32127305        0.01639791
     217         -0.395842        1.000000        0.00043883        0.01352256        0.02445774        0.01344552
     218         -0.395451        1.000000        0.00004660        0.02999582        0.04525912        0.54801354
     219         -0.395013        1.000000        0.00006926        0.03018812        0.00443781        0.58998100
     220         -0.394846        1.000000        0.00009847        0.04624290        0.09670184        0.47799793
     221         -0.393253        1.000000        0.00453317        0.26102525        0.26352722        0.11836099
     222         -0.389440        1.000000        0.00001077        0.09580622        0.43930006        0.09297880
     223         -0.388826        1.000000        0.00000827        0.42970416        0.00645304        0.19010682
     224         -0.384148        1.000000        0.00453469        0.39662306        0.09132893        0.12926785
     225         -0.383338        1.000000        0.00192313        0.23037242        0.32798625        0.02760311
     226         -0.380726        1.000000        0.00217618        0.00235853        0.03211016        0.00595658
     227         -0.380658        1.000000        0.00293118        0.02061793        0.00277162        0.01652208
     228         -0.378853        1.000000        0.00561685        0.21731114        0.12564764        0.27898665
     229         -0.378096        1.000000        0.00416690        0.20108654        0.12390292        0.29459305
     230         -0.376898        1.000000        0.00002049        0.60045862        0.02643032        0.00012612
     231         -0.375658        1.000000        0.00001076        0.29379062        0.33113085        0.00284982
     232         -0.371036        1.000000        0.00485478        0.05587138        0.34608717        0.23558863
     233         -0.368574        1.000000        0.12769076        0.31784928        0.27439342        0.07869024
     234         -0.364545        1.000000        0.00041874        0.00709469        0.02548606        0.01069138
     235         -0.361036        1.000000        0.00549371        0.03602014        0.02435980        0.01038382
     236         -0.353424        1.000000        0.12939225        0.11538634        0.45123663        0.12249962
     237         -0.352841        1.000000        0.10713319        0.20237673        0.28382289        0.17406840
     238         -0.352199        1.000000        0.00457202        0.01889783        0.01036185        0.02764122
     239         -0.348784        1.000000        0.00006422        0.00014995        0.00014683        0.00010306
     240         -0.348277        1.000000        0.11807444        0.16057624        0.20472121        0.30182787
     241         -0.347527        1.000000        0.00027607        0.00038716        0.00049679        0.00064644
     242         -0.339081        1.000000        0.02390001        0.02253775        0.11818158        0.02615445
     243         -0.336848        1.000000        0.12122931        0.26033313        0.24978312        0.19923765
     244         -0.335589        1.000000        0.04154869        0.12008473        0.02227118        0.09222443
     245         -0.335158        1.000000        0.12030980        0.04985575        0.44275408        0.20292755
     246         -0.331105        1.000000        0.00684127        0.00435669        0.00373804        0.05134365
     247         -0.330514        1.000000        0.00192991        0.00733673        0.00978376        0.00298890
     248         -0.327889        1.000000        0.12395690        0.25804866        0.17271225        0.17906804
     249         -0.327572        1.000000        0.00517705        0.01505307        0.01945836        0.01504428
     250         -0.327314        1.000000        0.13523910        0.28631073        0.22814925        0.15271549
     251         -0.325814        1.000000        0.13108432        0.05986347        0.31080856        0.28144217
     252         -0.325775        1.000000        0.00758845        0.00873383        0.01494905        0.01449656
     253         -0.323749        1.000000        0.14357960        0.06167648        0.36133589        0.26348213
     254         -0.323101        1.000000        0.12610872        0.33684196        0.16135138        0.22744681
     255         -0.322316        1.000000        0.02709838        0.03767711        0.06188523        0.09679331
     256         -0.314659        1.000000        0.12547177        0.31058963        0.19974888        0.16737630
     257         -0.314018        1.000000        0.06129214        0.11086138        0.10455586        0.14888025
     258         -0.312933        1.000000        0.01289899        0.02593006        0.02398606        0.02508556
     259         -0.312526        1.000000        0.12987129        0.11367015        0.22852140        0.28846732