# Projected DOS for atomic kind N at iteration step i = 0, E(Fermi) =    -0.128951 a.u.
#     MO Eigenvalue [a.u.]      Occupation                 s                py                pz                px
       1         -0.933489        1.000000        0.00000000        0.00000001        0.00000000        0.00000000
       2         -0.923274        1.000000        0.00000000        0.00000000        0.00000000        0.00000000
       3         -0.922567        1.000000        0.00000002        0.00000000        0.00000000        0.00000001
       4         -0.917149        1.000000        0.00037764        0.00005128        0.00000032        0.00000114
       5         -0.914829        1.000000        0.00002800        0.00000416        0.00000883        0.00000831
       6         -0.911733        1.000000        0.00000000        0.00000000        0.00000000        0.00000000
       7         -0.907239        1.000000        0.00000213        0.00000027        0.00000002        0.00000002
       8         -0.906524        1.000000        0.00001632        0.00000168        0.00000000        0.00000117
       9         -0.906511        1.000000        0.00000001        0.00000000        0.00000000        0.00000000
      10         -0.906027        1.000000        0.00000319        0.00000011        0.00000011        0.00000117
      11         -0.905718        1.000000        0.00000010        0.00000001        0.00000000        0.00000001
      12         -0.903045        1.000000        0.00000001        0.00000000        0.00000000        0.00000000
      13         -0.899914        1.000000        0.00008757        0.00001099        0.00000098        0.00000503
      14         -0.896968        1.000000        0.00000384        0.00000002        0.00000020        0.00000005
      15         -0.891149        1.000000        0.00001884        0.00000133        0.00000012        0.00000024
      16         -0.888149        1.000000        0.00000036        0.00000000        0.00000000        0.00000000
      17         -0.888110        1.000000        0.00000013        0.00000000        0.00000000        0.00000000
      18         -0.887551        1.000000        0.61331083        0.00002051        0.00012638        0.00001501
      19         -0.884965        1.000000        0.00000714        0.00000000        0.00000000        0.00000000
      20         -0.884408        1.000000        0.00001682        0.00000001        0.00000000        0.00000077
      21         -0.882451        1.000000        0.01638169        0.00000005        0.00000047        0.00060851
      22         -0.881891        1.000000        0.00039217        0.00001055        0.00000081        0.00001586
      23         -0.881080        1.000000        0.00000022        0.00000000        0.00000001        0.00000001
      24         -0.880631        1.000000        0.00000010        0.00000000        0.00000000        0.00000000
      25         -0.879854        1.000000        0.00000989        0.00000226        0.00000004        0.00000034
      26         -0.879356        1.000000        0.00000020        0.00000000        0.00000000        0.00000000
      27         -0.877565        1.000000        0.61510293        0.00008455        0.00000072        0.00039401
      28         -0.875874        1.000000        0.00000046        0.00000000        0.00000000        0.00000000
      29         -0.872741        1.000000        0.00000002        0.00000001        0.00000000        0.00000001
      30         -0.872608        1.000000        0.00000029        0.00000000        0.00000000        0.00000002
      31         -0.872093        1.000000        0.02524310        0.00089083        0.00000020        0.00007385
      32         -0.870424        1.000000        0.00015439        0.00000108        0.00000218        0.00000257
      33         -0.868887        1.000000        0.00020891        0.00000434        0.00000031        0.00000551
      34         -0.868092        1.000000        0.00003335        0.00000005        0.00000002        0.00000026
      35         -0.866190        1.000000        0.02247559        0.00000932        0.00012079        0.00001681
      36         -0.861567        1.000000        0.00082389        0.00001267        0.00000020        0.00000063
      37         -0.858645        1.000000        0.00000005        0.00000000        0.00000000        0.00000000
      38         -0.857406        1.000000        0.00005799        0.00000016        0.00000070        0.00000013
      39         -0.854513        1.000000        0.00334519        0.00002454        0.00012713        0.00006012
      40         -0.853342        1.000000        0.09791127        0.00001205        0.00001155        0.00000074
      41         -0.852811        1.000000        0.01334234        0.00008574        0.00000728        0.00013076
      42         -0.851403        1.000000        0.00000001        0.00000000        0.00000000        0.00000000
      43         -0.850268        1.000000        0.00000047        0.00000004        0.00000004        0.00000010
      44         -0.849872        1.000000        0.00000170        0.00000002        0.00000003        0.00000001
      45         -0.849340        1.000000        0.00000898        0.00000000        0.00000009        0.00000044
      46         -0.848152        1.000000        0.00102120        0.00000092        0.00000555        0.00000142
      47         -0.847895        1.000000        0.00000002        0.00000000        0.00000000        0.00000000
      48         -0.845622        1.000000        0.00000258        0.00000000        0.00000000        0.00000008
      49         -0.842436        1.000000        0.05235012        0.00000998        0.00012307        0.00003461
      50         -0.840838        1.000000        0.00009176        0.00000009        0.00000024        0.00000036
      51         -0.839561        1.000000        0.00000001        0.00000000        0.00000000        0.00000000
      52         -0.839465        1.000000        0.00002117        0.00000010        0.00000051        0.00000177
      53         -0.839388        1.000000        0.00925046        0.00000809        0.00000115        0.00002045
      54         -0.838348        1.000000        0.06276038        0.00042464        0.00002457        0.00030072
      55         -0.838231        1.000000        0.00262439        0.00000001        0.00000107        0.00000076
      56         -0.837821        1.000000        0.25897855        0.00000519        0.00120663        0.00036171
      57         -0.837370        1.000000        0.00008055        0.00000006        0.00000000        0.00000001
      58         -0.837208        1.000000        0.00191861        0.00000302        0.00000326        0.00000959
      59         -0.836867        1.000000        0.00000164        0.00000000        0.00000000        0.00000000
      60         -0.835929        1.000000        0.00113153        0.00000172        0.00000605        0.00000148
      61         -0.833962        1.000000        0.06920906        0.00000438        0.00000296        0.00006994
      62         -0.832059        1.000000        0.55450968        0.00091088        0.00003040        0.00046620
      63         -0.831677        1.000000        0.00001652        0.00000013        0.00000023        0.00000218
      64         -0.831426        1.000000        0.00000001        0.00000000        0.00000000        0.00000000
      65         -0.830211        1.000000        0.00000000        0.00000000        0.00000000        0.00000000
      66         -0.829346        1.000000        0.09836353        0.00002657        0.00000732        0.00000142
      67         -0.827819        1.000000        0.02197978        0.00052717        0.00050321        0.00004686
      68         -0.827504        1.000000        0.06567490        0.00003484        0.00001435        0.00000530
      69         -0.822699        1.000000        0.21315356        0.00000020        0.00483319        0.00103696
      70         -0.820240        1.000000        0.00005960        0.00000065        0.00000077        0.00000500
      71         -0.820218        1.000000        0.00000020        0.00000000        0.00000001        0.00000000
      72         -0.819045        1.000000        0.00000001        0.00000000        0.00000000        0.00000000
      73         -0.818910        1.000000        0.18428526        0.00025591        0.00057122        0.00016364
      74         -0.813264        1.000000        0.00000073        0.00000001        0.00000001        0.00000001
      75         -0.811352        1.000000        0.15149336        0.00024616        0.00138078        0.00028752
      76         -0.809118        1.000000        0.43930688        0.00394299        0.00025132        0.00133254
      77         -0.807865        1.000000        0.00030392        0.00000237        0.00000317        0.00000180
      78         -0.807543        1.000000        0.00001051        0.00000143        0.00000106        0.00000436
      79         -0.805303        1.000000        0.00000002        0.00000000        0.00000000        0.00000000
      80         -0.804449        1.000000        0.00001064        0.00000017        0.00000006        0.00000008
      81         -0.804379        1.000000        0.00003679        0.00000284        0.00000006        0.00001180
      82         -0.803402        1.000000        0.06815422        0.00042057        0.00103971        0.00042518
      83         -0.796826        1.000000        0.50356270        0.00053105        0.00066515        0.00214408
      84         -0.793356        1.000000        0.00000863        0.00000013        0.00000022        0.00000018
      85         -0.790390        1.000000        0.03548491        0.00039106        0.00123967        0.00048933
      86         -0.630531        1.000000        0.01758457        0.00267395        0.12667460        0.06148017
      87         -0.613764        1.000000        0.01295235        0.04212403        0.02987204        0.13155645
      88         -0.604606        1.000000        0.00767311        0.00019560        0.01570915        0.04455235
      89         -0.603396        1.000000        0.02824343        0.00583809        0.13757356        0.01548610
      90         -0.602726        1.000000        0.01950502        0.00223940        0.03212186        0.06868027
      91         -0.591218        1.000000        0.01514342        0.00136440        0.00875702        0.06885266
      92         -0.588677        1.000000        0.01428008        0.00146314        0.00875608        0.06748360
      93         -0.581329        1.000000        0.03223331        0.01095694        0.01753642        0.12546837
      94         -0.572554        1.000000        0.02199115        0.01728899        0.02207153        0.12932593
      95         -0.570375        1.000000        0.00063947        0.00056751        0.00066264        0.00407385
      96         -0.569125        1.000000        0.00007903        0.00000303        0.00007346        0.00015255
      97         -0.561235        1.000000        0.00004601        0.00009667        0.00027550        0.00005853
      98         -0.556799        1.000000        0.00006130        0.00055497        0.00025803        0.00065483
      99         -0.550726        1.000000        0.00018284        0.00014256        0.00048283        0.00070896
     100         -0.547832        1.000000        0.00014878        0.00514103        0.00437145        0.00023522
     101         -0.546125        1.000000        0.00023337        0.00500671        0.00018666        0.00034713
     102         -0.545668        1.000000        0.00006631        0.00208857        0.00112368        0.00147823
     103         -0.542035        1.000000        0.00001339        0.00059374        0.00035223        0.00043766
     104         -0.540173        1.000000        0.00001530        0.00084276        0.00055238        0.00005018
     105         -0.539977        1.000000        0.00072997        0.00563302        0.00440802        0.01126606
     106         -0.538110        1.000000        0.00021194        0.04431497        0.00257553        0.00030279
     107         -0.537637        1.000000        0.00005738        0.01362627        0.01503904        0.00646920
     108         -0.537020        1.000000        0.00022388        0.00241374        0.00689262        0.01177026
     109         -0.536458        1.000000        0.00032159        0.00123202        0.00028390        0.00013567
     110         -0.536150        1.000000        0.00035779        0.00149097        0.00242141        0.00460291
     111         -0.534598        1.000000        0.00007954        0.01018008        0.00170611        0.00408730
     112         -0.531895        1.000000        0.00009219        0.00271616        0.00045712        0.00133885
     113         -0.531127        1.000000        0.00036118        0.02635737        0.00622179        0.02672518
     114         -0.529754        1.000000        0.00025769        0.00381390        0.00067519        0.00026260
     115         -0.529250        1.000000        0.00005203        0.00351481        0.00079372        0.00238803
     116         -0.527659        1.000000        0.00015431        0.00930921        0.00976761        0.01420459
     117         -0.526471        1.000000        0.00032856        0.00433564        0.00143315        0.00132198
     118         -0.525774        1.000000        0.00005043        0.00156397        0.00080770        0.00065107
     119         -0.525564        1.000000        0.00051151        0.00024449        0.00154320        0.00243140
     120         -0.522886        1.000000        0.00026983        0.00690427        0.01889518        0.01114758
     121         -0.522396        1.000000        0.00001252        0.00060910        0.00046219        0.00029496
     122         -0.520511        1.000000        0.00002165        0.00291001        0.00116836        0.00255852
     123         -0.520175        1.000000        0.00007182        0.00099972        0.00476080        0.00204701
     124         -0.519290        1.000000        0.00000989        0.00092880        0.00025469        0.00035797
     125         -0.518827        1.000000        0.00008881        0.00206442        0.00384618        0.00103628
     126         -0.518642        1.000000        0.00005105        0.00450772        0.00159595        0.00108978
     127         -0.518304        1.000000        0.00040393        0.00179731        0.00022770        0.00078945
     128         -0.516844        1.000000        0.00002581        0.00367610        0.00163771        0.00203441
     129         -0.507240        1.000000        0.00022671        0.01732293        0.13841881        0.31951303
     130         -0.502454        1.000000        0.00005946        0.45432540        0.02502719        0.01487391
     131         -0.502068        1.000000        0.00002542        0.39606303        0.08534292        0.04547042
     132         -0.492506        1.000000        0.00012648        0.03333844        0.36332488        0.13292920
     133         -0.484946        1.000000        0.00002602        0.00445032        0.02543181        0.00066879
     134         -0.482316        1.000000        0.00000130        0.00097690        0.00192422        0.00010395
     135         -0.481215        1.000000        0.00000173        0.11284158        0.03443037        0.06086130
     136         -0.478234        1.000000        0.00000177        0.00016413        0.00000059        0.00001728
     137         -0.477608        1.000000        0.00000049        0.00029639        0.00013233        0.00007911
     138         -0.475276        1.000000        0.00007534        0.11953278        0.04515127        0.09477719
     139         -0.474404        1.000000        0.00000394        0.00944836        0.00004312        0.00013018
     140         -0.473861        1.000000        0.00000000        0.00000111        0.00000076        0.00000065
     141         -0.472843        1.000000        0.00004983        0.53765372        0.00549319        0.00334684
     142         -0.472416        1.000000        0.00000737        0.00051256        0.00004138        0.00009094
     143         -0.472361        1.000000        0.00000222        0.00037766        0.00019668        0.00050195
     144         -0.468669        1.000000        0.00001145        0.00232477        0.00132968        0.00440013
     145         -0.468237        1.000000        0.00000738        0.00395937        0.00092316        0.00037759
     146         -0.465697        1.000000        0.00001293        0.00288292        0.00119580        0.00239207
     147         -0.464177        1.000000        0.00003097        0.00008491        0.00210519        0.00206783
     148         -0.463155        1.000000        0.00188890        0.00224504        0.20878686        0.18640935
     149         -0.462965        1.000000        0.00000026        0.00000806        0.00002058        0.00000090
     150         -0.460959        1.000000        0.00008384        0.11474433        0.00842159        0.27932479
     151         -0.459946        1.000000        0.00000003        0.00004666        0.00002589        0.00000207
     152         -0.459490        1.000000        0.00000001        0.00000171        0.00000230        0.00000121
     153         -0.457463        1.000000        0.00000070        0.00001207        0.00001218        0.00001609
     154         -0.455569        1.000000        0.00000298        0.00010591        0.00016246        0.00000765
     155         -0.454918        1.000000        0.00010864        0.28348134        0.19436087        0.03977145
     156         -0.454348        1.000000        0.00004126        0.01126275        0.00916284        0.00196340
     157         -0.453780        1.000000        0.00001933        0.01432867        0.00058473        0.00145012
     158         -0.453484        1.000000        0.00000045        0.00003918        0.00036929        0.00007498
     159         -0.452236        1.000000        0.00000002        0.00001997        0.00008193        0.00001065
     160         -0.451747        1.000000        0.00020911        0.09147492        0.00414409        0.00817919
     161         -0.451444        1.000000        0.00000032        0.05063752        0.48255736        0.04050335
     162         -0.450306        1.000000        0.00001158        0.00132410        0.00144863        0.00039674
     163         -0.450045        1.000000        0.00000078        0.00005781        0.00001387        0.00005984
     164         -0.449426        1.000000        0.00028720        0.20747537        0.20128253        0.06357441
     165         -0.445792        1.000000        0.00000054        0.00027925        0.00036572        0.00011835
     166         -0.444896        1.000000        0.00000003        0.00000399        0.00000150        0.00000028
     167         -0.441982        1.000000        0.00008471        0.00085222        0.00217680        0.02444729
     168         -0.440946        1.000000        0.00000030        0.00002696        0.00000356        0.00001133
     169         -0.440847        1.000000        0.00038008        0.01553476        0.04141631        0.00031048
     170         -0.439312        1.000000        0.00042358        0.09215434        0.00473180        0.00823032
     171         -0.439263        1.000000        0.00142661        0.31024687        0.01598478        0.02762768
     172         -0.438190        1.000000        0.00141190        0.19451206        0.17475877        0.00020025
     173         -0.436422        1.000000        0.00002560        0.00226153        0.00364427        0.00050458
     174         -0.435848        1.000000        0.00001040        0.00116406        0.00011628        0.00012817
     175         -0.434809        1.000000        0.00000077        0.01661920        0.00050881        0.00064582
     176         -0.434665        1.000000        0.00003085        0.00040674        0.00200373        0.00101947
     177         -0.434576        1.000000        0.00000707        0.00040279        0.00028886        0.00017003
     178         -0.434556        1.000000        0.00000231        0.00062655        0.00004862        0.00001491
     179         -0.433343        1.000000        0.00000449        0.00013045        0.00003234        0.00001844
     180         -0.432349        1.000000        0.00025352        0.00236722        0.01413307        0.00783677
     181         -0.432300        1.000000        0.00000635        0.00153043        0.00054051        0.00011291
     182         -0.428043        1.000000        0.00000163        0.00000026        0.00011735        0.00009542
     183         -0.427552        1.000000        0.00001795        0.00062245        0.00040548        0.00023084
     184         -0.427513        1.000000        0.00002015        0.00091472        0.00064344        0.00047205
     185         -0.426462        1.000000        0.00001065        0.00044331        0.00017164        0.00008420
     186         -0.425906        1.000000        0.00000039        0.00001694        0.00018484        0.00001524
     187         -0.425405        1.000000        0.00001614        0.00033362        0.00015185        0.00030126
     188         -0.422797        1.000000        0.00013836        0.20276987        0.22947939        0.00210482
     189         -0.421258        1.000000        0.00025648        0.00648447        0.00046332        0.00004504
     190         -0.420844        1.000000        0.00000007        0.00006413        0.00011869        0.00010121
     191         -0.420013        1.000000        0.00001997        0.00030042        0.00017805        0.00001424
     192         -0.419152        1.000000        0.00000015        0.00000063        0.00000132        0.00000241
     193         -0.418913        1.000000        0.00000179        0.00001408        0.00019156        0.00001016
     194         -0.415844        1.000000        0.00001554        0.00004978        0.00053602        0.00010887
     195         -0.415456        1.000000        0.00002622        0.00026304        0.00074268        0.00074756
     196         -0.414934        1.000000        0.00019461        0.00087208        0.00236136        0.00440516
     197         -0.414882        1.000000        0.00036650        0.00128852        0.00699883        0.00303717
     198         -0.413610        1.000000        0.00001643        0.00008102        0.00041708        0.00012780
     199         -0.413413        1.000000        0.00016273        0.00058727        0.00718791        0.00196893
     200         -0.412879        1.000000        0.00001274        0.00004492        0.00040016        0.00009200
     201         -0.411689        1.000000        0.00009306        0.00846550        0.00787120        0.00048322
     202         -0.411529        1.000000        0.00287599        0.00110283        0.09433949        0.03834478
     203         -0.410561        1.000000        0.00006113        0.00040251        0.00158859        0.00038049
     204         -0.410201        1.000000        0.00450543        0.00592822        0.18706551        0.08854623
     205         -0.408774        1.000000        0.00028945        0.00164669        0.01056533        0.00191287
     206         -0.407468        1.000000        0.00001746        0.00009458        0.00107254        0.00024565
     207         -0.406634        1.000000        0.00013310        0.00134979        0.00171971        0.00076131
     208         -0.405800        1.000000        0.00008682        0.00057035        0.00139043        0.00022023
     209         -0.404271        1.000000        0.00000151        0.00004260        0.00000559        0.00007471
     210         -0.403298        1.000000        0.00000087        0.00002849        0.00003220        0.00014371
     211         -0.402935        1.000000        0.00000238        0.00013770        0.00001844        0.00009407
     212         -0.402570        1.000000        0.00006336        0.00104746        0.00216682        0.00119949
     213         -0.401794        1.000000        0.00056963        0.00234426        0.00129241        0.00967414
     214         -0.401052        1.000000        0.00033072        0.00164527        0.00286705        0.00594805
     215         -0.399498        1.000000        0.00000182        0.00003856        0.00003850        0.00003561
     216         -0.398051        1.000000        0.00000331        0.00003025        0.00007898        0.00005986
     217         -0.395842        1.000000        0.00913480        0.08923780        0.04130174        0.25265710
     218         -0.395451        1.000000        0.00010775        0.00168119        0.00050701        0.00252344
     219         -0.395013        1.000000        0.00001156        0.00001439        0.00010725        0.00002181
     220         -0.394846        1.000000        0.00000256        0.00001634        0.00005489        0.00002241
     221         -0.393253        1.000000        0.00000146        0.00006083        0.00012463        0.00017382
     222         -0.389440        1.000000        0.00000032        0.00000131        0.00000157        0.00000229
     223         -0.388826        1.000000        0.00000035        0.00000494        0.00000120        0.00000470
     224         -0.384148        1.000000        0.00016637        0.00211914        0.00386735        0.00309934
     225         -0.383338        1.000000        0.00165735        0.00003444        0.03425948        0.00327245
     226         -0.380726        1.000000        0.00886304        0.00899711        0.15802265        0.24430851
     227         -0.380658        1.000000        0.00852992        0.02133665        0.35060189        0.04674075
     228         -0.378853        1.000000        0.00012623        0.00199989        0.00030534        0.00214133
     229         -0.378096        1.000000        0.00021603        0.00268342        0.00063890        0.00369195
     230         -0.376898        1.000000        0.00000072        0.00000900        0.00001055        0.00001313
     231         -0.375658        1.000000        0.00000011        0.00000060        0.00000311        0.00000250
     232         -0.371036        1.000000        0.00000120        0.00001092        0.00001378        0.00004842
     233         -0.368574        1.000000        0.00000112        0.00001635        0.00012445        0.00022126
     234         -0.364545        1.000000        0.00590081        0.01419609        0.01446802        0.38730695
     235         -0.361036        1.000000        0.01037148        0.03331648        0.03729189        0.31662220
     236         -0.353424        1.000000        0.00000394        0.00003250        0.00000971        0.00003873
     237         -0.352841        1.000000        0.00009894        0.00028625        0.00059199        0.00304337
     238         -0.352199        1.000000        0.00919898        0.02607133        0.05195102        0.32378313
     239         -0.348784        1.000000        0.00000787        0.02414684        0.00770276        0.00624277
     240         -0.348277        1.000000        0.00000043        0.00005325        0.00001916        0.00006782
     241         -0.347527        1.000000        0.00000127        0.01298731        0.00658524        0.01755747
     242         -0.339081        1.000000        0.00105328        0.00008358        0.00877737        0.00988401
     243         -0.336848        1.000000        0.00002407        0.00000347        0.00015655        0.00017615
     244         -0.335589        1.000000        0.00068791        0.00029265        0.00583682        0.00035874
     245         -0.335158        1.000000        0.00001662        0.00010925        0.00002615        0.00014558
     246         -0.331105        1.000000        0.00011674        0.00091130        0.01161640        0.01740012
     247         -0.330514        1.000000        0.00001117        0.01545243        0.00397661        0.01350113
     248         -0.327889        1.000000        0.00010691        0.00039054        0.00094578        0.00726380
     249         -0.327572        1.000000        0.00000115        0.00807660        0.02234661        0.00046835
     250         -0.327314        1.000000        0.00003828        0.00041946        0.00052190        0.00315880
     251         -0.325814        1.000000        0.00003837        0.00054820        0.00111696        0.00000658
     252         -0.325775        1.000000        0.00001518        0.04314243        0.00000757        0.00084513
     253         -0.323749        1.000000        0.00001121        0.00197803        0.00004568        0.00010904
     254         -0.323101        1.000000        0.00000101        0.00095097        0.00007104        0.00004030
     255         -0.322316        1.000000        0.00028939        0.00010722        0.00720658        0.00810630
     256         -0.314659        1.000000        0.00002135        0.00222030        0.00047927        0.00074826
     257         -0.314018        1.000000        0.00018146        0.00770179        0.00041592        0.00286422
     258         -0.312933        1.000000        0.00001606        0.04234825        0.00469484        0.00213377
     259         -0.312526        1.000000        0.00060427        0.01389080        0.00929117        0.00274169