# Projected DOS for atomic kind I at iteration step i = 0, E(Fermi) =    -0.128951 a.u.
#     MO Eigenvalue [a.u.]      Occupation                 s                py                pz                px
       1         -0.933489        1.000000        0.00010591        0.00017342        0.00020625        0.00010668
       2         -0.923274        1.000000        0.00010985        0.00016124        0.00023214        0.00010287
       3         -0.922567        1.000000        0.00016817        0.00028480        0.00009891        0.00035946
       4         -0.917149        1.000000        0.00008610        0.00020908        0.00012807        0.00003830
       5         -0.914829        1.000000        0.00002403        0.00000254        0.00003535        0.00013801
       6         -0.911733        1.000000        0.00020053        0.00038847        0.00017606        0.00016851
       7         -0.907239        1.000000        0.00000336        0.00001295        0.00000589        0.00002888
       8         -0.906524        1.000000        0.00015626        0.00026668        0.00015164        0.00021020
       9         -0.906511        1.000000        0.00024865        0.00052603        0.00020294        0.00000890
      10         -0.906027        1.000000        0.00009245        0.00012062        0.00025303        0.00009657
      11         -0.905718        1.000000        0.00072010        0.00089406        0.00033891        0.00041610
      12         -0.903045        1.000000        0.00014199        0.00017315        0.00035323        0.00011277
      13         -0.899914        1.000000        0.00007237        0.00005094        0.00000621        0.00027053
      14         -0.896968        1.000000        0.00005282        0.00008324        0.00008701        0.00016776
      15         -0.891149        1.000000        0.00007096        0.00011243        0.00001477        0.00018417
      16         -0.888149        1.000000        0.00073744        0.00114564        0.00058083        0.00006196
      17         -0.888110        1.000000        0.00001345        0.00000398        0.00006845        0.00008163
      18         -0.887551        1.000000        0.00017302        0.00038602        0.00007545        0.00038180
      19         -0.884965        1.000000        0.00005137        0.00008146        0.00004175        0.00001513
      20         -0.884408        1.000000        0.00119438        0.00108466        0.00058035        0.00044969
      21         -0.882451        1.000000        0.00014691        0.00018091        0.00048243        0.00007353
      22         -0.881891        1.000000        0.00000578        0.00010125        0.00000366        0.00002613
      23         -0.881080        1.000000        0.00001547        0.00005284        0.00001831        0.00004291
      24         -0.880631        1.000000        0.00020231        0.00021131        0.00009513        0.00025884
      25         -0.879854        1.000000        0.00004091        0.00006023        0.00011416        0.00003521
      26         -0.879356        1.000000        0.00005100        0.00006136        0.00006888        0.00015326
      27         -0.877565        1.000000        0.00014834        0.00033669        0.00033652        0.00008828
      28         -0.875874        1.000000        0.00031378        0.00015629        0.00004521        0.00047286
      29         -0.872741        1.000000        0.00017558        0.00015775        0.00006446        0.00031596
      30         -0.872608        1.000000        0.00044428        0.00008973        0.00119740        0.00002779
      31         -0.872093        1.000000        0.00001853        0.00001323        0.00004050        0.00000759
      32         -0.870424        1.000000        0.00011650        0.00001737        0.00048162        0.00000646
      33         -0.868887        1.000000        0.00010942        0.00006447        0.00006329        0.00014441
      34         -0.868092        1.000000        0.00000310        0.00000212        0.00002229        0.00000771
      35         -0.866190        1.000000        0.00000487        0.00002399        0.00002992        0.00001134
      36         -0.861567        1.000000        0.00001024        0.00001694        0.00000166        0.00002036
      37         -0.858645        1.000000        0.00009707        0.00030087        0.00000544        0.00002661
      38         -0.857406        1.000000        0.00255962        0.00254407        0.00199615        0.00027315
      39         -0.854513        1.000000        0.00008381        0.00005842        0.00002101        0.00023529
      40         -0.853342        1.000000        0.00001883        0.00003353        0.00002351        0.00002243
      41         -0.852811        1.000000        0.00009414        0.00004822        0.00020834        0.00011657
      42         -0.851403        1.000000        0.00148036        0.00065857        0.00050260        0.00138517
      43         -0.850268        1.000000        0.00585067        0.00379395        0.00346069        0.00067079
      44         -0.849872        1.000000        0.00132712        0.00051064        0.00027433        0.00144469
      45         -0.849340        1.000000        0.00005521        0.00000129        0.00001080        0.00029877
      46         -0.848152        1.000000        0.00007746        0.00006130        0.00004246        0.00012173
      47         -0.847895        1.000000        0.00001463        0.00002137        0.00005970        0.00000161
      48         -0.845622        1.000000        0.00003706        0.00017209        0.00005687        0.00000078
      49         -0.842436        1.000000        0.00005846        0.00008416        0.00007091        0.00004880
      50         -0.840838        1.000000        0.00173117        0.00008856        0.00336463        0.00020954
      51         -0.839561        1.000000        0.00001117        0.00002838        0.00000188        0.00003845
      52         -0.839465        1.000000        0.00001996        0.00001882        0.00000264        0.00010892
      53         -0.839388        1.000000        0.00117673        0.00043094        0.00034683        0.00091599
      54         -0.838348        1.000000        0.00001132        0.00001205        0.00001508        0.00002501
      55         -0.838231        1.000000        0.00002428        0.00010705        0.00000214        0.00002599
      56         -0.837821        1.000000        0.00007255        0.00010675        0.00006422        0.00007952
      57         -0.837370        1.000000        0.00003323        0.00002557        0.00014160        0.00000587
      58         -0.837208        1.000000        0.00003508        0.00006863        0.00004946        0.00002053
      59         -0.836867        1.000000        0.00001294        0.00003649        0.00000713        0.00004230
      60         -0.835929        1.000000        0.00045655        0.00000536        0.00142068        0.00003227
      61         -0.833962        1.000000        0.00002731        0.00003909        0.00015430        0.00000746
      62         -0.832059        1.000000        0.00004025        0.00010893        0.00008941        0.00006394
      63         -0.831677        1.000000        0.00004830        0.00004576        0.00000132        0.00019064
      64         -0.831426        1.000000        0.00001001        0.00000091        0.00004057        0.00001571
      65         -0.830211        1.000000        0.00001706        0.00005940        0.00002470        0.00000342
      66         -0.829346        1.000000        0.00007406        0.00010256        0.00005547        0.00008559
      67         -0.827819        1.000000        0.00012799        0.00006852        0.00009434        0.00024147
      68         -0.827504        1.000000        0.00013292        0.00008615        0.00010146        0.00018601
      69         -0.822699        1.000000        0.00006266        0.00009600        0.00005156        0.00006754
      70         -0.820240        1.000000        0.00012375        0.00014685        0.00000621        0.00035897
      71         -0.820218        1.000000        0.00003605        0.00007319        0.00005190        0.00007374
      72         -0.819045        1.000000        0.00002362        0.00002393        0.00005602        0.00004273
      73         -0.818910        1.000000        0.00007835        0.00010807        0.00007172        0.00010075
      74         -0.813264        1.000000        0.00861331        0.00346325        0.00088170        0.00633777
      75         -0.811352        1.000000        0.00004705        0.00005439        0.00005843        0.00003333
      76         -0.809118        1.000000        0.00007853        0.00010435        0.00019263        0.00001182
      77         -0.807865        1.000000        0.00011796        0.00040022        0.00000307        0.00007251
      78         -0.807543        1.000000        0.00002229        0.00003377        0.00002230        0.00004458
      79         -0.805303        1.000000        0.00006537        0.00000615        0.00008100        0.00012059
      80         -0.804449        1.000000        0.00001819        0.00003140        0.00000259        0.00004615
      81         -0.804379        1.000000        0.00002602        0.00003128        0.00000249        0.00011111
      82         -0.803402        1.000000        0.00005044        0.00004410        0.00003571        0.00005880
      83         -0.796826        1.000000        0.00001064        0.00000948        0.00001298        0.00003254
      84         -0.793356        1.000000        0.01398082        0.00451374        0.00132777        0.00858070
      85         -0.790390        1.000000        0.00002325        0.00002839        0.00001855        0.00002418
      86         -0.630531        1.000000        0.00245453        0.00043216        0.00046504        0.00050997
      87         -0.613764        1.000000        0.00134122        0.00012194        0.00030733        0.00017329
      88         -0.604606        1.000000        0.61132716        0.00558354        0.00788962        0.00046197
      89         -0.603396        1.000000        0.00195230        0.00015539        0.00039041        0.00031248
      90         -0.602726        1.000000        0.33977811        0.00287582        0.00413799        0.00013254
      91         -0.591218        1.000000        0.46745697        0.00731033        0.00721955        0.00085514
      92         -0.588677        1.000000        0.49293610        0.00688071        0.00710261        0.00129699
      93         -0.581329        1.000000        0.00209195        0.00020058        0.00018661        0.00011692
      94         -0.572554        1.000000        0.02551525        0.00026529        0.00021735        0.00031161
      95         -0.570375        1.000000        0.84207593        0.00444360        0.00595719        0.00362920
      96         -0.569125        1.000000        0.94747913        0.00632096        0.00112691        0.00803510
      97         -0.561235        1.000000        0.93865821        0.00479144        0.00085520        0.00613644
      98         -0.556799        1.000000        0.88482108        0.00486236        0.00243942        0.00245973
      99         -0.550726        1.000000        0.94821555        0.00485454        0.00871135        0.00166888
     100         -0.547832        1.000000        0.83140484        0.00429954        0.00419572        0.00358617
     101         -0.546125        1.000000        0.87456576        0.00372621        0.00392358        0.00241206
     102         -0.545668        1.000000        0.94054097        0.00190288        0.00099481        0.00033519
     103         -0.542035        1.000000        0.94938442        0.00122201        0.00059826        0.00196876
     104         -0.540173        1.000000        0.95051932        0.00854192        0.00558467        0.00094305
     105         -0.539977        1.000000        0.83072143        0.00318674        0.00322672        0.00200629
     106         -0.538110        1.000000        0.82427915        0.00231192        0.00284231        0.00170610
     107         -0.537637        1.000000        0.85170403        0.00204814        0.00212155        0.00110433
     108         -0.537020        1.000000        0.85684262        0.00253827        0.00260491        0.00166515
     109         -0.536458        1.000000        0.85098661        0.00531643        0.00357240        0.00139938
     110         -0.536150        1.000000        0.88100339        0.00241983        0.00246608        0.00168356
     111         -0.534598        1.000000        0.85665813        0.00311511        0.00295833        0.00250067
     112         -0.531895        1.000000        0.89896265        0.00121883        0.00375717        0.00134182
     113         -0.531127        1.000000        0.82758231        0.00187937        0.00128498        0.00137073
     114         -0.529754        1.000000        0.89877770        0.00262857        0.00075238        0.00126429
     115         -0.529250        1.000000        0.93875591        0.00073753        0.00023026        0.00063411
     116         -0.527659        1.000000        0.84380790        0.00146409        0.00098903        0.00270307
     117         -0.526471        1.000000        0.89957636        0.00108562        0.00172771        0.00083355
     118         -0.525774        1.000000        0.90241880        0.00096204        0.00200453        0.00096628
     119         -0.525564        1.000000        0.90575998        0.00083622        0.00180061        0.00099207
     120         -0.522886        1.000000        0.88733992        0.00032859        0.00074457        0.00069392
     121         -0.522396        1.000000        0.95341570        0.00145302        0.00048909        0.00152274
     122         -0.520511        1.000000        0.90715423        0.00194150        0.00098020        0.00025072
     123         -0.520175        1.000000        0.92851129        0.00027017        0.00108362        0.00076875
     124         -0.519290        1.000000        0.92225333        0.00057349        0.00291110        0.00045764
     125         -0.518827        1.000000        0.94608131        0.00395877        0.00127572        0.00594943
     126         -0.518642        1.000000        0.91348414        0.00125464        0.00085347        0.00155210
     127         -0.518304        1.000000        0.96257458        0.00439847        0.00097646        0.00625350
     128         -0.516844        1.000000        0.94376756        0.00061417        0.00058815        0.00069237
     129         -0.507240        1.000000        0.20423913        0.00219811        0.00125865        0.00332010
     130         -0.502454        1.000000        0.16414302        0.00448848        0.00155390        0.00221097
     131         -0.502068        1.000000        0.09169595        0.00482473        0.00342191        0.00069023
     132         -0.492506        1.000000        0.08979661        0.00409118        0.00317128        0.00092250
     133         -0.484946        1.000000        0.06591255        0.00063409        0.00216730        0.00231675
     134         -0.482316        1.000000        0.09093700        0.00156371        0.00164942        0.00295569
     135         -0.481215        1.000000        0.03531450        0.00193338        0.00061231        0.00072487
     136         -0.478234        1.000000        0.00496886        0.00011135        0.00019966        0.00031617
     137         -0.477608        1.000000        0.00443846        0.00022946        0.00019378        0.00230937
     138         -0.475276        1.000000        0.01790473        0.00292363        0.00029637        0.00061953
     139         -0.474404        1.000000        0.00149427        0.00050546        0.00044355        0.00085176
     140         -0.473861        1.000000        0.00035587        0.00008533        0.00013707        0.00006885
     141         -0.472843        1.000000        0.01230541        0.00356537        0.00074267        0.00181473
     142         -0.472416        1.000000        0.06556078        0.00308716        0.00307592        0.00249461
     143         -0.472361        1.000000        0.03738174        0.00133605        0.00187473        0.00247291
     144         -0.468669        1.000000        0.00019250        0.00010034        0.00041567        0.00024490
     145         -0.468237        1.000000        0.02263776        0.00372720        0.00025382        0.00553047
     146         -0.465697        1.000000        0.06149983        0.00061425        0.00021467        0.00561949
     147         -0.464177        1.000000        0.01245087        0.00197820        0.00360426        0.00067155
     148         -0.463155        1.000000        0.00287706        0.00069237        0.00064916        0.00109716
     149         -0.462965        1.000000        0.00133447        0.00018881        0.00069020        0.00005212
     150         -0.460959        1.000000        0.01018839        0.00092826        0.00056202        0.00023296
     151         -0.459946        1.000000        0.00272523        0.00234231        0.00131684        0.00020099
     152         -0.459490        1.000000        0.01241190        0.00123911        0.00447697        0.00064891
     153         -0.457463        1.000000        0.01216312        0.00101491        0.00080100        0.00165939
     154         -0.455569        1.000000        0.00234735        0.00023992        0.00041612        0.00005888
     155         -0.454918        1.000000        0.01292133        0.00272468        0.00165882        0.00241181
     156         -0.454348        1.000000        0.00841214        0.00078412        0.00091956        0.00026975
     157         -0.453780        1.000000        0.01268985        0.00380739        0.00034844        0.00279146
     158         -0.453484        1.000000        0.00970103        0.00177434        0.00087169        0.00197136
     159         -0.452236        1.000000        0.00450116        0.00086185        0.00178471        0.00065559
     160         -0.451747        1.000000        0.00416389        0.00139833        0.00027419        0.00031007
     161         -0.451444        1.000000        0.01128080        0.00217137        0.00256274        0.00032842
     162         -0.450306        1.000000        0.00144139        0.00032564        0.00069321        0.00022718
     163         -0.450045        1.000000        0.00249296        0.00001987        0.00124778        0.00018748
     164         -0.449426        1.000000        0.00091179        0.00030189        0.00029174        0.00041655
     165         -0.445792        1.000000        0.01059539        0.00245999        0.00147796        0.00082169
     166         -0.444896        1.000000        0.00017593        0.00010199        0.00001980        0.00005313
     167         -0.441982        1.000000        0.03279073        0.00114303        0.00810938        0.00137531
     168         -0.440946        1.000000        0.00507860        0.00105973        0.00031742        0.00049891
     169         -0.440847        1.000000        0.00628224        0.00323108        0.00137730        0.00542774
     170         -0.439312        1.000000        0.00111449        0.00132665        0.00046418        0.00028929
     171         -0.439263        1.000000        0.00231620        0.00069055        0.00106448        0.00031113
     172         -0.438190        1.000000        0.00651300        0.00094261        0.00090563        0.00119538
     173         -0.436422        1.000000        0.00063395        0.00012662        0.00031573        0.00022219
     174         -0.435848        1.000000        0.00016296        0.00096814        0.00006762        0.00268021
     175         -0.434809        1.000000        0.00087923        0.00035926        0.00016549        0.00064096
     176         -0.434665        1.000000        0.00216880        0.00069355        0.00034098        0.00050429
     177         -0.434576        1.000000        0.00576013        0.00032501        0.00042995        0.00089899
     178         -0.434556        1.000000        0.00411534        0.00138847        0.00468739        0.00105944
     179         -0.433343        1.000000        0.00120802        0.00006470        0.00052066        0.00637519
     180         -0.432349        1.000000        0.00090498        0.00021041        0.00025222        0.00026956
     181         -0.432300        1.000000        0.00224727        0.00036834        0.00022275        0.00032500
     182         -0.428043        1.000000        0.00017923        0.00012051        0.00017807        0.00002011
     183         -0.427552        1.000000        0.04613293        0.01086091        0.01349012        0.00993544
     184         -0.427513        1.000000        0.11388693        0.02727380        0.03335533        0.02498644
     185         -0.426462        1.000000        0.00256997        0.00098271        0.00256155        0.00092541
     186         -0.425906        1.000000        0.00047802        0.00041428        0.00126879        0.00048728
     187         -0.425405        1.000000        0.01961091        0.00447199        0.00629590        0.00238387
     188         -0.422797        1.000000        0.00031450        0.00020954        0.00039675        0.00023601
     189         -0.421258        1.000000        0.00211295        0.00134123        0.00093908        0.00071072
     190         -0.420844        1.000000        0.00021127        0.00016805        0.00007574        0.00010059
     191         -0.420013        1.000000        0.00855160        0.00913342        0.00240746        0.00273066
     192         -0.419152        1.000000        0.00055530        0.00018846        0.00453810        0.00020690
     193         -0.418913        1.000000        0.00685227        0.00307377        0.00278768        0.00361823
     194         -0.415844        1.000000        0.03404951        0.00750465        0.01213305        0.01368094
     195         -0.415456        1.000000        0.08506309        0.01865576        0.02709950        0.02856456
     196         -0.414934        1.000000        0.03703740        0.01126302        0.01121866        0.00945667
     197         -0.414882        1.000000        0.08514129        0.02529212        0.02533416        0.02194719
     198         -0.413610        1.000000        0.00330834        0.00103573        0.00582146        0.00072907
     199         -0.413413        1.000000        0.01848416        0.00572055        0.00544991        0.01056129
     200         -0.412879        1.000000        0.00505463        0.00113021        0.00089798        0.00290404
     201         -0.411689        1.000000        0.00030947        0.00015056        0.00010255        0.00024328
     202         -0.411529        1.000000        0.06356912        0.01910793        0.01774245        0.02198094
     203         -0.410561        1.000000        0.00035198        0.00016777        0.00009670        0.00030442
     204         -0.410201        1.000000        0.04423885        0.01042752        0.01268240        0.01570095
     205         -0.408774        1.000000        0.03543470        0.01228022        0.01182473        0.02132093
     206         -0.407468        1.000000        0.00866749        0.00233601        0.00843673        0.00283141
     207         -0.406634        1.000000        0.01940085        0.00247320        0.00644122        0.00424429
     208         -0.405800        1.000000        0.09560586        0.03071276        0.02563696        0.02576079
     209         -0.404271        1.000000        0.00042580        0.00029883        0.00048177        0.00026619
     210         -0.403298        1.000000        0.00085568        0.00025541        0.00031178        0.00031233
     211         -0.402935        1.000000        0.00190573        0.00069137        0.00064335        0.00053817
     212         -0.402570        1.000000        0.11210085        0.02809918        0.02952674        0.03173837
     213         -0.401794        1.000000        0.12191335        0.02800012        0.03278313        0.02729502
     214         -0.401052        1.000000        0.11530992        0.02314912        0.02933528        0.02524566
     215         -0.399498        1.000000        0.00230010        0.00193518        0.00074457        0.00212711
     216         -0.398051        1.000000        0.00650553        0.00151761        0.00128783        0.00128209
     217         -0.395842        1.000000        0.00990469        0.00175145        0.00213734        0.00271015
     218         -0.395451        1.000000        0.00113537        0.00166034        0.00079002        0.00024820
     219         -0.395013        1.000000        0.00176505        0.00041859        0.00005018        0.00038520
     220         -0.394846        1.000000        0.00360840        0.00090197        0.00048396        0.00071978
     221         -0.393253        1.000000        0.00024255        0.00036046        0.00020600        0.00014707
     222         -0.389440        1.000000        0.00065567        0.00005688        0.00068667        0.00056164
     223         -0.388826        1.000000        0.00075047        0.00206545        0.00064432        0.00006079
     224         -0.384148        1.000000        0.00036501        0.00004759        0.00003703        0.00005547
     225         -0.383338        1.000000        0.00050436        0.00018530        0.00034843        0.00016148
     226         -0.380726        1.000000        0.00118410        0.00218454        0.00065338        0.00117288
     227         -0.380658        1.000000        0.00107380        0.00065311        0.00206770        0.00093579
     228         -0.378853        1.000000        0.00171504        0.00072953        0.00157734        0.00169379
     229         -0.378096        1.000000        0.00091123        0.00053167        0.00160035        0.00233086
     230         -0.376898        1.000000        0.00202194        0.00160576        0.00015273        0.00293486
     231         -0.375658        1.000000        0.00078554        0.00037129        0.00163122        0.00112582
     232         -0.371036        1.000000        0.00059646        0.00073744        0.00005286        0.00082334
     233         -0.368574        1.000000        0.00459601        0.00861694        0.02309854        0.00355998
     234         -0.364545        1.000000        0.00145240        0.00282993        0.00141133        0.00145519
     235         -0.361036        1.000000        0.00032014        0.00061679        0.00051325        0.00063229
     236         -0.353424        1.000000        0.00395328        0.02098641        0.00737860        0.00338377
     237         -0.352841        1.000000        0.00520482        0.01957965        0.00090056        0.01212891
     238         -0.352199        1.000000        0.00034859        0.00055953        0.00141505        0.00079332
     239         -0.348784        1.000000        0.00260937        0.00407799        0.00369997        0.00687405
     240         -0.348277        1.000000        0.00632059        0.02721914        0.00431236        0.01570018
     241         -0.347527        1.000000        0.00169391        0.00185024        0.00300689        0.00402992
     242         -0.339081        1.000000        0.00031551        0.00162685        0.00071751        0.00374346
     243         -0.336848        1.000000        0.00282149        0.00817435        0.02516794        0.00375851
     244         -0.335589        1.000000        0.00084346        0.00268570        0.00179760        0.00150453
     245         -0.335158        1.000000        0.00391109        0.02988687        0.01462381        0.00580326
     246         -0.331105        1.000000        0.00142469        0.00130880        0.00215996        0.00365995
     247         -0.330514        1.000000        0.00031768        0.00104708        0.00159817        0.00086651
     248         -0.327889        1.000000        0.00170209        0.00183080        0.00394438        0.00278117
     249         -0.327572        1.000000        0.00044797        0.00206952        0.00259036        0.00171682
     250         -0.327314        1.000000        0.00096712        0.00389040        0.00285904        0.00252230
     251         -0.325814        1.000000        0.00082278        0.00327995        0.01195199        0.00134477
     252         -0.325775        1.000000        0.00065048        0.00500026        0.00173931        0.00355979
     253         -0.323749        1.000000        0.00083802        0.00302781        0.00493672        0.00111264
     254         -0.323101        1.000000        0.00190073        0.00293798        0.00294729        0.00426704
     255         -0.322316        1.000000        0.00021049        0.00209944        0.00192199        0.00059042
     256         -0.314659        1.000000        0.00153306        0.00632350        0.00206382        0.00749688
     257         -0.314018        1.000000        0.00071103        0.00324798        0.00085181        0.00251658
     258         -0.312933        1.000000        0.00084315        0.00502661        0.00175108        0.00531006
     259         -0.312526        1.000000        0.00087160        0.00289267        0.00203793        0.00308496