# Projected DOS for atomic kind C at iteration step i = 0, E(Fermi) =    -0.128954 a.u.
#     MO Eigenvalue [a.u.]      Occupation                 s                py                pz                px
       1         -0.933491        1.000000        0.00000000        0.00000001        0.00000001        0.00000000
       2         -0.923274        1.000000        0.00000000        0.00000001        0.00000001        0.00000000
       3         -0.922568        1.000000        0.00000000        0.00000000        0.00000000        0.00000000
       4         -0.917149        1.000000        0.00003375        0.00001798        0.00002114        0.00000778
       5         -0.914847        1.000000        0.00000168        0.00000025        0.00000037        0.00000227
       6         -0.911734        1.000000        0.00000000        0.00000001        0.00000002        0.00000000
       7         -0.907239        1.000000        0.00000000        0.00000093        0.00000272        0.00000001
       8         -0.906524        1.000000        0.00000134        0.00000009        0.00000002        0.00000186
       9         -0.906511        1.000000        0.00000000        0.00000001        0.00000000        0.00000001
      10         -0.906055        1.000000        0.00000022        0.00000001        0.00000011        0.00000024
      11         -0.905718        1.000000        0.00000001        0.00000000        0.00000001        0.00000001
      12         -0.903046        1.000000        0.00000002        0.00000004        0.00000004        0.00000015
      13         -0.899914        1.000000        0.00000659        0.00000005        0.00000095        0.00000792
      14         -0.896969        1.000000        0.00000043        0.00000006        0.00000037        0.00000008
      15         -0.891150        1.000000        0.00000196        0.00000081        0.00000157        0.00000001
      16         -0.888150        1.000000        0.00000008        0.00000008        0.00000001        0.00000001
      17         -0.888111        1.000000        0.00000001        0.00000000        0.00000001        0.00000000
      18         -0.887572        1.000000        0.06072924        0.00069087        0.02969092        0.01382137
      19         -0.884970        1.000000        0.00000128        0.00000062        0.00000012        0.00000000
      20         -0.884408        1.000000        0.00000154        0.00000009        0.00000101        0.00000035
      21         -0.882452        1.000000        0.00151636        0.00009244        0.00097614        0.00030087
      22         -0.881892        1.000000        0.00003353        0.00000044        0.00000531        0.00003114
      23         -0.881027        1.000000        0.00000025        0.00000015        0.00000113        0.00000000
      24         -0.880632        1.000000        0.00000001        0.00000000        0.00000000        0.00000001
      25         -0.879857        1.000000        0.00000083        0.00000047        0.00000006        0.00000089
      26         -0.879359        1.000000        0.00000003        0.00000003        0.00000002        0.00000000
      27         -0.877567        1.000000        0.05490639        0.00945744        0.00484934        0.02793564
      28         -0.875876        1.000000        0.00000005        0.00000000        0.00000001        0.00000002
      29         -0.872907        1.000000        0.00000034        0.00000069        0.00000071        0.00000046
      30         -0.872742        1.000000        0.00000000        0.00000000        0.00000000        0.00000001
      31         -0.872568        1.000000        0.00001082        0.00000025        0.00000469        0.00000487
      32         -0.872093        1.000000        0.00259233        0.00038511        0.00158117        0.00018007
      33         -0.868890        1.000000        0.00001710        0.00000011        0.00000133        0.00001587
      34         -0.868093        1.000000        0.00000058        0.00001178        0.00000149        0.00000578
      35         -0.866192        1.000000        0.00242793        0.00001482        0.00106160        0.00080687
      36         -0.861562        1.000000        0.00007664        0.00000191        0.00005652        0.00001335
      37         -0.858654        1.000000        0.00000001        0.00000000        0.00000001        0.00000001
      38         -0.857406        1.000000        0.00000680        0.00000092        0.00000002        0.00000356
      39         -0.854516        1.000000        0.00032647        0.00001513        0.00000320        0.00027508
      40         -0.853343        1.000000        0.01130811        0.00010629        0.00382735        0.00393554
      41         -0.852823        1.000000        0.00120582        0.00001423        0.00009634        0.00094122
      42         -0.851403        1.000000        0.00000000        0.00000000        0.00000003        0.00000000
      43         -0.850264        1.000000        0.00000006        0.00000001        0.00000001        0.00000008
      44         -0.849873        1.000000        0.00000015        0.00000008        0.00000004        0.00000008
      45         -0.849341        1.000000        0.00000000        0.00000000        0.00000178        0.00000447
      46         -0.848148        1.000000        0.00011711        0.00000665        0.00000862        0.00008166
      47         -0.847897        1.000000        0.00000000        0.00000000        0.00000000        0.00000001
      48         -0.845708        1.000000        0.00000063        0.00000001        0.00000022        0.00000015
      49         -0.845607        1.000000        0.00000123        0.00000152        0.00000001        0.00000105
      50         -0.842454        1.000000        0.00581035        0.00019302        0.00005032        0.00382988
      51         -0.842103        1.000000        0.00029566        0.00002350        0.00000780        0.00023353
      52         -0.839594        1.000000        0.00000521        0.00000385        0.00003205        0.00003671
      53         -0.839561        1.000000        0.00000000        0.00000000        0.00000000        0.00000000
      54         -0.839389        1.000000        0.00093367        0.00001435        0.00007784        0.00062653
      55         -0.838350        1.000000        0.00680466        0.00010946        0.00040501        0.00460666
      56         -0.838168        1.000000        0.00028922        0.00000332        0.00012025        0.00010064
      57         -0.837815        1.000000        0.03339253        0.00032843        0.00858603        0.01166252
      58         -0.837398        1.000000        0.00000886        0.00000004        0.00000126        0.00000464
      59         -0.837206        1.000000        0.00037082        0.00003976        0.00014452        0.00008745
      60         -0.836867        1.000000        0.00000021        0.00000001        0.00000001        0.00000011
      61         -0.833968        1.000000        0.00700592        0.00018310        0.00051203        0.00465787
      62         -0.832060        1.000000        0.07286868        0.00262487        0.03530930        0.00492051
      63         -0.831683        1.000000        0.00000159        0.00000040        0.00001366        0.00002104
      64         -0.831468        1.000000        0.00000000        0.00000000        0.00000000        0.00000000
      65         -0.830208        1.000000        0.00000000        0.00000000        0.00000000        0.00000000
      66         -0.829348        1.000000        0.01241469        0.00027360        0.00024669        0.00737868
      67         -0.827826        1.000000        0.00253199        0.00015998        0.00006745        0.00154940
      68         -0.827509        1.000000        0.00701627        0.00019624        0.00052951        0.00431116
      69         -0.822700        1.000000        0.03099871        0.00026170        0.00623801        0.01039502
      70         -0.820308        1.000000        0.00000004        0.00000000        0.00000001        0.00000000
      71         -0.819047        1.000000        0.00000000        0.00000000        0.00000000        0.00000000
      72         -0.818911        1.000000        0.02503305        0.00047684        0.00068928        0.01349893
      73         -0.816191        1.000000        0.00012496        0.00000590        0.00004946        0.00001642
      74         -0.813252        1.000000        0.00000010        0.00000002        0.00000008        0.00000001
      75         -0.811381        1.000000        0.02064616        0.00051821        0.00112427        0.01032811
      76         -0.809123        1.000000        0.05379369        0.00217655        0.00422560        0.02738823
      77         -0.808080        1.000000        0.00005601        0.00001189        0.00014751        0.00009245
      78         -0.807584        1.000000        0.00006674        0.00000349        0.00000082        0.00003105
      79         -0.805432        1.000000        0.00000002        0.00000002        0.00000025        0.00000004
      80         -0.804615        1.000000        0.00000158        0.00000005        0.00000006        0.00000061
      81         -0.804360        1.000000        0.00003611        0.00000829        0.00008221        0.00011568
      82         -0.803411        1.000000        0.01104646        0.00012683        0.00027771        0.00512102
      83         -0.796828        1.000000        0.07733842        0.00221306        0.00385646        0.03482160
      84         -0.793352        1.000000        0.00000114        0.00000004        0.00000026        0.00000030
      85         -0.790394        1.000000        0.00637668        0.00005618        0.00022689        0.00260744
      86         -0.630539        1.000000        0.43908978        0.00001512        0.00094982        0.00063753
      87         -0.613767        1.000000        0.44110170        0.00002775        0.00062900        0.00015190
      88         -0.604616        1.000000        0.15411068        0.00000046        0.00048888        0.00172258
      89         -0.603400        1.000000        0.43029478        0.00013289        0.00643581        0.00049148
      90         -0.602736        1.000000        0.27539600        0.00011947        0.00181375        0.00273090
      91         -0.591221        1.000000        0.21622929        0.00003990        0.00031002        0.00458275
      92         -0.588678        1.000000        0.20896240        0.00018647        0.00037674        0.00291822
      93         -0.581333        1.000000        0.42094778        0.00046499        0.00077043        0.00813256
      94         -0.572573        1.000000        0.41321525        0.00013388        0.00031313        0.00370889
      95         -0.571026        1.000000        0.02145521        0.00009016        0.00001153        0.00013684
      96         -0.569198        1.000000        0.00022552        0.00000335        0.00003488        0.00003854
      97         -0.561263        1.000000        0.00005133        0.00002701        0.00008639        0.00000446
      98         -0.557081        1.000000        0.00098674        0.00017594        0.00002609        0.00015420
      99         -0.554484        1.000000        0.00038566        0.00021767        0.00028414        0.00001299
     100         -0.549986        1.000000        0.00029483        0.00015051        0.00013885        0.00018359
     101         -0.547890        1.000000        0.00022968        0.00055831        0.00045723        0.00016418
     102         -0.545672        1.000000        0.00042806        0.00044459        0.00006856        0.00059154
     103         -0.542341        1.000000        0.00017459        0.00004948        0.00002152        0.00009443
     104         -0.541844        1.000000        0.00024467        0.00127542        0.00031817        0.00047279
     105         -0.540197        1.000000        0.00009624        0.00012966        0.00009099        0.00001640
     106         -0.540048        1.000000        0.00129665        0.00085368        0.00175411        0.00143624
     107         -0.537827        1.000000        0.00028884        0.00307218        0.00054480        0.00011861
     108         -0.537657        1.000000        0.00034402        0.00191131        0.00144331        0.00068536
     109         -0.536742        1.000000        0.00019222        0.00017534        0.00070667        0.00113206
     110         -0.536274        1.000000        0.00037021        0.00018057        0.00042215        0.00116090
     111         -0.534928        1.000000        0.00021786        0.00114423        0.00031244        0.00070482
     112         -0.533343        1.000000        0.00047073        0.00084348        0.00054990        0.00035816
     113         -0.531903        1.000000        0.00031046        0.00034796        0.00008778        0.00037734
     114         -0.531533        1.000000        0.00001033        0.00005641        0.00005751        0.00006355
     115         -0.529936        1.000000        0.00058922        0.00016802        0.00042779        0.00047821
     116         -0.527669        1.000000        0.00056035        0.00100405        0.00120154        0.00122699
     117         -0.526615        1.000000        0.00057873        0.00051954        0.00012649        0.00010258
     118         -0.525833        1.000000        0.00019225        0.00018294        0.00032208        0.00044285
     119         -0.525806        1.000000        0.00038587        0.00017331        0.00030823        0.00157601
     120         -0.522784        1.000000        0.00035481        0.00024749        0.00100851        0.00134429
     121         -0.522591        1.000000        0.00004418        0.00014887        0.00011311        0.00035546
     122         -0.520509        1.000000        0.00010027        0.00053493        0.00019731        0.00042716
     123         -0.520112        1.000000        0.00022390        0.00017075        0.00030362        0.00034120
     124         -0.519294        1.000000        0.00004564        0.00013534        0.00008554        0.00003571
     125         -0.519129        1.000000        0.00020137        0.00007248        0.00050748        0.00018254
     126         -0.518650        1.000000        0.00005028        0.00059629        0.00016860        0.00003198
     127         -0.518566        1.000000        0.00004600        0.00037201        0.00016013        0.00007287
     128         -0.516788        1.000000        0.00010887        0.00050208        0.00015950        0.00015279
     129         -0.507571        1.000000        0.00006511        0.00262284        0.01327728        0.03122632
     130         -0.502754        1.000000        0.00006461        0.05166191        0.00166394        0.00052722
     131         -0.502099        1.000000        0.00025464        0.03686525        0.00750698        0.00405392
     132         -0.492495        1.000000        0.00019361        0.00307184        0.03465154        0.01374542
     133         -0.484957        1.000000        0.00004576        0.00054452        0.00216856        0.00023565
     134         -0.482317        1.000000        0.00002670        0.00002225        0.00006998        0.00000710
     135         -0.481216        1.000000        0.00011686        0.01582680        0.00402453        0.00788887
     136         -0.478235        1.000000        0.00000128        0.00002507        0.00000276        0.00000061
     137         -0.477642        1.000000        0.00000437        0.00003668        0.00001909        0.00000072
     138         -0.475277        1.000000        0.00011227        0.01600680        0.00491634        0.01317329
     139         -0.474407        1.000000        0.00000148        0.00151544        0.00000365        0.00000703
     140         -0.473861        1.000000        0.00000005        0.00000026        0.00000005        0.00000019
     141         -0.472955        1.000000        0.00001114        0.07477175        0.00063682        0.00022640
     142         -0.472421        1.000000        0.00001584        0.00012436        0.00002110        0.00000770
     143         -0.472362        1.000000        0.00000742        0.00005575        0.00003644        0.00007381
     144         -0.468667        1.000000        0.00000593        0.00035832        0.00020696        0.00066392
     145         -0.468238        1.000000        0.00000612        0.00056001        0.00018083        0.00002204
     146         -0.465696        1.000000        0.00001208        0.00046222        0.00022303        0.00026269
     147         -0.464210        1.000000        0.00001381        0.00001236        0.00047972        0.00016700
     148         -0.463164        1.000000        0.00074040        0.00056276        0.04890950        0.02158888
     149         -0.462966        1.000000        0.00000010        0.00000131        0.00000152        0.00000046
     150         -0.460961        1.000000        0.00004412        0.02036845        0.00212665        0.04414568
     151         -0.459947        1.000000        0.00000046        0.00001297        0.00000292        0.00000430
     152         -0.459487        1.000000        0.00000006        0.00000036        0.00000240        0.00000038
     153         -0.457464        1.000000        0.00000092        0.00000198        0.00000419        0.00000100
     154         -0.455572        1.000000        0.00000201        0.00002324        0.00001947        0.00000184
     155         -0.454926        1.000000        0.00012324        0.04154173        0.02957830        0.00891137
     156         -0.454351        1.000000        0.00001934        0.00150141        0.00131558        0.00053999
     157         -0.453780        1.000000        0.00000444        0.00245188        0.00000983        0.00020193
     158         -0.453485        1.000000        0.00000175        0.00000254        0.00004302        0.00000766
     159         -0.452228        1.000000        0.00000013        0.00000300        0.00001089        0.00000114
     160         -0.451748        1.000000        0.00007327        0.01728537        0.00001595        0.00129960
     161         -0.451451        1.000000        0.00001691        0.00595441        0.05514609        0.00453693
     162         -0.450329        1.000000        0.00000861        0.00019592        0.00017441        0.00010812
     163         -0.450046        1.000000        0.00000172        0.00000738        0.00001509        0.00000356
     164         -0.449429        1.000000        0.00000261        0.03107769        0.02927975        0.00976855
     165         -0.445793        1.000000        0.00000210        0.00002102        0.00002926        0.00001713
     166         -0.444897        1.000000        0.00000003        0.00000050        0.00000021        0.00000012
     167         -0.441983        1.000000        0.00002327        0.00019254        0.00072118        0.00366439
     168         -0.440947        1.000000        0.00000067        0.00000346        0.00000110        0.00000556
     169         -0.440850        1.000000        0.00011792        0.00345319        0.00796874        0.00079783
     170         -0.439320        1.000000        0.00006477        0.01575737        0.00062699        0.00285922
     171         -0.439274        1.000000        0.00015297        0.04043834        0.00143920        0.00760586
     172         -0.438196        1.000000        0.00043863        0.04151609        0.03637018        0.00146418
     173         -0.436427        1.000000        0.00001895        0.00037901        0.00076685        0.00008568
     174         -0.435850        1.000000        0.00000006        0.00018915        0.00000513        0.00000544
     175         -0.434973        1.000000        0.00001220        0.00003062        0.00011746        0.00001214
     176         -0.434810        1.000000        0.00000183        0.00295038        0.00010818        0.00006933
     177         -0.434667        1.000000        0.00000236        0.00007662        0.00031084        0.00021748
     178         -0.434578        1.000000        0.00000056        0.00006715        0.00004496        0.00003040
     179         -0.433342        1.000000        0.00000012        0.00002491        0.00000862        0.00000041
     180         -0.432370        1.000000        0.00001851        0.00032307        0.00224960        0.00136262
     181         -0.432302        1.000000        0.00000361        0.00030550        0.00013268        0.00003064
     182         -0.428443        1.000000        0.00000482        0.00001564        0.00001580        0.00006617
     183         -0.428043        1.000000        0.00000162        0.00000041        0.00001160        0.00000675
     184         -0.427830        1.000000        0.00002095        0.00017653        0.00036697        0.00062946
     185         -0.427543        1.000000        0.00001922        0.00023803        0.00009981        0.00007207
     186         -0.426465        1.000000        0.00001718        0.00009912        0.00006531        0.00004235
     187         -0.425432        1.000000        0.00000649        0.00018744        0.00005950        0.00035448
     188         -0.422799        1.000000        0.00000073        0.04769956        0.05269799        0.00055926
     189         -0.421318        1.000000        0.00033526        0.00130324        0.00012517        0.00147529
     190         -0.420838        1.000000        0.00001476        0.00011831        0.00011578        0.00000570
     191         -0.420237        1.000000        0.00003879        0.00010748        0.00009879        0.00024071
     192         -0.419153        1.000000        0.00000014        0.00000009        0.00000121        0.00000142
     193         -0.418911        1.000000        0.00000230        0.00000930        0.00011391        0.00000767
     194         -0.417003        1.000000        0.00022206        0.00040585        0.00132352        0.00162562
     195         -0.415848        1.000000        0.00004541        0.00002709        0.00046096        0.00025485
     196         -0.415470        1.000000        0.00009653        0.00004060        0.00129434        0.00074334
     197         -0.414947        1.000000        0.00006972        0.00000649        0.00146964        0.00515128
     198         -0.413627        1.000000        0.00000568        0.00001036        0.00005779        0.00003338
     199         -0.413415        1.000000        0.00030263        0.00035683        0.00314297        0.00179396
     200         -0.412879        1.000000        0.00001215        0.00002007        0.00018132        0.00008315
     201         -0.411692        1.000000        0.00010331        0.00149015        0.00160728        0.00027618
     202         -0.411538        1.000000        0.00737467        0.00307462        0.06623316        0.03910209
     203         -0.410562        1.000000        0.00006148        0.00010345        0.00070950        0.00046418
     204         -0.410228        1.000000        0.01421154        0.00268993        0.14138461        0.07147602
     205         -0.408817        1.000000        0.00032175        0.00029735        0.00332087        0.00288863
     206         -0.407469        1.000000        0.00008154        0.00005740        0.00061229        0.00034978
     207         -0.406783        1.000000        0.00022861        0.00038723        0.00062879        0.00120194
     208         -0.405856        1.000000        0.00004715        0.00020024        0.00072411        0.00044715
     209         -0.404287        1.000000        0.00000134        0.00001596        0.00000548        0.00007555
     210         -0.403290        1.000000        0.00000657        0.00008631        0.00002232        0.00012112
     211         -0.402908        1.000000        0.00000706        0.00000984        0.00001631        0.00000851
     212         -0.402563        1.000000        0.00022699        0.00054244        0.00090090        0.00143595
     213         -0.401801        1.000000        0.00076005        0.00258825        0.00251673        0.00450802
     214         -0.401072        1.000000        0.00060714        0.00145222        0.00277406        0.00372520
     215         -0.399497        1.000000        0.00000296        0.00001597        0.00001099        0.00002974
     216         -0.398052        1.000000        0.00000588        0.00001608        0.00004823        0.00004538
     217         -0.395849        1.000000        0.02355097        0.06146474        0.04675783        0.18810001
     218         -0.395444        1.000000        0.00022512        0.00056450        0.00046379        0.00175479
     219         -0.395023        1.000000        0.00000146        0.00000205        0.00000327        0.00005519
     220         -0.394847        1.000000        0.00000253        0.00000747        0.00002756        0.00002707
     221         -0.392208        1.000000        0.00000326        0.00011598        0.00014336        0.00011970
     222         -0.389460        1.000000        0.00000024        0.00000071        0.00000088        0.00000229
     223         -0.388824        1.000000        0.00000085        0.00000702        0.00000114        0.00000217
     224         -0.384172        1.000000        0.00120230        0.00157998        0.00971470        0.00132965
     225         -0.383348        1.000000        0.00004026        0.00400563        0.00221550        0.00820236
     226         -0.380739        1.000000        0.01152399        0.00433177        0.19352146        0.14470050
     227         -0.380661        1.000000        0.01172921        0.02483011        0.26412166        0.05054153
     228         -0.378942        1.000000        0.00067696        0.00551176        0.00019694        0.00085413
     229         -0.378169        1.000000        0.00076795        0.00389491        0.00044684        0.00131874
     230         -0.376911        1.000000        0.00000141        0.00000657        0.00001862        0.00000950
     231         -0.375660        1.000000        0.00000027        0.00000015        0.00000331        0.00000184
     232         -0.371120        1.000000        0.00000207        0.00000302        0.00003487        0.00002397
     233         -0.368573        1.000000        0.00000533        0.00006946        0.00028269        0.00003943
     234         -0.364545        1.000000        0.00993003        0.01327997        0.00686224        0.32015286
     235         -0.361039        1.000000        0.00995075        0.00267860        0.01588952        0.31697004
     236         -0.353425        1.000000        0.00000340        0.00007738        0.00009009        0.00003718
     237         -0.352840        1.000000        0.00014432        0.00025713        0.00024333        0.00293887
     238         -0.352203        1.000000        0.01453439        0.00221168        0.02783702        0.30133664
     239         -0.348794        1.000000        0.00000424        0.33511125        0.09687562        0.09180664
     240         -0.348274        1.000000        0.00000071        0.00062815        0.00014730        0.00047748
     241         -0.347537        1.000000        0.00000991        0.18370642        0.08796723        0.25799977
     242         -0.339085        1.000000        0.00019766        0.00140674        0.17049173        0.26015672
     243         -0.336849        1.000000        0.00000251        0.00197814        0.00177739        0.00270663
     244         -0.335592        1.000000        0.00000799        0.33391165        0.02394463        0.02536805
     245         -0.335160        1.000000        0.00000388        0.00738533        0.00180204        0.00114271
     246         -0.331109        1.000000        0.00001824        0.01280533        0.09187229        0.38283678
     247         -0.330517        1.000000        0.00008387        0.26039282        0.07423821        0.18941677
     248         -0.327895        1.000000        0.00006767        0.06555770        0.00733149        0.00213028
     249         -0.327590        1.000000        0.00017084        0.14922984        0.35249424        0.00431507
     250         -0.327327        1.000000        0.00002236        0.02675310        0.00513342        0.00107435
     251         -0.326085        1.000000        0.00001663        0.00096477        0.02869846        0.00127369
     252         -0.325879        1.000000        0.00000023        0.42297990        0.00104999        0.00688103
     253         -0.324797        1.000000        0.00000073        0.07053712        0.00035072        0.00004063
     254         -0.323102        1.000000        0.00000705        0.01039039        0.00106800        0.00041358
     255         -0.322329        1.000000        0.00010051        0.04632927        0.35469339        0.00002614
     256         -0.314665        1.000000        0.00001768        0.03048554        0.00704220        0.00127365
     257         -0.314022        1.000000        0.00002555        0.24932153        0.02638889        0.00032793
     258         -0.312936        1.000000        0.00001765        0.37738284        0.04659877        0.02756447
     259         -0.312525        1.000000        0.00001805        0.02362965        0.01304959        0.00810567