# Projected DOS for atomic kind N at iteration step i = 0, E(Fermi) =    -0.128954 a.u.
#     MO Eigenvalue [a.u.]      Occupation                 s                py                pz                px
       1         -0.933491        1.000000        0.00000000        0.00000001        0.00000000        0.00000000
       2         -0.923274        1.000000        0.00000000        0.00000000        0.00000000        0.00000000
       3         -0.922568        1.000000        0.00000002        0.00000000        0.00000000        0.00000001
       4         -0.917149        1.000000        0.00037766        0.00005128        0.00000032        0.00000114
       5         -0.914847        1.000000        0.00002799        0.00000416        0.00000883        0.00000831
       6         -0.911734        1.000000        0.00000000        0.00000000        0.00000000        0.00000000
       7         -0.907239        1.000000        0.00000213        0.00000027        0.00000002        0.00000002
       8         -0.906524        1.000000        0.00001632        0.00000168        0.00000000        0.00000117
       9         -0.906511        1.000000        0.00000001        0.00000000        0.00000000        0.00000000
      10         -0.906055        1.000000        0.00000329        0.00000012        0.00000012        0.00000119
      11         -0.905718        1.000000        0.00000010        0.00000001        0.00000000        0.00000001
      12         -0.903046        1.000000        0.00000001        0.00000000        0.00000000        0.00000000
      13         -0.899914        1.000000        0.00008758        0.00001099        0.00000098        0.00000503
      14         -0.896969        1.000000        0.00000384        0.00000002        0.00000020        0.00000005
      15         -0.891150        1.000000        0.00001883        0.00000133        0.00000012        0.00000024
      16         -0.888150        1.000000        0.00000037        0.00000000        0.00000000        0.00000000
      17         -0.888111        1.000000        0.00000014        0.00000000        0.00000000        0.00000000
      18         -0.887572        1.000000        0.61332466        0.00002066        0.00012643        0.00001489
      19         -0.884970        1.000000        0.00000718        0.00000000        0.00000000        0.00000000
      20         -0.884408        1.000000        0.00001684        0.00000001        0.00000000        0.00000077
      21         -0.882452        1.000000        0.01638231        0.00000005        0.00000047        0.00060851
      22         -0.881892        1.000000        0.00039215        0.00001055        0.00000081        0.00001586
      23         -0.881027        1.000000        0.00000020        0.00000000        0.00000001        0.00000001
      24         -0.880632        1.000000        0.00000010        0.00000000        0.00000000        0.00000000
      25         -0.879857        1.000000        0.00000990        0.00000226        0.00000004        0.00000034
      26         -0.879359        1.000000        0.00000019        0.00000000        0.00000000        0.00000000
      27         -0.877567        1.000000        0.61510187        0.00008460        0.00000072        0.00039420
      28         -0.875876        1.000000        0.00000046        0.00000000        0.00000000        0.00000000
      29         -0.872907        1.000000        0.00000031        0.00000000        0.00000000        0.00000002
      30         -0.872742        1.000000        0.00000002        0.00000001        0.00000000        0.00000001
      31         -0.872568        1.000000        0.00011677        0.00000139        0.00000201        0.00000248
      32         -0.872093        1.000000        0.02524547        0.00089086        0.00000020        0.00007386
      33         -0.868890        1.000000        0.00020934        0.00000435        0.00000031        0.00000552
      34         -0.868093        1.000000        0.00003338        0.00000005        0.00000002        0.00000026
      35         -0.866192        1.000000        0.02250256        0.00000929        0.00012104        0.00001671
      36         -0.861562        1.000000        0.00082251        0.00001264        0.00000020        0.00000063
      37         -0.858654        1.000000        0.00000005        0.00000000        0.00000000        0.00000000
      38         -0.857406        1.000000        0.00005804        0.00000016        0.00000070        0.00000014
      39         -0.854516        1.000000        0.00334707        0.00002455        0.00012719        0.00006015
      40         -0.853343        1.000000        0.09788905        0.00001205        0.00001156        0.00000073
      41         -0.852823        1.000000        0.01333646        0.00008573        0.00000728        0.00013074
      42         -0.851403        1.000000        0.00000001        0.00000000        0.00000000        0.00000000
      43         -0.850264        1.000000        0.00000046        0.00000004        0.00000004        0.00000010
      44         -0.849873        1.000000        0.00000175        0.00000002        0.00000003        0.00000001
      45         -0.849341        1.000000        0.00000898        0.00000000        0.00000009        0.00000044
      46         -0.848148        1.000000        0.00102638        0.00000092        0.00000558        0.00000143
      47         -0.847897        1.000000        0.00000002        0.00000000        0.00000000        0.00000000
      48         -0.845708        1.000000        0.00000615        0.00000083        0.00000002        0.00000006
      49         -0.845607        1.000000        0.00000255        0.00000000        0.00000000        0.00000008
      50         -0.842454        1.000000        0.04973201        0.00000931        0.00011683        0.00003215
      51         -0.842103        1.000000        0.00274711        0.00000075        0.00000654        0.00000283
      52         -0.839594        1.000000        0.00002140        0.00000010        0.00000051        0.00000178
      53         -0.839561        1.000000        0.00000001        0.00000000        0.00000000        0.00000000
      54         -0.839389        1.000000        0.00926737        0.00000809        0.00000115        0.00002047
      55         -0.838350        1.000000        0.06276752        0.00042450        0.00002454        0.00030076
      56         -0.838168        1.000000        0.00263982        0.00000001        0.00000104        0.00000077
      57         -0.837815        1.000000        0.26011163        0.00000557        0.00121202        0.00036320
      58         -0.837398        1.000000        0.00007515        0.00000006        0.00000000        0.00000002
      59         -0.837206        1.000000        0.00193262        0.00000302        0.00000327        0.00000957
      60         -0.836867        1.000000        0.00000165        0.00000000        0.00000000        0.00000000
      61         -0.833968        1.000000        0.06926355        0.00000437        0.00000296        0.00007005
      62         -0.832060        1.000000        0.55446882        0.00091091        0.00003041        0.00046623
      63         -0.831683        1.000000        0.00001649        0.00000013        0.00000023        0.00000218
      64         -0.831468        1.000000        0.00000001        0.00000000        0.00000000        0.00000000
      65         -0.830208        1.000000        0.00000000        0.00000000        0.00000000        0.00000000
      66         -0.829348        1.000000        0.09833354        0.00002659        0.00000732        0.00000143
      67         -0.827826        1.000000        0.02194141        0.00052732        0.00050333        0.00004685
      68         -0.827509        1.000000        0.06557537        0.00003472        0.00001427        0.00000532
      69         -0.822700        1.000000        0.21317825        0.00000021        0.00483307        0.00103695
      70         -0.820308        1.000000        0.00000022        0.00000000        0.00000001        0.00000000
      71         -0.819047        1.000000        0.00000001        0.00000000        0.00000000        0.00000000
      72         -0.818911        1.000000        0.18413255        0.00025582        0.00057091        0.00016358
      73         -0.816191        1.000000        0.00039268        0.00000298        0.00000046        0.00000762
      74         -0.813252        1.000000        0.00000074        0.00000001        0.00000001        0.00000001
      75         -0.811381        1.000000        0.15128011        0.00024485        0.00137571        0.00028596
      76         -0.809123        1.000000        0.43901373        0.00394089        0.00025164        0.00132991
      77         -0.808080        1.000000        0.00001052        0.00000142        0.00000105        0.00000430
      78         -0.807584        1.000000        0.00039340        0.00000281        0.00000421        0.00000223
      79         -0.805432        1.000000        0.00000003        0.00000000        0.00000000        0.00000000
      80         -0.804615        1.000000        0.00001144        0.00000018        0.00000005        0.00000009
      81         -0.804360        1.000000        0.00003682        0.00000284        0.00000006        0.00001182
      82         -0.803411        1.000000        0.06844735        0.00042159        0.00104421        0.00042643
      83         -0.796828        1.000000        0.50358102        0.00053111        0.00066502        0.00214396
      84         -0.793352        1.000000        0.00000861        0.00000013        0.00000022        0.00000018
      85         -0.790394        1.000000        0.03548054        0.00039088        0.00123960        0.00048916
      86         -0.630539        1.000000        0.01757506        0.00266742        0.12666391        0.06150316
      87         -0.613767        1.000000        0.01295092        0.04211942        0.02986700        0.13156204
      88         -0.604616        1.000000        0.00768905        0.00020071        0.01575204        0.04468622
      89         -0.603400        1.000000        0.02824401        0.00583784        0.13757017        0.01548603
      90         -0.602736        1.000000        0.01944419        0.00225292        0.03204109        0.06852963
      91         -0.591221        1.000000        0.01510777        0.00136074        0.00873749        0.06870215
      92         -0.588678        1.000000        0.01430380        0.00146508        0.00877230        0.06761035
      93         -0.581333        1.000000        0.03222953        0.01095492        0.01753344        0.12545017
      94         -0.572573        1.000000        0.02153319        0.01691809        0.02162312        0.12659204
      95         -0.571026        1.000000        0.00110071        0.00093585        0.00111756        0.00683593
      96         -0.569198        1.000000        0.00008180        0.00000415        0.00007267        0.00015926
      97         -0.561263        1.000000        0.00004605        0.00009953        0.00027503        0.00006164
      98         -0.557081        1.000000        0.00006117        0.00059444        0.00027299        0.00066336
      99         -0.554484        1.000000        0.00058350        0.00289457        0.00062217        0.00019166
     100         -0.549986        1.000000        0.00001954        0.00106021        0.00012021        0.00054876
     101         -0.547890        1.000000        0.00014922        0.00513816        0.00440033        0.00024115
     102         -0.545672        1.000000        0.00006697        0.00210598        0.00113740        0.00147017
     103         -0.542341        1.000000        0.00001197        0.00035525        0.00021281        0.00029131
     104         -0.541844        1.000000        0.00018804        0.01409794        0.00096035        0.00509943
     105         -0.540197        1.000000        0.00003601        0.00106843        0.00061008        0.00015828
     106         -0.540048        1.000000        0.00069538        0.00782355        0.00394437        0.00938140
     107         -0.537827        1.000000        0.00021325        0.03004841        0.00632462        0.00005238
     108         -0.537657        1.000000        0.00010915        0.02211939        0.01342913        0.00762084
     109         -0.536742        1.000000        0.00013654        0.00116916        0.00327948        0.00861095
     110         -0.536274        1.000000        0.00032338        0.00189955        0.00395787        0.00821441
     111         -0.534928        1.000000        0.00006430        0.01361922        0.00295285        0.00776709
     112         -0.533343        1.000000        0.00065430        0.00667061        0.00267653        0.01014634
     113         -0.531903        1.000000        0.00008984        0.00267741        0.00047451        0.00136971
     114         -0.531533        1.000000        0.00002485        0.00048792        0.00030409        0.00084087
     115         -0.529936        1.000000        0.00020564        0.00080526        0.00071973        0.00103945
     116         -0.527669        1.000000        0.00015813        0.01034517        0.00910554        0.01295203
     117         -0.526615        1.000000        0.00035111        0.00499433        0.00148261        0.00112459
     118         -0.525833        1.000000        0.00011716        0.00133091        0.00041349        0.00122494
     119         -0.525806        1.000000        0.00031957        0.00132519        0.00348510        0.00616131
     120         -0.522784        1.000000        0.00024633        0.00641303        0.01752089        0.01027943
     121         -0.522591        1.000000        0.00003367        0.00107970        0.00194997        0.00132914
     122         -0.520509        1.000000        0.00002404        0.00273281        0.00136933        0.00284351
     123         -0.520112        1.000000        0.00007335        0.00122200        0.00497346        0.00227303
     124         -0.519294        1.000000        0.00001246        0.00113663        0.00038354        0.00034340
     125         -0.519129        1.000000        0.00014507        0.00047450        0.00377662        0.00078489
     126         -0.518650        1.000000        0.00005437        0.00665090        0.00111639        0.00089113
     127         -0.518566        1.000000        0.00033352        0.00134888        0.00039193        0.00069780
     128         -0.516788        1.000000        0.00002395        0.00398519        0.00157098        0.00188697
     129         -0.507571        1.000000        0.00017747        0.02554484        0.13473173        0.32569301
     130         -0.502754        1.000000        0.00010322        0.46620203        0.02040514        0.00704360
     131         -0.502099        1.000000        0.00001720        0.38626977        0.09517172        0.05395810
     132         -0.492495        1.000000        0.00012739        0.03332200        0.36293068        0.13281447
     133         -0.484957        1.000000        0.00002585        0.00443307        0.02543723        0.00067298
     134         -0.482317        1.000000        0.00000131        0.00097408        0.00191801        0.00010339
     135         -0.481216        1.000000        0.00000174        0.11288243        0.03444500        0.06088833
     136         -0.478235        1.000000        0.00000177        0.00017196        0.00000060        0.00001733
     137         -0.477642        1.000000        0.00000045        0.00026771        0.00013260        0.00007954
     138         -0.475277        1.000000        0.00007537        0.11949538        0.04514075        0.09475985
     139         -0.474407        1.000000        0.00000396        0.01100775        0.00005670        0.00013907
     140         -0.473861        1.000000        0.00000000        0.00000111        0.00000077        0.00000065
     141         -0.472955        1.000000        0.00004307        0.53735590        0.00573087        0.00314936
     142         -0.472421        1.000000        0.00000745        0.00050311        0.00003815        0.00008320
     143         -0.472362        1.000000        0.00000209        0.00037761        0.00019947        0.00050901
     144         -0.468667        1.000000        0.00001145        0.00231964        0.00132802        0.00439709
     145         -0.468238        1.000000        0.00000738        0.00395900        0.00092305        0.00037762
     146         -0.465696        1.000000        0.00001294        0.00288765        0.00119722        0.00239675
     147         -0.464210        1.000000        0.00002812        0.00007062        0.00189358        0.00185735
     148         -0.463164        1.000000        0.00190113        0.00245904        0.20881846        0.18684073
     149         -0.462966        1.000000        0.00000026        0.00000804        0.00002052        0.00000088
     150         -0.460961        1.000000        0.00008387        0.11475211        0.00842071        0.27931718
     151         -0.459947        1.000000        0.00000003        0.00004679        0.00002594        0.00000209
     152         -0.459487        1.000000        0.00000001        0.00000175        0.00000235        0.00000123
     153         -0.457464        1.000000        0.00000070        0.00001205        0.00001223        0.00001610
     154         -0.455572        1.000000        0.00000297        0.00010634        0.00016254        0.00000773
     155         -0.454926        1.000000        0.00010852        0.28369099        0.19447580        0.03979804
     156         -0.454351        1.000000        0.00004112        0.01111340        0.00904498        0.00194112
     157         -0.453780        1.000000        0.00001935        0.01433676        0.00058523        0.00145042
     158         -0.453485        1.000000        0.00000045        0.00003912        0.00036837        0.00007490
     159         -0.452228        1.000000        0.00000002        0.00002073        0.00008670        0.00001111
     160         -0.451748        1.000000        0.00020910        0.09145509        0.00414368        0.00817750
     161         -0.451451        1.000000        0.00000032        0.05058891        0.48264586        0.04051586
     162         -0.450329        1.000000        0.00001178        0.00123295        0.00135640        0.00036595
     163         -0.450046        1.000000        0.00000077        0.00005619        0.00001215        0.00005918
     164         -0.449429        1.000000        0.00028745        0.20758494        0.20139314        0.06360422
     165         -0.445793        1.000000        0.00000054        0.00027897        0.00036546        0.00011827
     166         -0.444897        1.000000        0.00000003        0.00000397        0.00000148        0.00000028
     167         -0.441983        1.000000        0.00008472        0.00085189        0.00217653        0.02444426
     168         -0.440947        1.000000        0.00000030        0.00002714        0.00000365        0.00001134
     169         -0.440850        1.000000        0.00037945        0.01552850        0.04133891        0.00031138
     170         -0.439320        1.000000        0.00051369        0.11178111        0.00571911        0.00997466
     171         -0.439274        1.000000        0.00133656        0.29068804        0.01495687        0.02587198
     172         -0.438196        1.000000        0.00141273        0.19440128        0.17484095        0.00019770
     173         -0.436427        1.000000        0.00002561        0.00226450        0.00363904        0.00050255
     174         -0.435850        1.000000        0.00001040        0.00116340        0.00011622        0.00012805
     175         -0.434973        1.000000        0.00000275        0.00073059        0.00006927        0.00001410
     176         -0.434810        1.000000        0.00000078        0.01661696        0.00051209        0.00064422
     177         -0.434667        1.000000        0.00003139        0.00040868        0.00201913        0.00103126
     178         -0.434578        1.000000        0.00000709        0.00040319        0.00028849        0.00017057
     179         -0.433342        1.000000        0.00000458        0.00013090        0.00003332        0.00001912
     180         -0.432370        1.000000        0.00025378        0.00232831        0.01395104        0.00778410
     181         -0.432302        1.000000        0.00000597        0.00152609        0.00051788        0.00010045
     182         -0.428443        1.000000        0.00000057        0.00003722        0.00031808        0.00005716
     183         -0.428043        1.000000        0.00000172        0.00000010        0.00014873        0.00010659
     184         -0.427830        1.000000        0.00002438        0.00037543        0.00076943        0.00061990
     185         -0.427543        1.000000        0.00001461        0.00119068        0.00028077        0.00007229
     186         -0.426465        1.000000        0.00001060        0.00044268        0.00017028        0.00008349
     187         -0.425432        1.000000        0.00001461        0.00030868        0.00012298        0.00029690
     188         -0.422799        1.000000        0.00013815        0.20270104        0.22944217        0.00210762
     189         -0.421318        1.000000        0.00024673        0.00625632        0.00052796        0.00004207
     190         -0.420838        1.000000        0.00000006        0.00006419        0.00011884        0.00010125
     191         -0.420237        1.000000        0.00003564        0.00051909        0.00025871        0.00002869
     192         -0.419153        1.000000        0.00000015        0.00000073        0.00000126        0.00000237
     193         -0.418911        1.000000        0.00000179        0.00001433        0.00019237        0.00001026
     194         -0.417003        1.000000        0.00021756        0.00173592        0.00285969        0.00043227
     195         -0.415848        1.000000        0.00003010        0.00003970        0.00087929        0.00018002
     196         -0.415470        1.000000        0.00005843        0.00022945        0.00152476        0.00096441
     197         -0.414947        1.000000        0.00015921        0.00040021        0.00180645        0.00565236
     198         -0.413627        1.000000        0.00000305        0.00005044        0.00008762        0.00003121
     199         -0.413415        1.000000        0.00017918        0.00057440        0.00762053        0.00209366
     200         -0.412879        1.000000        0.00001226        0.00004331        0.00037915        0.00008534
     201         -0.411692        1.000000        0.00009258        0.00845848        0.00784938        0.00047497
     202         -0.411538        1.000000        0.00300835        0.00119613        0.09878559        0.04015616
     203         -0.410562        1.000000        0.00006151        0.00040304        0.00160188        0.00038698
     204         -0.410228        1.000000        0.00450910        0.00605821        0.18662694        0.08812206
     205         -0.408817        1.000000        0.00028255        0.00163125        0.01019646        0.00171099
     206         -0.407469        1.000000        0.00001728        0.00009359        0.00105769        0.00024208
     207         -0.406783        1.000000        0.00013189        0.00135354        0.00129275        0.00058299
     208         -0.405856        1.000000        0.00008974        0.00060263        0.00163383        0.00024232
     209         -0.404287        1.000000        0.00000154        0.00004266        0.00000563        0.00007555
     210         -0.403290        1.000000        0.00000086        0.00002788        0.00003181        0.00014203
     211         -0.402908        1.000000        0.00000231        0.00013852        0.00001826        0.00009279
     212         -0.402563        1.000000        0.00006366        0.00105177        0.00216391        0.00120538
     213         -0.401801        1.000000        0.00054683        0.00227221        0.00134223        0.00922503
     214         -0.401072        1.000000        0.00035822        0.00174862        0.00281500        0.00648955
     215         -0.399497        1.000000        0.00000177        0.00003837        0.00003687        0.00003497
     216         -0.398052        1.000000        0.00000330        0.00003015        0.00007809        0.00005969
     217         -0.395849        1.000000        0.00913124        0.08921093        0.04129758        0.25260657
     218         -0.395444        1.000000        0.00010180        0.00161949        0.00048215        0.00236152
     219         -0.395023        1.000000        0.00001157        0.00001429        0.00010809        0.00002157
     220         -0.394847        1.000000        0.00000245        0.00001603        0.00005365        0.00002193
     221         -0.392208        1.000000        0.00000167        0.00006712        0.00012482        0.00018376
     222         -0.389460        1.000000        0.00000028        0.00000123        0.00000129        0.00000193
     223         -0.388824        1.000000        0.00000037        0.00000513        0.00000125        0.00000499
     224         -0.384172        1.000000        0.00016567        0.00210888        0.00386221        0.00308846
     225         -0.383348        1.000000        0.00165705        0.00003457        0.03425764        0.00326629
     226         -0.380739        1.000000        0.00887750        0.00883959        0.15622114        0.24617062
     227         -0.380661        1.000000        0.00852752        0.02145512        0.35245394        0.04484215
     228         -0.378942        1.000000        0.00015971        0.00245572        0.00040028        0.00272535
     229         -0.378169        1.000000        0.00018802        0.00228399        0.00056849        0.00322567
     230         -0.376911        1.000000        0.00000072        0.00000884        0.00001048        0.00001297
     231         -0.375660        1.000000        0.00000011        0.00000059        0.00000309        0.00000248
     232         -0.371120        1.000000        0.00000121        0.00001071        0.00001356        0.00004772
     233         -0.368573        1.000000        0.00000112        0.00001633        0.00012447        0.00022139
     234         -0.364545        1.000000        0.00590283        0.01419546        0.01447120        0.38729876
     235         -0.361039        1.000000        0.01037172        0.03331096        0.03729096        0.31662250
     236         -0.353425        1.000000        0.00000394        0.00003250        0.00000968        0.00003865
     237         -0.352840        1.000000        0.00010008        0.00028930        0.00059832        0.00308023
     238         -0.352203        1.000000        0.00919962        0.02606831        0.05191516        0.32374659
     239         -0.348794        1.000000        0.00000797        0.02417617        0.00768592        0.00622105
     240         -0.348274        1.000000        0.00000043        0.00005363        0.00001957        0.00006847
     241         -0.347537        1.000000        0.00000126        0.01291903        0.00660593        0.01754981
     242         -0.339085        1.000000        0.00105221        0.00008383        0.00876444        0.00986136
     243         -0.336849        1.000000        0.00002411        0.00000349        0.00015697        0.00017668
     244         -0.335592        1.000000        0.00068783        0.00029313        0.00583670        0.00035894
     245         -0.335160        1.000000        0.00001659        0.00010908        0.00002599        0.00014489
     246         -0.331109        1.000000        0.00011671        0.00091123        0.01161692        0.01740206
     247         -0.330517        1.000000        0.00001110        0.01541210        0.00401724        0.01349909
     248         -0.327895        1.000000        0.00010524        0.00038098        0.00092827        0.00717070
     249         -0.327590        1.000000        0.00000118        0.00811726        0.02231287        0.00045867
     250         -0.327327        1.000000        0.00003986        0.00044443        0.00054051        0.00324856
     251         -0.326085        1.000000        0.00003474        0.00052682        0.00099924        0.00000596
     252         -0.325879        1.000000        0.00000915        0.03738580        0.00001687        0.00094772
     253         -0.324797        1.000000        0.00001707        0.00770514        0.00004204        0.00003613
     254         -0.323102        1.000000        0.00000090        0.00086949        0.00007284        0.00004474
     255         -0.322329        1.000000        0.00029322        0.00009509        0.00731513        0.00811022
     256         -0.314665        1.000000        0.00002133        0.00221492        0.00047790        0.00075141
     257         -0.314022        1.000000        0.00018118        0.00770770        0.00041505        0.00286572
     258         -0.312936        1.000000        0.00001570        0.04239182        0.00469841        0.00213826
     259         -0.312525        1.000000        0.00060126        0.01289300        0.00979851        0.00288038