# Projected DOS for atomic kind Pb at iteration step i = 0, E(Fermi) =    -0.128954 a.u.
#     MO Eigenvalue [a.u.]      Occupation                 s                py                pz                px
       1         -0.933491        1.000000        0.00000040        0.00000023        0.00000105        0.00000960
       2         -0.923274        1.000000        0.00000054        0.00000158        0.00000062        0.00000792
       3         -0.922568        1.000000        0.00000067        0.00000949        0.00000180        0.00000422
       4         -0.917149        1.000000        0.00000015        0.00000083        0.00000012        0.00000004
       5         -0.914847        1.000000        0.00000011        0.00000007        0.00000002        0.00000047
       6         -0.911734        1.000000        0.00000039        0.00000026        0.00000012        0.00000372
       7         -0.907239        1.000000        0.00000002        0.00000022        0.00000001        0.00000004
       8         -0.906524        1.000000        0.00000054        0.00000001        0.00000075        0.00000528
       9         -0.906511        1.000000        0.00000000        0.00000010        0.00000055        0.00000020
      10         -0.906055        1.000000        0.00000058        0.00000283        0.00000691        0.00000108
      11         -0.905718        1.000000        0.00000002        0.00000150        0.00000429        0.00000006
      12         -0.903046        1.000000        0.00000131        0.00000591        0.00001621        0.00000273
      13         -0.899914        1.000000        0.00000010        0.00000006        0.00000002        0.00000048
      14         -0.896969        1.000000        0.00000076        0.00000210        0.00001248        0.00000749
      15         -0.891150        1.000000        0.00000011        0.00000145        0.00000001        0.00000000
      16         -0.888150        1.000000        0.00000009        0.00000008        0.00000063        0.00000015
      17         -0.888111        1.000000        0.00000010        0.00000178        0.00000217        0.00000000
      18         -0.887572        1.000000        0.00000022        0.00000166        0.00000259        0.00000081
      19         -0.884970        1.000000        0.00000001        0.00000005        0.00000017        0.00000020
      20         -0.884408        1.000000        0.00000060        0.00000127        0.00000255        0.00000110
      21         -0.882452        1.000000        0.00001094        0.00008047        0.00009996        0.00000911
      22         -0.881892        1.000000        0.00000004        0.00000031        0.00000040        0.00000039
      23         -0.881027        1.000000        0.00000030        0.00000357        0.00000116        0.00000219
      24         -0.880632        1.000000        0.00000098        0.00000640        0.00001441        0.00000474
      25         -0.879857        1.000000        0.00000016        0.00000013        0.00000063        0.00000278
      26         -0.879359        1.000000        0.00000052        0.00000264        0.00000197        0.00000835
      27         -0.877567        1.000000        0.00000017        0.00000109        0.00000088        0.00000162
      28         -0.875876        1.000000        0.00000001        0.00000117        0.00000032        0.00000003
      29         -0.872907        1.000000        0.00000106        0.00000060        0.00000109        0.00000514
      30         -0.872742        1.000000        0.00000026        0.00000134        0.00000433        0.00000056
      31         -0.872568        1.000000        0.00000039        0.00000029        0.00000054        0.00000173
      32         -0.872093        1.000000        0.00000005        0.00000018        0.00000018        0.00000167
      33         -0.868890        1.000000        0.00000004        0.00000059        0.00000005        0.00000045
      34         -0.868093        1.000000        0.00000003        0.00000003        0.00000010        0.00000041
      35         -0.866192        1.000000        0.00000001        0.00000018        0.00000020        0.00000043
      36         -0.861562        1.000000        0.00000002        0.00000023        0.00000001        0.00000003
      37         -0.858654        1.000000        0.00000044        0.00000222        0.00000327        0.00000162
      38         -0.857406        1.000000        0.00000003        0.00000048        0.00000025        0.00000022
      39         -0.854516        1.000000        0.00000043        0.00000009        0.00000010        0.00000142
      40         -0.853343        1.000000        0.00000007        0.00000016        0.00000068        0.00000065
      41         -0.852823        1.000000        0.00000010        0.00000057        0.00000004        0.00000029
      42         -0.851403        1.000000        0.00000001        0.00000035        0.00000256        0.00000258
      43         -0.850264        1.000000        0.00000030        0.00000314        0.00000223        0.00000001
      44         -0.849873        1.000000        0.00000000        0.00000154        0.00000018        0.00000105
      45         -0.849341        1.000000        0.00000015        0.00000115        0.00000000        0.00000005
      46         -0.848148        1.000000        0.00000141        0.00000835        0.00000918        0.00000974
      47         -0.847897        1.000000        0.00000003        0.00000003        0.00000014        0.00000000
      48         -0.845708        1.000000        0.00000169        0.00000008        0.00000520        0.00000103
      49         -0.845607        1.000000        0.00000043        0.00000121        0.00000006        0.00000000
      50         -0.842454        1.000000        0.00000060        0.00000097        0.00000280        0.00000060
      51         -0.842103        1.000000        0.00000713        0.00000038        0.00002072        0.00000506
      52         -0.839594        1.000000        0.00000015        0.00000003        0.00000002        0.00000050
      53         -0.839561        1.000000        0.00000004        0.00000009        0.00000042        0.00000018
      54         -0.839389        1.000000        0.00000016        0.00000078        0.00000045        0.00000001
      55         -0.838350        1.000000        0.00000004        0.00000002        0.00000003        0.00000018
      56         -0.838168        1.000000        0.00000013        0.00000063        0.00000031        0.00000058
      57         -0.837815        1.000000        0.00000009        0.00000045        0.00000068        0.00000031
      58         -0.837398        1.000000        0.00000017        0.00000001        0.00000059        0.00000000
      59         -0.837206        1.000000        0.00000001        0.00000007        0.00000001        0.00000001
      60         -0.836867        1.000000        0.00000005        0.00000005        0.00000046        0.00000019
      61         -0.833968        1.000000        0.00000010        0.00000029        0.00000006        0.00000029
      62         -0.832060        1.000000        0.00000196        0.00001555        0.00001986        0.00002020
      63         -0.831683        1.000000        0.00000038        0.00000009        0.00000017        0.00000103
      64         -0.831468        1.000000        0.00000003        0.00000036        0.00000008        0.00000020
      65         -0.830208        1.000000        0.00000027        0.00000205        0.00000192        0.00000313
      66         -0.829348        1.000000        0.00000088        0.00000425        0.00000812        0.00000321
      67         -0.827826        1.000000        0.00000041        0.00000003        0.00000004        0.00000167
      68         -0.827509        1.000000        0.00000009        0.00000051        0.00000009        0.00000048
      69         -0.822700        1.000000        0.00000014        0.00000033        0.00000068        0.00000036
      70         -0.820308        1.000000        0.00000020        0.00000072        0.00000131        0.00000120
      71         -0.819047        1.000000        0.00000010        0.00000078        0.00000070        0.00000055
      72         -0.818911        1.000000        0.00000198        0.00000510        0.00001788        0.00000864
      73         -0.816191        1.000000        0.00000059        0.00000303        0.00000047        0.00000002
      74         -0.813252        1.000000        0.00000128        0.00001059        0.00000037        0.00000034
      75         -0.811381        1.000000        0.00000048        0.00000341        0.00000395        0.00000108
      76         -0.809123        1.000000        0.00000005        0.00000027        0.00000009        0.00000027
      77         -0.808080        1.000000        0.00000008        0.00000004        0.00000006        0.00000030
      78         -0.807584        1.000000        0.00000053        0.00000124        0.00000035        0.00000039
      79         -0.805432        1.000000        0.00000083        0.00000439        0.00000335        0.00000249
      80         -0.804615        1.000000        0.00000002        0.00000069        0.00000007        0.00000001
      81         -0.804360        1.000000        0.00000017        0.00000007        0.00000008        0.00000046
      82         -0.803411        1.000000        0.00000110        0.00000472        0.00000776        0.00000288
      83         -0.796828        1.000000        0.00000002        0.00000033        0.00000032        0.00000013
      84         -0.793352        1.000000        0.00000120        0.00001063        0.00000025        0.00000062
      85         -0.790394        1.000000        0.00000046        0.00000108        0.00000277        0.00000127
      86         -0.630539        1.000000        0.00003997        0.00004055        0.00002753        0.00002366
      87         -0.613767        1.000000        0.00001372        0.00001327        0.00000378        0.00001525
      88         -0.604616        1.000000        0.00125374        0.00102291        0.00142582        0.00012506
      89         -0.603400        1.000000        0.00019370        0.00016761        0.00012493        0.00017995
      90         -0.602736        1.000000        0.00085136        0.00067246        0.00085465        0.00004688
      91         -0.591221        1.000000        0.00056371        0.00024023        0.00027346        0.00000616
      92         -0.588678        1.000000        0.00027198        0.00024122        0.00023710        0.00001688
      93         -0.581333        1.000000        0.00008061        0.00002182        0.00003900        0.00003511
      94         -0.572573        1.000000        0.00581627        0.00012944        0.00012380        0.00002460
      95         -0.571026        1.000000        0.09281323        0.00019568        0.00687635        0.00068631
      96         -0.569198        1.000000        0.00272269        0.00287615        0.00000381        0.00072010
      97         -0.561263        1.000000        0.00503943        0.00264928        0.00021666        0.00086259
      98         -0.557081        1.000000        0.06219481        0.00205040        0.02606735        0.00938361
      99         -0.554484        1.000000        0.05898369        0.00036576        0.00967061        0.00019327
     100         -0.549986        1.000000        0.00908222        0.00532333        0.00097841        0.00024841
     101         -0.547890        1.000000        0.10869277        0.00209981        0.00302682        0.00422082
     102         -0.545672        1.000000        0.00222158        0.03313657        0.00641500        0.00259826
     103         -0.542341        1.000000        0.00137425        0.00893956        0.00773700        0.02113087
     104         -0.541844        1.000000        0.05933569        0.00112767        0.00930151        0.01163384
     105         -0.540197        1.000000        0.00672971        0.00298773        0.00023353        0.00210886
     106         -0.540048        1.000000        0.07943343        0.00860103        0.00451478        0.00424997
     107         -0.537827        1.000000        0.04875904        0.00439515        0.00572420        0.00873139
     108         -0.537657        1.000000        0.04157489        0.00828400        0.00569259        0.00518975
     109         -0.536742        1.000000        0.07685641        0.00448465        0.00183185        0.01551704
     110         -0.536274        1.000000        0.06321673        0.01058133        0.00493892        0.00529515
     111         -0.534928        1.000000        0.05785420        0.00444715        0.01114758        0.00754983
     112         -0.533343        1.000000        0.03927967        0.00282749        0.01295947        0.00993250
     113         -0.531903        1.000000        0.04077077        0.00340742        0.01750532        0.01413146
     114         -0.531533        1.000000        0.00094432        0.02879352        0.00069004        0.00164163
     115         -0.529936        1.000000        0.00652669        0.01095941        0.00330439        0.01490227
     116         -0.527669        1.000000        0.01549102        0.01187839        0.00587386        0.00726672
     117         -0.526615        1.000000        0.00412123        0.00861048        0.01596731        0.00320166
     118         -0.525833        1.000000        0.00128495        0.01143914        0.00470716        0.00726860
     119         -0.525806        1.000000        0.00288310        0.00913825        0.00449664        0.01467047
     120         -0.522784        1.000000        0.00187736        0.02138837        0.00092247        0.00677814
     121         -0.522591        1.000000        0.00646858        0.00922089        0.00898072        0.01128961
     122         -0.520509        1.000000        0.00667175        0.00096333        0.02487729        0.00199318
     123         -0.520112        1.000000        0.00354791        0.00390517        0.01463331        0.02044912
     124         -0.519294        1.000000        0.00998525        0.00019359        0.02612527        0.00335852
     125         -0.519129        1.000000        0.00121296        0.00132832        0.00311121        0.00345195
     126         -0.518650        1.000000        0.00696974        0.00101286        0.00461911        0.01350077
     127         -0.518566        1.000000        0.00245660        0.00210436        0.00139675        0.00680903
     128         -0.516788        1.000000        0.00327222        0.00148437        0.00984636        0.00927968
     129         -0.507571        1.000000        0.00466370        0.00222892        0.00323136        0.00100675
     130         -0.502754        1.000000        0.00629960        0.00058368        0.00478235        0.00048706
     131         -0.502099        1.000000        0.00328435        0.00044222        0.00103029        0.00083684
     132         -0.492495        1.000000        0.00462183        0.00097529        0.00056138        0.00204291
     133         -0.484957        1.000000        0.00314930        0.00040631        0.00009203        0.00154690
     134         -0.482317        1.000000        0.00531008        0.00005970        0.00080607        0.00226441
     135         -0.481216        1.000000        0.00167084        0.00084508        0.00009205        0.00005860
     136         -0.478235        1.000000        0.00011061        0.00007170        0.00001410        0.00002262
     137         -0.477642        1.000000        0.00096803        0.00006848        0.00002727        0.00016014
     138         -0.475277        1.000000        0.00190120        0.00056339        0.00014826        0.00006612
     139         -0.474407        1.000000        0.00002728        0.00000260        0.00000527        0.00000971
     140         -0.473861        1.000000        0.00002709        0.00000917        0.00000005        0.00000002
     141         -0.472955        1.000000        0.00110738        0.00001007        0.00025517        0.00009923
     142         -0.472421        1.000000        0.00438722        0.00005404        0.00025324        0.00188595
     143         -0.472362        1.000000        0.00350012        0.00037043        0.00013731        0.00105626
     144         -0.468667        1.000000        0.00000946        0.00000252        0.00000091        0.00000180
     145         -0.468238        1.000000        0.00442171        0.00071882        0.00003140        0.00003434
     146         -0.465696        1.000000        0.00024234        0.00024045        0.00008803        0.00146742
     147         -0.464210        1.000000        0.00200372        0.00005736        0.00001603        0.00021970
     148         -0.463164        1.000000        0.00034818        0.00002342        0.00002543        0.00000296
     149         -0.462966        1.000000        0.00015673        0.00005661        0.00000682        0.00000028
     150         -0.460961        1.000000        0.00013689        0.00011611        0.00001770        0.00006894
     151         -0.459947        1.000000        0.00071656        0.00009125        0.00001522        0.00000996
     152         -0.459487        1.000000        0.00076686        0.00000230        0.00000789        0.00014541
     153         -0.457464        1.000000        0.00096352        0.00000238        0.00022669        0.00013783
     154         -0.455572        1.000000        0.00034228        0.00001376        0.00000807        0.00003292
     155         -0.454926        1.000000        0.00053202        0.00022666        0.00037774        0.00005038
     156         -0.454351        1.000000        0.00091698        0.00001248        0.00003284        0.00020088
     157         -0.453780        1.000000        0.00317436        0.00058218        0.00001481        0.00004958
     158         -0.453485        1.000000        0.00559249        0.00002700        0.00006253        0.00020188
     159         -0.452228        1.000000        0.00079683        0.00000358        0.00003366        0.00001301
     160         -0.451748        1.000000        0.00101893        0.00020143        0.00002487        0.00000484
     161         -0.451451        1.000000        0.00070870        0.00004237        0.00000221        0.00014334
     162         -0.450329        1.000000        0.00000720        0.00000537        0.00001586        0.00005694
     163         -0.450046        1.000000        0.00031390        0.00004002        0.00000189        0.00000678
     164         -0.449429        1.000000        0.00040795        0.00000517        0.00000270        0.00003053
     165         -0.445793        1.000000        0.00451750        0.00011646        0.00002937        0.00028240
     166         -0.444897        1.000000        0.00000129        0.00000078        0.00001002        0.00000449
     167         -0.441983        1.000000        0.00210192        0.00068983        0.00026693        0.00001638
     168         -0.440947        1.000000        0.00039755        0.00003398        0.00014197        0.00001673
     169         -0.440850        1.000000        0.00834737        0.00001197        0.00012385        0.00009627
     170         -0.439320        1.000000        0.00063952        0.00002942        0.00000025        0.00001324
     171         -0.439274        1.000000        0.00071695        0.00001657        0.00000057        0.00002393
     172         -0.438196        1.000000        0.00827404        0.00001077        0.00011216        0.00011171
     173         -0.436427        1.000000        0.00126793        0.00000050        0.00001273        0.00001635
     174         -0.435850        1.000000        0.00027968        0.00001243        0.00000169        0.00001960
     175         -0.434973        1.000000        0.01829674        0.00001044        0.00008999        0.00004148
     176         -0.434810        1.000000        0.00130681        0.00000259        0.00000704        0.00004483
     177         -0.434667        1.000000        0.00069754        0.00008985        0.00000546        0.00003522
     178         -0.434578        1.000000        0.00326993        0.00020243        0.00000275        0.00000647
     179         -0.433342        1.000000        0.00011553        0.00000067        0.00002857        0.00000084
     180         -0.432370        1.000000        0.00074781        0.00000544        0.00002214        0.00000839
     181         -0.432302        1.000000        0.00014786        0.00000576        0.00003732        0.00005154
     182         -0.428443        1.000000        0.00282244        0.00000030        0.00002105        0.00001291
     183         -0.428043        1.000000        0.00035556        0.00000012        0.00001065        0.00000089
     184         -0.427830        1.000000        0.60030635        0.00024331        0.00025957        0.00013916
     185         -0.427543        1.000000        0.00282913        0.00001537        0.00005314        0.00013398
     186         -0.426465        1.000000        0.00773629        0.00001031        0.00001548        0.00008912
     187         -0.425432        1.000000        0.05028288        0.00001411        0.00000520        0.00005068
     188         -0.422799        1.000000        0.00081791        0.00000341        0.00000656        0.00000533
     189         -0.421318        1.000000        0.02986058        0.00000089        0.00000508        0.00004064
     190         -0.420838        1.000000        0.00125226        0.00000126        0.00000189        0.00000175
     191         -0.420237        1.000000        0.10012090        0.00013554        0.00009859        0.00006817
     192         -0.419153        1.000000        0.00056589        0.00000183        0.00000233        0.00000040
     193         -0.418911        1.000000        0.04131752        0.00001671        0.00005831        0.00006999
     194         -0.417003        1.000000        0.57058311        0.00004062        0.00019761        0.00016286
     195         -0.415848        1.000000        0.19749528        0.00003224        0.00026705        0.00015635
     196         -0.415470        1.000000        0.43232525        0.00007461        0.00041362        0.00049109
     197         -0.414947        1.000000        0.04517267        0.00000839        0.00004384        0.00006333
     198         -0.413627        1.000000        0.00301101        0.00000894        0.00000538        0.00000201
     199         -0.413415        1.000000        0.13334625        0.00002054        0.00006223        0.00015174
     200         -0.412879        1.000000        0.01360088        0.00001255        0.00001842        0.00006856
     201         -0.411692        1.000000        0.00257796        0.00000112        0.00000064        0.00000437
     202         -0.411538        1.000000        0.39871517        0.00005192        0.00020915        0.00047782
     203         -0.410562        1.000000        0.00140973        0.00000200        0.00000132        0.00000457
     204         -0.410228        1.000000        0.25373521        0.00003347        0.00036516        0.00039923
     205         -0.408817        1.000000        0.24803751        0.00012436        0.00014117        0.00018590
     206         -0.407469        1.000000        0.06894861        0.00000339        0.00007352        0.00000311
     207         -0.406783        1.000000        0.04422321        0.00024584        0.00002681        0.00009707
     208         -0.405856        1.000000        0.55655316        0.00013288        0.00027080        0.00059388
     209         -0.404287        1.000000        0.00252683        0.00000146        0.00000082        0.00000306
     210         -0.403290        1.000000        0.00241393        0.00005397        0.00000547        0.00000064
     211         -0.402908        1.000000        0.01017336        0.00001482        0.00000863        0.00001252
     212         -0.402563        1.000000        0.68258452        0.00020752        0.00003827        0.00017803
     213         -0.401801        1.000000        0.66973318        0.00024288        0.00029312        0.00052903
     214         -0.401072        1.000000        0.64547789        0.00037468        0.00012712        0.00036285
     215         -0.399497        1.000000        0.01396581        0.00004725        0.00002318        0.00003309
     216         -0.398052        1.000000        0.02132034        0.00003601        0.00003970        0.00000252
     217         -0.395849        1.000000        0.03451274        0.00004292        0.00001131        0.00008663
     218         -0.395444        1.000000        0.00309682        0.00000710        0.00000062        0.00000083
     219         -0.395023        1.000000        0.00711634        0.00000809        0.00004629        0.00000317
     220         -0.394847        1.000000        0.00900340        0.00000293        0.00002539        0.00000166
     221         -0.392208        1.000000        0.00062865        0.00003963        0.00000003        0.00000418
     222         -0.389460        1.000000        0.00046299        0.00002103        0.00000781        0.00000003
     223         -0.388824        1.000000        0.00017809        0.00002341        0.00000000        0.00002799
     224         -0.384172        1.000000        0.00059575        0.00000495        0.00000106        0.00001550
     225         -0.383348        1.000000        0.00047561        0.00000109        0.00000688        0.00000339
     226         -0.380739        1.000000        0.00085163        0.00004299        0.00005045        0.00006583
     227         -0.380661        1.000000        0.00209526        0.00020367        0.00018848        0.00031347
     228         -0.378942        1.000000        0.00102741        0.00002796        0.00003461        0.00001633
     229         -0.378169        1.000000        0.00010988        0.00005503        0.00000365        0.00014987
     230         -0.376911        1.000000        0.00152053        0.00000143        0.00008495        0.00001107
     231         -0.375660        1.000000        0.00020723        0.00006104        0.00002907        0.00000122
     232         -0.371120        1.000000        0.00047612        0.00002465        0.00000426        0.00000696
     233         -0.368573        1.000000        0.00139479        0.00001092        0.00009420        0.00000198
     234         -0.364545        1.000000        0.00035958        0.00001073        0.00001573        0.00001067
     235         -0.361039        1.000000        0.00016483        0.00001594        0.00003378        0.00002400
     236         -0.353425        1.000000        0.00045215        0.00003344        0.00001509        0.00001419
     237         -0.352840        1.000000        0.00008768        0.00016259        0.00001130        0.00000681
     238         -0.352203        1.000000        0.00009194        0.00001579        0.00000646        0.00002224
     239         -0.348794        1.000000        0.00066493        0.00013632        0.00032756        0.00003054
     240         -0.348274        1.000000        0.00038077        0.00041381        0.00000499        0.00001736
     241         -0.347537        1.000000        0.00038484        0.00016249        0.00015602        0.00014844
     242         -0.339085        1.000000        0.00011365        0.00001537        0.00002131        0.00003173
     243         -0.336849        1.000000        0.00002475        0.00003819        0.00021723        0.00007973
     244         -0.335592        1.000000        0.00042214        0.00003087        0.00029626        0.00022386
     245         -0.335160        1.000000        0.00004329        0.00017790        0.00009570        0.00000180
     246         -0.331109        1.000000        0.00033375        0.00037893        0.00031894        0.00066008
     247         -0.330517        1.000000        0.00015257        0.00001601        0.00003345        0.00010417
     248         -0.327895        1.000000        0.00049538        0.00007503        0.00004404        0.00015131
     249         -0.327590        1.000000        0.00036962        0.00001550        0.00002259        0.00018783
     250         -0.327327        1.000000        0.00020408        0.00015274        0.00000786        0.00008471
     251         -0.326085        1.000000        0.00048612        0.00012079        0.00103330        0.00035894
     252         -0.325879        1.000000        0.00014565        0.00008225        0.00009099        0.00028920
     253         -0.324797        1.000000        0.00000562        0.00003203        0.00010067        0.00016478
     254         -0.323102        1.000000        0.00056625        0.00011182        0.00011112        0.00039710
     255         -0.322329        1.000000        0.00005932        0.00005200        0.00005691        0.00006041
     256         -0.314665        1.000000        0.00041237        0.00004256        0.00011844        0.00089451
     257         -0.314022        1.000000        0.00006167        0.00021432        0.00009761        0.00005537
     258         -0.312936        1.000000        0.00010751        0.00008306        0.00021539        0.00005038
     259         -0.312525        1.000000        0.00028983        0.00019977        0.00004889        0.00020260