# Projected DOS for atomic kind I at iteration step i = 0, E(Fermi) =    -0.128954 a.u.
#     MO Eigenvalue [a.u.]      Occupation                 s                py                pz                px
       1         -0.933491        1.000000        0.00010593        0.00017341        0.00020624        0.00010668
       2         -0.923274        1.000000        0.00010983        0.00016122        0.00023211        0.00010286
       3         -0.922568        1.000000        0.00016815        0.00028479        0.00009890        0.00035946
       4         -0.917149        1.000000        0.00008610        0.00020908        0.00012808        0.00003830
       5         -0.914847        1.000000        0.00002428        0.00000255        0.00003534        0.00013831
       6         -0.911734        1.000000        0.00020058        0.00038850        0.00017606        0.00016851
       7         -0.907239        1.000000        0.00000336        0.00001295        0.00000589        0.00002888
       8         -0.906524        1.000000        0.00015627        0.00026669        0.00015164        0.00021020
       9         -0.906511        1.000000        0.00024865        0.00052603        0.00020293        0.00000890
      10         -0.906055        1.000000        0.00009421        0.00012168        0.00025763        0.00009549
      11         -0.905718        1.000000        0.00072067        0.00089268        0.00033905        0.00041647
      12         -0.903046        1.000000        0.00014319        0.00017343        0.00035549        0.00011232
      13         -0.899914        1.000000        0.00007236        0.00005094        0.00000621        0.00027053
      14         -0.896969        1.000000        0.00005282        0.00008325        0.00008701        0.00016777
      15         -0.891150        1.000000        0.00007094        0.00011242        0.00001477        0.00018417
      16         -0.888150        1.000000        0.00073726        0.00114534        0.00058067        0.00006195
      17         -0.888111        1.000000        0.00001345        0.00000398        0.00006845        0.00008163
      18         -0.887572        1.000000        0.00017425        0.00038639        0.00007546        0.00038207
      19         -0.884970        1.000000        0.00005149        0.00008167        0.00004185        0.00001516
      20         -0.884408        1.000000        0.00119422        0.00108452        0.00058022        0.00044967
      21         -0.882452        1.000000        0.00014691        0.00018092        0.00048243        0.00007353
      22         -0.881892        1.000000        0.00000578        0.00010126        0.00000366        0.00002613
      23         -0.881027        1.000000        0.00001522        0.00005254        0.00001820        0.00004142
      24         -0.880632        1.000000        0.00020223        0.00021128        0.00009509        0.00025873
      25         -0.879857        1.000000        0.00004097        0.00006024        0.00011418        0.00003519
      26         -0.879359        1.000000        0.00005099        0.00006136        0.00006888        0.00015326
      27         -0.877567        1.000000        0.00014834        0.00033667        0.00033650        0.00008829
      28         -0.875876        1.000000        0.00031368        0.00015621        0.00004518        0.00047271
      29         -0.872907        1.000000        0.00047744        0.00009260        0.00127614        0.00003027
      30         -0.872742        1.000000        0.00017564        0.00015775        0.00006446        0.00031594
      31         -0.872568        1.000000        0.00018946        0.00001467        0.00073814        0.00000734
      32         -0.872093        1.000000        0.00001853        0.00001323        0.00004050        0.00000759
      33         -0.868890        1.000000        0.00010946        0.00006447        0.00006333        0.00014433
      34         -0.868093        1.000000        0.00000311        0.00000212        0.00002229        0.00000771
      35         -0.866192        1.000000        0.00000495        0.00002413        0.00002990        0.00001136
      36         -0.861562        1.000000        0.00001022        0.00001683        0.00000166        0.00002033
      37         -0.858654        1.000000        0.00010221        0.00030191        0.00000546        0.00002679
      38         -0.857406        1.000000        0.00255974        0.00254416        0.00199621        0.00027315
      39         -0.854516        1.000000        0.00008383        0.00005842        0.00002102        0.00023529
      40         -0.853343        1.000000        0.00001972        0.00003351        0.00002385        0.00002255
      41         -0.852823        1.000000        0.00009440        0.00004824        0.00020831        0.00011641
      42         -0.851403        1.000000        0.00147979        0.00065821        0.00050240        0.00138449
      43         -0.850264        1.000000        0.00585155        0.00379434        0.00346093        0.00067091
      44         -0.849873        1.000000        0.00132681        0.00051050        0.00027430        0.00144435
      45         -0.849341        1.000000        0.00005515        0.00000129        0.00001079        0.00029876
      46         -0.848148        1.000000        0.00007740        0.00006119        0.00004250        0.00012154
      47         -0.847897        1.000000        0.00001463        0.00002137        0.00005970        0.00000161
      48         -0.845708        1.000000        0.00039088        0.00000593        0.00116095        0.00003422
      49         -0.845607        1.000000        0.00003683        0.00017167        0.00005693        0.00000084
      50         -0.842454        1.000000        0.00014829        0.00008596        0.00024310        0.00005904
      51         -0.842103        1.000000        0.00160120        0.00008322        0.00311146        0.00019721
      52         -0.839594        1.000000        0.00001995        0.00001882        0.00000266        0.00010877
      53         -0.839561        1.000000        0.00001117        0.00002838        0.00000188        0.00003845
      54         -0.839389        1.000000        0.00117680        0.00043095        0.00034679        0.00091608
      55         -0.838350        1.000000        0.00001133        0.00001206        0.00001508        0.00002504
      56         -0.838168        1.000000        0.00002402        0.00010574        0.00000212        0.00002585
      57         -0.837815        1.000000        0.00005773        0.00010929        0.00005138        0.00007677
      58         -0.837398        1.000000        0.00003341        0.00002559        0.00014173        0.00000597
      59         -0.837206        1.000000        0.00003504        0.00006865        0.00004939        0.00002049
      60         -0.836867        1.000000        0.00001294        0.00003649        0.00000713        0.00004230
      61         -0.833968        1.000000        0.00002731        0.00003895        0.00015448        0.00000741
      62         -0.832060        1.000000        0.00004025        0.00010893        0.00008940        0.00006394
      63         -0.831683        1.000000        0.00004821        0.00004576        0.00000132        0.00019048
      64         -0.831468        1.000000        0.00001013        0.00000091        0.00004058        0.00001571
      65         -0.830208        1.000000        0.00001710        0.00005940        0.00002470        0.00000342
      66         -0.829348        1.000000        0.00007410        0.00010255        0.00005542        0.00008559
      67         -0.827826        1.000000        0.00012800        0.00006854        0.00009428        0.00024145
      68         -0.827509        1.000000        0.00013333        0.00008617        0.00010148        0.00018532
      69         -0.822700        1.000000        0.00006428        0.00009630        0.00005148        0.00006758
      70         -0.820308        1.000000        0.00003598        0.00007311        0.00005187        0.00007364
      71         -0.819047        1.000000        0.00002361        0.00002392        0.00005602        0.00004274
      72         -0.818911        1.000000        0.00007835        0.00010797        0.00007168        0.00010069
      73         -0.816191        1.000000        0.00012846        0.00015002        0.00000641        0.00036544
      74         -0.813252        1.000000        0.00861730        0.00346391        0.00088178        0.00633937
      75         -0.811381        1.000000        0.00004688        0.00005414        0.00005830        0.00003315
      76         -0.809123        1.000000        0.00007837        0.00010384        0.00019275        0.00001138
      77         -0.808080        1.000000        0.00002221        0.00003359        0.00002222        0.00004448
      78         -0.807584        1.000000        0.00011898        0.00040244        0.00000312        0.00007327
      79         -0.805432        1.000000        0.00006480        0.00000613        0.00008088        0.00012042
      80         -0.804615        1.000000        0.00001856        0.00003142        0.00000259        0.00004609
      81         -0.804360        1.000000        0.00002599        0.00003132        0.00000248        0.00011106
      82         -0.803411        1.000000        0.00005059        0.00004452        0.00003579        0.00005884
      83         -0.796828        1.000000        0.00001067        0.00000948        0.00001298        0.00003253
      84         -0.793352        1.000000        0.01398251        0.00451397        0.00132798        0.00858115
      85         -0.790394        1.000000        0.00002327        0.00002839        0.00001856        0.00002418
      86         -0.630539        1.000000        0.00249519        0.00043302        0.00046528        0.00051049
      87         -0.613767        1.000000        0.00133827        0.00012193        0.00030726        0.00017329
      88         -0.604616        1.000000        0.61031405        0.00557321        0.00787888        0.00046224
      89         -0.603400        1.000000        0.00195425        0.00015541        0.00039044        0.00031246
      90         -0.602736        1.000000        0.34114651        0.00289022        0.00415175        0.00013257
      91         -0.591221        1.000000        0.46851517        0.00732016        0.00723387        0.00085741
      92         -0.588678        1.000000        0.49209042        0.00686988        0.00708916        0.00129524
      93         -0.581333        1.000000        0.00221028        0.00020181        0.00018658        0.00011714
      94         -0.572573        1.000000        0.04297693        0.00036493        0.00032591        0.00039113
      95         -0.571026        1.000000        0.82814787        0.00407783        0.00568039        0.00341653
      96         -0.569198        1.000000        0.94746996        0.00632794        0.00113387        0.00803548
      97         -0.561263        1.000000        0.93863448        0.00479594        0.00085731        0.00614104
      98         -0.557081        1.000000        0.88065869        0.00496651        0.00266207        0.00268473
      99         -0.554484        1.000000        0.90277043        0.00214116        0.00331970        0.00185932
     100         -0.549986        1.000000        0.95817511        0.00494239        0.00839579        0.00102772
     101         -0.547890        1.000000        0.83163879        0.00428762        0.00419619        0.00358580
     102         -0.545672        1.000000        0.94018047        0.00194236        0.00091122        0.00038791
     103         -0.542341        1.000000        0.95038774        0.00128173        0.00053430        0.00182909
     104         -0.541844        1.000000        0.86604593        0.00286753        0.00161871        0.00213962
     105         -0.540197        1.000000        0.94766864        0.00847806        0.00556732        0.00096067
     106         -0.540048        1.000000        0.83470944        0.00333287        0.00335173        0.00200098
     107         -0.537827        1.000000        0.83698362        0.00252077        0.00288537        0.00159044
     108         -0.537657        1.000000        0.83275433        0.00226543        0.00272972        0.00144425
     109         -0.536742        1.000000        0.83176518        0.00483627        0.00366628        0.00181981
     110         -0.536274        1.000000        0.85712994        0.00332016        0.00295518        0.00149041
     111         -0.534928        1.000000        0.85729456        0.00276887        0.00225426        0.00217724
     112         -0.533343        1.000000        0.87475455        0.00219798        0.00255676        0.00160503
     113         -0.531903        1.000000        0.89766243        0.00127952        0.00377639        0.00138065
     114         -0.531533        1.000000        0.95027534        0.00049318        0.00018034        0.00057470
     115         -0.529936        1.000000        0.89665626        0.00291309        0.00077644        0.00124900
     116         -0.527669        1.000000        0.84518589        0.00148438        0.00093668        0.00274788
     117         -0.526615        1.000000        0.90285898        0.00109278        0.00152438        0.00083138
     118         -0.525833        1.000000        0.90096414        0.00089160        0.00192675        0.00115287
     119         -0.525806        1.000000        0.88775188        0.00092650        0.00213446        0.00092099
     120         -0.522784        1.000000        0.89226790        0.00043325        0.00072907        0.00078087
     121         -0.522591        1.000000        0.94807890        0.00134368        0.00049303        0.00143213
     122         -0.520509        1.000000        0.90684722        0.00201792        0.00099122        0.00033126
     123         -0.520112        1.000000        0.92770536        0.00025122        0.00109625        0.00077146
     124         -0.519294        1.000000        0.92287457        0.00071043        0.00286867        0.00067432
     125         -0.519129        1.000000        0.95679966        0.00449664        0.00141831        0.00696352
     126         -0.518650        1.000000        0.90567176        0.00094668        0.00082063        0.00097736
     127         -0.518566        1.000000        0.95883992        0.00396027        0.00091592        0.00552876
     128         -0.516788        1.000000        0.94349080        0.00061632        0.00057878        0.00068599
     129         -0.507571        1.000000        0.18725381        0.00225077        0.00121773        0.00338303
     130         -0.502754        1.000000        0.16936718        0.00463547        0.00118318        0.00248614
     131         -0.502099        1.000000        0.07332682        0.00483789        0.00379936        0.00048752
     132         -0.492495        1.000000        0.09059781        0.00409218        0.00316612        0.00092494
     133         -0.484957        1.000000        0.06566042        0.00063469        0.00216935        0.00231680
     134         -0.482317        1.000000        0.09087059        0.00156398        0.00164997        0.00295415
     135         -0.481216        1.000000        0.03530086        0.00193283        0.00061229        0.00072484
     136         -0.478235        1.000000        0.00496868        0.00011150        0.00019965        0.00031641
     137         -0.477642        1.000000        0.00410520        0.00023663        0.00019243        0.00235234
     138         -0.475277        1.000000        0.01790917        0.00292427        0.00029653        0.00061949
     139         -0.474407        1.000000        0.00146190        0.00052441        0.00044479        0.00086820
     140         -0.473861        1.000000        0.00035585        0.00008535        0.00013706        0.00006886
     141         -0.472955        1.000000        0.00980870        0.00363900        0.00074147        0.00180907
     142         -0.472421        1.000000        0.06587631        0.00311460        0.00309421        0.00249367
     143         -0.472362        1.000000        0.03692152        0.00131198        0.00185717        0.00247639
     144         -0.468667        1.000000        0.00019332        0.00010056        0.00041556        0.00024504
     145         -0.468238        1.000000        0.02265342        0.00372764        0.00025386        0.00552895
     146         -0.465696        1.000000        0.06152885        0.00061370        0.00021505        0.00561949
     147         -0.464210        1.000000        0.01172670        0.00197879        0.00364115        0.00067931
     148         -0.463164        1.000000        0.00268767        0.00070109        0.00065072        0.00109687
     149         -0.462966        1.000000        0.00133331        0.00018879        0.00069035        0.00005212
     150         -0.460961        1.000000        0.01019370        0.00092843        0.00056191        0.00023297
     151         -0.459947        1.000000        0.00272502        0.00234205        0.00131733        0.00020081
     152         -0.459487        1.000000        0.01237175        0.00124092        0.00448220        0.00064933
     153         -0.457464        1.000000        0.01217513        0.00101473        0.00080085        0.00165955
     154         -0.455572        1.000000        0.00233919        0.00023998        0.00041614        0.00005882
     155         -0.454926        1.000000        0.01285466        0.00272845        0.00165920        0.00241386
     156         -0.454351        1.000000        0.00838100        0.00078345        0.00092094        0.00026917
     157         -0.453780        1.000000        0.01271324        0.00380591        0.00034843        0.00279074
     158         -0.453485        1.000000        0.00970605        0.00177413        0.00087166        0.00197092
     159         -0.452228        1.000000        0.00449958        0.00086445        0.00179689        0.00065603
     160         -0.451748        1.000000        0.00416600        0.00139842        0.00027424        0.00031023
     161         -0.451451        1.000000        0.01118328        0.00217304        0.00257029        0.00032677
     162         -0.450329        1.000000        0.00127709        0.00032819        0.00072383        0.00022832
     163         -0.450046        1.000000        0.00249464        0.00001970        0.00124829        0.00018783
     164         -0.449429        1.000000        0.00087778        0.00030373        0.00029406        0.00041803
     165         -0.445793        1.000000        0.01059368        0.00246037        0.00147793        0.00082161
     166         -0.444897        1.000000        0.00017582        0.00010204        0.00001979        0.00005312
     167         -0.441983        1.000000        0.03280166        0.00114296        0.00810933        0.00137482
     168         -0.440947        1.000000        0.00508082        0.00105957        0.00031757        0.00049890
     169         -0.440850        1.000000        0.00625906        0.00323441        0.00138240        0.00543393
     170         -0.439320        1.000000        0.00119534        0.00128250        0.00052565        0.00027645
     171         -0.439274        1.000000        0.00220298        0.00074246        0.00100855        0.00032650
     172         -0.438196        1.000000        0.00646245        0.00094407        0.00091031        0.00119847
     173         -0.436427        1.000000        0.00061037        0.00013616        0.00033052        0.00024173
     174         -0.435850        1.000000        0.00016257        0.00096727        0.00006765        0.00268118
     175         -0.434973        1.000000        0.00406778        0.00135569        0.00467531        0.00105079
     176         -0.434810        1.000000        0.00087920        0.00036015        0.00016660        0.00064189
     177         -0.434667        1.000000        0.00215772        0.00069524        0.00034208        0.00050173
     178         -0.434578        1.000000        0.00578115        0.00032404        0.00042767        0.00089825
     179         -0.433342        1.000000        0.00120803        0.00006503        0.00052137        0.00637520
     180         -0.432370        1.000000        0.00091415        0.00023298        0.00027871        0.00026806
     181         -0.432302        1.000000        0.00224375        0.00037618        0.00022583        0.00032574
     182         -0.428443        1.000000        0.00051642        0.00036301        0.00139302        0.00049054
     183         -0.428043        1.000000        0.00018015        0.00011989        0.00018026        0.00002343
     184         -0.427830        1.000000        0.16006040        0.03807756        0.04718587        0.03504185
     185         -0.427543        1.000000        0.00495171        0.00083869        0.00124295        0.00069852
     186         -0.426465        1.000000        0.00251404        0.00097385        0.00255282        0.00092353
     187         -0.425432        1.000000        0.01524199        0.00341597        0.00501578        0.00171867
     188         -0.422799        1.000000        0.00032212        0.00021158        0.00040596        0.00023704
     189         -0.421318        1.000000        0.00470042        0.00273898        0.00198418        0.00157317
     190         -0.420838        1.000000        0.00021576        0.00017019        0.00007756        0.00010244
     191         -0.420237        1.000000        0.01530597        0.01128084        0.00550455        0.00538789
     192         -0.419153        1.000000        0.00055437        0.00018930        0.00453996        0.00020776
     193         -0.418911        1.000000        0.00702550        0.00312948        0.00285403        0.00367191
     194         -0.417003        1.000000        0.10871188        0.03277476        0.03384229        0.02712440
     195         -0.415848        1.000000        0.03553541        0.00774894        0.01257543        0.01415691
     196         -0.415470        1.000000        0.08285908        0.01783999        0.02621956        0.02790354
     197         -0.414947        1.000000        0.00936613        0.00216307        0.00299150        0.00265743
     198         -0.413627        1.000000        0.00141481        0.00051215        0.00540456        0.00030621
     199         -0.413415        1.000000        0.01816687        0.00566385        0.00538719        0.01051724
     200         -0.412879        1.000000        0.00494584        0.00111313        0.00087208        0.00287380
     201         -0.411692        1.000000        0.00030791        0.00015110        0.00010409        0.00024532
     202         -0.411538        1.000000        0.06177714        0.01871830        0.01728243        0.02148297
     203         -0.410562        1.000000        0.00035503        0.00016958        0.00009880        0.00030705
     204         -0.410228        1.000000        0.04472833        0.01063108        0.01279399        0.01591323
     205         -0.408817        1.000000        0.03653411        0.01265924        0.01232635        0.02184663
     206         -0.407469        1.000000        0.00863332        0.00232818        0.00842136        0.00282282
     207         -0.406783        1.000000        0.01287069        0.00128509        0.00502941        0.00267395
     208         -0.405856        1.000000        0.09550233        0.03113050        0.02589098        0.02577236
     209         -0.404287        1.000000        0.00041155        0.00029636        0.00047708        0.00026087
     210         -0.403290        1.000000        0.00085773        0.00026190        0.00031486        0.00031376
     211         -0.402908        1.000000        0.00193580        0.00069686        0.00064924        0.00054763
     212         -0.402563        1.000000        0.11207458        0.02808641        0.02954222        0.03174858
     213         -0.401801        1.000000        0.12108930        0.02736982        0.03279641        0.02722561
     214         -0.401072        1.000000        0.11612041        0.02374417        0.02949122        0.02532286
     215         -0.399497        1.000000        0.00223542        0.00192044        0.00072590        0.00211037
     216         -0.398052        1.000000        0.00646156        0.00151236        0.00127754        0.00127442
     217         -0.395849        1.000000        0.00998530        0.00175989        0.00214894        0.00272565
     218         -0.395444        1.000000        0.00112630        0.00166323        0.00078956        0.00024580
     219         -0.395023        1.000000        0.00175453        0.00041193        0.00005309        0.00038210
     220         -0.394847        1.000000        0.00357848        0.00090143        0.00048199        0.00071478
     221         -0.392208        1.000000        0.00021637        0.00036609        0.00020180        0.00014664
     222         -0.389460        1.000000        0.00059356        0.00005021        0.00068818        0.00057297
     223         -0.388824        1.000000        0.00074198        0.00206681        0.00064647        0.00006126
     224         -0.384172        1.000000        0.00036655        0.00004802        0.00003731        0.00005591
     225         -0.383348        1.000000        0.00050144        0.00018527        0.00034878        0.00016153
     226         -0.380739        1.000000        0.00112135        0.00223797        0.00065234        0.00118498
     227         -0.380661        1.000000        0.00106979        0.00064254        0.00208335        0.00093002
     228         -0.378942        1.000000        0.00162411        0.00079428        0.00141747        0.00153638
     229         -0.378169        1.000000        0.00100874        0.00045662        0.00176038        0.00247313
     230         -0.376911        1.000000        0.00202304        0.00160564        0.00015257        0.00293143
     231         -0.375660        1.000000        0.00078662        0.00037026        0.00163103        0.00112670
     232         -0.371120        1.000000        0.00054464        0.00076863        0.00005136        0.00081678
     233         -0.368573        1.000000        0.00459478        0.00861793        0.02309892        0.00356004
     234         -0.364545        1.000000        0.00144643        0.00283629        0.00141328        0.00145693
     235         -0.361039        1.000000        0.00030834        0.00062405        0.00051590        0.00063664
     236         -0.353425        1.000000        0.00395139        0.02098585        0.00737833        0.00338401
     237         -0.352840        1.000000        0.00519977        0.01957855        0.00090112        0.01213130
     238         -0.352203        1.000000        0.00034662        0.00056165        0.00141673        0.00078455
     239         -0.348794        1.000000        0.00259711        0.00409320        0.00371194        0.00689151
     240         -0.348274        1.000000        0.00630449        0.02723174        0.00431136        0.01571254
     241         -0.347537        1.000000        0.00167321        0.00187543        0.00301162        0.00405572
     242         -0.339085        1.000000        0.00031458        0.00163217        0.00073393        0.00374603
     243         -0.336849        1.000000        0.00282143        0.00817893        0.02517502        0.00375828
     244         -0.335592        1.000000        0.00084311        0.00268483        0.00179738        0.00150424
     245         -0.335160        1.000000        0.00390781        0.02989340        0.01462483        0.00580551
     246         -0.331109        1.000000        0.00142445        0.00130855        0.00215938        0.00365969
     247         -0.330517        1.000000        0.00031863        0.00104802        0.00160502        0.00086876
     248         -0.327895        1.000000        0.00168825        0.00188547        0.00402852        0.00278632
     249         -0.327590        1.000000        0.00044725        0.00207161        0.00258791        0.00172070
     250         -0.327327        1.000000        0.00095903        0.00388163        0.00286997        0.00256782
     251         -0.326085        1.000000        0.00083507        0.00329292        0.01260095        0.00131741
     252         -0.325879        1.000000        0.00064441        0.00454793        0.00164723        0.00350045
     253         -0.324797        1.000000        0.00079151        0.00341431        0.00483832        0.00101672
     254         -0.323102        1.000000        0.00190041        0.00292714        0.00293489        0.00429555
     255         -0.322329        1.000000        0.00020267        0.00202568        0.00183200        0.00058722
     256         -0.314665        1.000000        0.00152829        0.00633466        0.00208189        0.00751083
     257         -0.314022        1.000000        0.00070590        0.00326184        0.00086581        0.00252991
     258         -0.312936        1.000000        0.00084124        0.00505707        0.00177705        0.00533631
     259         -0.312525        1.000000        0.00087566        0.00288212        0.00208558        0.00313807