# Projected DOS for atomic kind H at iteration step i = 0, E(Fermi) =    -0.128951 a.u.
#     MO Eigenvalue [a.u.]      Occupation                 s
       1         -0.933489        1.000000        0.25365914
       2         -0.923274        1.000000        0.25188244
       3         -0.922567        1.000000        0.26911353
       4         -0.917149        1.000000        0.25615861
       5         -0.914829        1.000000        0.25503599
       6         -0.911733        1.000000        0.25279168
       7         -0.907239        1.000000        0.25341589
       8         -0.906524        1.000000        0.26345321
       9         -0.906511        1.000000        0.26082487
      10         -0.906027        1.000000        0.25827740
      11         -0.905718        1.000000        0.25834936
      12         -0.903045        1.000000        0.25966141
      13         -0.899914        1.000000        0.25455029
      14         -0.896968        1.000000        0.25781029
      15         -0.891149        1.000000        0.25743254
      16         -0.888149        1.000000        0.23566877
      17         -0.888110        1.000000        0.24160453
      18         -0.887551        1.000000        0.28056349
      19         -0.884965        1.000000        0.24732673
      20         -0.884408        1.000000        0.21616928
      21         -0.882451        1.000000        0.25469672
      22         -0.881891        1.000000        0.24030796
      23         -0.881080        1.000000        0.25451219
      24         -0.880631        1.000000        0.25780045
      25         -0.879854        1.000000        0.26811143
      26         -0.879356        1.000000        0.25629762
      27         -0.877565        1.000000        0.28621587
      28         -0.875874        1.000000        0.24850248
      29         -0.872741        1.000000        0.25563141
      30         -0.872608        1.000000        0.24275439
      31         -0.872093        1.000000        0.24693338
      32         -0.870424        1.000000        0.24728716
      33         -0.868887        1.000000        0.25926198
      34         -0.868092        1.000000        0.25334139
      35         -0.866190        1.000000        0.27169162
      36         -0.861567        1.000000        0.25182268
      37         -0.858645        1.000000        0.25582778
      38         -0.857406        1.000000        0.19691844
      39         -0.854513        1.000000        0.25154220
      40         -0.853342        1.000000        0.25242299
      41         -0.852811        1.000000        0.26076662
      42         -0.851403        1.000000        0.22915139
      43         -0.850268        1.000000        0.17265486
      44         -0.849872        1.000000        0.23822822
      45         -0.849340        1.000000        0.25546697
      46         -0.848152        1.000000        0.26317536
      47         -0.847895        1.000000        0.25733722
      48         -0.845622        1.000000        0.25258144
      49         -0.842436        1.000000        0.27717125
      50         -0.840838        1.000000        0.19729712
      51         -0.839561        1.000000        0.25765512
      52         -0.839465        1.000000        0.24835267
      53         -0.839388        1.000000        0.22713559
      54         -0.838348        1.000000        0.25391388
      55         -0.838231        1.000000        0.24218106
      56         -0.837821        1.000000        0.24225377
      57         -0.837370        1.000000        0.25675068
      58         -0.837208        1.000000        0.25493822
      59         -0.836867        1.000000        0.25732584
      60         -0.835929        1.000000        0.21602872
      61         -0.833962        1.000000        0.23439251
      62         -0.832059        1.000000        0.25871862
      63         -0.831677        1.000000        0.23763741
      64         -0.831426        1.000000        0.25749613
      65         -0.830211        1.000000        0.25810606
      66         -0.829346        1.000000        0.25685559
      67         -0.827819        1.000000        0.23285837
      68         -0.827504        1.000000        0.21205192
      69         -0.822699        1.000000        0.21602500
      70         -0.820240        1.000000        0.23765766
      71         -0.820218        1.000000        0.25557742
      72         -0.819045        1.000000        0.25759002
      73         -0.818910        1.000000        0.24453710
      74         -0.813264        1.000000        0.16479026
      75         -0.811352        1.000000        0.25346642
      76         -0.809118        1.000000        0.24560054
      77         -0.807865        1.000000        0.21537846
      78         -0.807543        1.000000        0.24481626
      79         -0.805303        1.000000        0.24613645
      80         -0.804449        1.000000        0.24507864
      81         -0.804379        1.000000        0.23389482
      82         -0.803402        1.000000        0.21683968
      83         -0.796826        1.000000        0.24495868
      84         -0.793356        1.000000        0.13889748
      85         -0.790390        1.000000        0.18722180
      86         -0.630531        1.000000        0.34688370
      87         -0.613764        1.000000        0.33787340
      88         -0.604606        1.000000        0.13368605
      89         -0.603396        1.000000        0.36917508
      90         -0.602726        1.000000        0.23909537
      91         -0.591218        1.000000        0.19347446
      92         -0.588677        1.000000        0.17977894
      93         -0.581329        1.000000        0.37520783
      94         -0.572554        1.000000        0.34961052
      95         -0.570375        1.000000        0.01133995
      96         -0.569125        1.000000        0.00386313
      97         -0.561235        1.000000        0.00488181
      98         -0.556799        1.000000        0.00248434
      99         -0.550726        1.000000        0.00246363
     100         -0.547832        1.000000        0.01679445
     101         -0.546125        1.000000        0.00972170
     102         -0.545668        1.000000        0.00435642
     103         -0.542035        1.000000        0.00282607
     104         -0.540173        1.000000        0.00931924
     105         -0.539977        1.000000        0.02428561
     106         -0.538110        1.000000        0.04066264
     107         -0.537637        1.000000        0.03727640
     108         -0.537020        1.000000        0.02568680
     109         -0.536458        1.000000        0.01871607
     110         -0.536150        1.000000        0.01359304
     111         -0.534598        1.000000        0.01800759
     112         -0.531895        1.000000        0.00839294
     113         -0.531127        1.000000        0.05038673
     114         -0.529754        1.000000        0.02748365
     115         -0.529250        1.000000        0.01138909
     116         -0.527659        1.000000        0.04565603
     117         -0.526471        1.000000        0.03007680
     118         -0.525774        1.000000        0.03182239
     119         -0.525564        1.000000        0.02468767
     120         -0.522886        1.000000        0.03316412
     121         -0.522396        1.000000        0.00282640
     122         -0.520511        1.000000        0.02346986
     123         -0.520175        1.000000        0.01122933
     124         -0.519290        1.000000        0.01487735
     125         -0.518827        1.000000        0.01108049
     126         -0.518642        1.000000        0.02515190
     127         -0.518304        1.000000        0.00402731
     128         -0.516844        1.000000        0.01305256
     129         -0.507240        1.000000        0.25311233
     130         -0.502454        1.000000        0.26236810
     131         -0.502068        1.000000        0.29648667
     132         -0.492506        1.000000        0.28940858
     133         -0.484946        1.000000        0.31554107
     134         -0.482316        1.000000        0.31014228
     135         -0.481215        1.000000        0.32862423
     136         -0.478234        1.000000        0.34326300
     137         -0.477608        1.000000        0.35767573
     138         -0.475276        1.000000        0.33981100
     139         -0.474404        1.000000        0.34959195
     140         -0.473861        1.000000        0.34865902
     141         -0.472843        1.000000        0.33738253
     142         -0.472416        1.000000        0.32281078
     143         -0.472361        1.000000        0.33497882
     144         -0.468669        1.000000        0.35960221
     145         -0.468237        1.000000        0.34120950
     146         -0.465697        1.000000        0.32491920
     147         -0.464177        1.000000        0.34442488
     148         -0.463155        1.000000        0.32790518
     149         -0.462965        1.000000        0.33538858
     150         -0.460959        1.000000        0.32687239
     151         -0.459946        1.000000        0.34484580
     152         -0.459490        1.000000        0.34316260
     153         -0.457463        1.000000        0.34663831
     154         -0.455569        1.000000        0.35546096
     155         -0.454918        1.000000        0.33472039
     156         -0.454348        1.000000        0.33853511
     157         -0.453780        1.000000        0.34578093
     158         -0.453484        1.000000        0.33818243
     159         -0.452236        1.000000        0.34402373
     160         -0.451747        1.000000        0.34075886
     161         -0.451444        1.000000        0.33938590
     162         -0.450306        1.000000        0.34360958
     163         -0.450045        1.000000        0.34765992
     164         -0.449426        1.000000        0.34091173
     165         -0.445792        1.000000        0.34109456
     166         -0.444896        1.000000        0.34381347
     167         -0.441982        1.000000        0.34006184
     168         -0.440946        1.000000        0.34746565
     169         -0.440847        1.000000        0.33708879
     170         -0.439312        1.000000        0.35012183
     171         -0.439263        1.000000        0.33249565
     172         -0.438190        1.000000        0.32043919
     173         -0.436422        1.000000        0.33907664
     174         -0.435848        1.000000        0.34967226
     175         -0.434809        1.000000        0.34819867
     176         -0.434665        1.000000        0.34608087
     177         -0.434576        1.000000        0.34860649
     178         -0.434556        1.000000        0.33191219
     179         -0.433343        1.000000        0.32552088
     180         -0.432349        1.000000        0.34441149
     181         -0.432300        1.000000        0.34292228
     182         -0.428043        1.000000        0.34501823
     183         -0.427552        1.000000        0.26177989
     184         -0.427513        1.000000        0.13002827
     185         -0.426462        1.000000        0.34494994
     186         -0.425906        1.000000        0.34918270
     187         -0.425405        1.000000        0.32184298
     188         -0.422797        1.000000        0.31759801
     189         -0.421258        1.000000        0.33912094
     190         -0.420844        1.000000        0.34394869
     191         -0.420013        1.000000        0.33753950
     192         -0.419152        1.000000        0.33042610
     193         -0.418913        1.000000        0.32680707
     194         -0.415844        1.000000        0.25992846
     195         -0.415456        1.000000        0.13694221
     196         -0.414934        1.000000        0.25490444
     197         -0.414882        1.000000        0.13306274
     198         -0.413610        1.000000        0.32376724
     199         -0.413413        1.000000        0.28197946
     200         -0.412879        1.000000        0.33048633
     201         -0.411689        1.000000        0.34513053
     202         -0.411529        1.000000        0.11168349
     203         -0.410561        1.000000        0.33976245
     204         -0.410201        1.000000        0.12365489
     205         -0.408774        1.000000        0.23793159
     206         -0.407468        1.000000        0.33740697
     207         -0.406634        1.000000        0.31133080
     208         -0.405800        1.000000        0.09161868
     209         -0.404271        1.000000        0.34849519
     210         -0.403298        1.000000        0.36470794
     211         -0.402935        1.000000        0.34498514
     212         -0.402570        1.000000        0.03947619
     213         -0.401794        1.000000        0.03525881
     214         -0.401052        1.000000        0.05382597
     215         -0.399498        1.000000        0.33988414
     216         -0.398051        1.000000        0.35800159
     217         -0.395842        1.000000        0.18502231
     218         -0.395451        1.000000        0.36167420
     219         -0.395013        1.000000        0.36528360
     220         -0.394846        1.000000        0.36390478
     221         -0.393253        1.000000        0.35009819
     222         -0.389440        1.000000        0.36933405
     223         -0.388826        1.000000        0.36995036
     224         -0.384148        1.000000        0.35401736
     225         -0.383338        1.000000        0.35672572
     226         -0.380726        1.000000        0.17689649
     227         -0.380658        1.000000        0.17116472
     228         -0.378853        1.000000        0.35513036
     229         -0.378096        1.000000        0.35572273
     230         -0.376898        1.000000        0.36456478
     231         -0.375658        1.000000        0.36799322
     232         -0.371036        1.000000        0.35467774
     233         -0.368574        1.000000        0.15924225
     234         -0.364545        1.000000        0.17666807
     235         -0.361036        1.000000        0.17832536
     236         -0.353424        1.000000        0.14497452
     237         -0.352841        1.000000        0.18695305
     238         -0.352199        1.000000        0.17831749
     239         -0.348784        1.000000        0.41920464
     240         -0.348277        1.000000        0.15906797
     241         -0.347527        1.000000        0.41994638
     242         -0.339081        1.000000        0.35052665
     243         -0.336848        1.000000        0.12232443
     244         -0.335589        1.000000        0.32568445
     245         -0.335158        1.000000        0.11895544
     246         -0.331105        1.000000        0.40589750
     247         -0.330514        1.000000        0.41673398
     248         -0.327889        1.000000        0.17023638
     249         -0.327572        1.000000        0.40068300
     250         -0.327314        1.000000        0.15124807
     251         -0.325814        1.000000        0.16077808
     252         -0.325775        1.000000        0.41244084
     253         -0.323749        1.000000        0.14250152
     254         -0.323101        1.000000        0.12136631
     255         -0.322316        1.000000        0.35837733
     256         -0.314659        1.000000        0.13552837
     257         -0.314018        1.000000        0.27948747
     258         -0.312933        1.000000        0.39862986
     259         -0.312526        1.000000        0.15755303
     260         -0.312432        1.000000        0.16007365
     261         -0.311169        1.000000        0.15735011
     262         -0.309318        1.000000        0.29475089
     263         -0.308764        1.000000        0.38661676
     264         -0.305099        1.000000        0.10337273
     265         -0.303893        1.000000        0.15788227
     266         -0.301559        1.000000        0.10806477
     267         -0.300010        1.000000        0.02173822
     268         -0.295279        1.000000        0.39952604
     269         -0.292415        1.000000        0.16674797
     270         -0.291655        1.000000        0.12127928
     271         -0.290611        1.000000        0.08188561
     272         -0.289120        1.000000        0.14423087
     273         -0.288805        1.000000        0.07805466
     274         -0.285630        1.000000        0.08175874
     275         -0.283550        1.000000        0.05498455
     276         -0.283020        1.000000        0.12943740
     277         -0.278856        1.000000        0.12418203
     278         -0.276305        1.000000        0.07033404
     279         -0.275858        1.000000        0.11121828
     280         -0.275759        1.000000        0.06997315
     281         -0.275723        1.000000        0.06210088
     282         -0.275487        1.000000        0.12806600
     283         -0.273995        1.000000        0.08893762
     284         -0.273718        1.000000        0.12343438
     285         -0.269825        1.000000        0.10248215
     286         -0.267066        1.000000        0.10445400
     287         -0.264612        1.000000        0.05379781
     288         -0.261454        1.000000        0.10109339
     289         -0.261353        1.000000        0.10791757
     290         -0.260070        1.000000        0.08816095
     291         -0.259459        1.000000        0.04248639
     292         -0.258930        1.000000        0.02847527
     293         -0.258501        1.000000        0.07506589
     294         -0.257668        1.000000        0.02472346
     295         -0.257528        1.000000        0.10138094
     296         -0.256699        1.000000        0.04026957
     297         -0.253788        1.000000        0.05614545
     298         -0.252639        1.000000        0.02939755
     299         -0.246353        1.000000        0.04214056
     300         -0.246269        1.000000        0.04734490
     301         -0.245041        1.000000        0.08241976
     302         -0.240218        1.000000        0.04308239
     303         -0.239939        1.000000        0.00751049
     304         -0.237420        1.000000        0.00438957
     305         -0.237166        1.000000        0.02543843
     306         -0.234664        1.000000        0.00701188
     307         -0.234540        1.000000        0.00591729
     308         -0.233279        1.000000        0.04826869
     309         -0.232741        1.000000        0.01910179
     310         -0.231925        1.000000        0.07220873
     311         -0.230167        1.000000        0.00928606
     312         -0.229797        1.000000        0.01419579
     313         -0.229391        1.000000        0.05204180
     314         -0.226935        1.000000        0.00631785
     315         -0.226230        1.000000        0.00725877
     316         -0.226161        1.000000        0.00577938
     317         -0.225474        1.000000        0.05124520
     318         -0.224912        1.000000        0.01041730
     319         -0.224774        1.000000        0.02075699
     320         -0.224502        1.000000        0.01996425
     321         -0.224198        1.000000        0.02727206
     322         -0.223829        1.000000        0.02059990
     323         -0.223088        1.000000        0.00735570
     324         -0.223047        1.000000        0.07539170
     325         -0.220945        1.000000        0.05717689
     326         -0.220199        1.000000        0.04877202
     327         -0.219820        1.000000        0.02439711
     328         -0.219692        1.000000        0.03554748
     329         -0.218959        1.000000        0.01664470
     330         -0.218875        1.000000        0.01654305
     331         -0.217662        1.000000        0.03560568
     332         -0.215871        1.000000        0.00884980
     333         -0.215602        1.000000        0.02822990
     334         -0.215281        1.000000        0.05066544
     335         -0.215129        1.000000        0.00492916
     336         -0.214733        1.000000        0.01273136
     337         -0.214349        1.000000        0.03225088
     338         -0.214161        1.000000        0.01298547
     339         -0.213864        1.000000        0.02589885
     340         -0.213667        1.000000        0.03258706
     341         -0.212795        1.000000        0.03628480
     342         -0.212551        1.000000        0.03734818
     343         -0.211653        1.000000        0.00712760
     344         -0.210913        1.000000        0.01622248
     345         -0.209818        1.000000        0.02257131
     346         -0.209766        1.000000        0.00295565
     347         -0.209162        1.000000        0.01306716
     348         -0.208094        1.000000        0.01448605
     349         -0.207716        1.000000        0.04289605
     350         -0.207340        1.000000        0.03079863
     351         -0.207245        1.000000        0.01539908
     352         -0.206961        1.000000        0.04937344
     353         -0.206715        1.000000        0.02456128
     354         -0.206628        1.000000        0.03004712
     355         -0.205961        1.000000        0.01550652
     356         -0.205209        1.000000        0.07259503
     357         -0.204878        1.000000        0.01588059
     358         -0.204551        1.000000        0.01556124
     359         -0.204282        1.000000        0.00896625
     360         -0.204045        1.000000        0.01193551
     361         -0.203783        1.000000        0.01777106
     362         -0.203200        1.000000        0.01097540
     363         -0.202704        1.000000        0.02182582
     364         -0.202331        1.000000        0.01447108
     365         -0.202022        1.000000        0.01813490
     366         -0.201525        1.000000        0.01471181
     367         -0.201008        1.000000        0.00946895
     368         -0.200239        1.000000        0.00946784
     369         -0.200217        1.000000        0.01246233
     370         -0.199030        1.000000        0.01312105
     371         -0.198683        1.000000        0.00970676
     372         -0.198453        1.000000        0.06496000
     373         -0.198132        1.000000        0.01251582
     374         -0.197801        1.000000        0.02152352
     375         -0.197484        1.000000        0.01216654
     376         -0.196228        1.000000        0.00839796
     377         -0.196062        1.000000        0.01476709
     378         -0.195118        1.000000        0.01535324
     379         -0.194964        1.000000        0.02407704
     380         -0.194015        1.000000        0.00738085
     381         -0.193783        1.000000        0.00223828
     382         -0.193187        1.000000        0.00263026
     383         -0.192896        1.000000        0.00663276
     384         -0.191848        1.000000        0.01152386
     385         -0.191464        1.000000        0.00455159
     386         -0.190497        1.000000        0.00597003
     387         -0.189263        1.000000        0.04377841
     388         -0.188292        1.000000        0.02913260
     389         -0.187831        1.000000        0.00680879
     390         -0.186479        1.000000        0.00672388
     391         -0.185113        1.000000        0.00597118
     392         -0.184830        1.000000        0.00667621
     393         -0.184549        1.000000        0.00476835
     394         -0.184077        1.000000        0.00643100
     395         -0.182990        1.000000        0.00485674
     396         -0.182772        1.000000        0.00813265
     397         -0.182603        1.000000        0.00311602
     398         -0.182449        1.000000        0.00545326
     399         -0.182191        1.000000        0.00355989
     400         -0.181979        1.000000        0.00856166
     401         -0.180824        1.000000        0.01642582
     402         -0.180154        1.000000        0.04016264
     403         -0.179860        1.000000        0.00999438
     404         -0.179578        1.000000        0.00309749
     405         -0.179267        1.000000        0.00888240
     406         -0.179007        1.000000        0.00192348
     407         -0.178415        1.000000        0.00946144
     408         -0.178153        1.000000        0.00467497
     409         -0.176957        1.000000        0.00521289
     410         -0.176467        1.000000        0.00608911
     411         -0.176338        1.000000        0.01385337
     412         -0.175784        1.000000        0.00666447
     413         -0.175069        1.000000        0.00720159
     414         -0.173938        1.000000        0.00592342
     415         -0.173407        1.000000        0.00851552
     416         -0.173160        1.000000        0.01363588
     417         -0.172599        1.000000        0.00882105
     418         -0.172129        1.000000        0.00552133
     419         -0.171706        1.000000        0.00440330
     420         -0.171467        1.000000        0.00364590
     421         -0.171053        1.000000        0.01113219
     422         -0.170596        1.000000        0.00325223
     423         -0.170058        1.000000        0.00536835
     424         -0.169545        1.000000        0.00403929
     425         -0.169426        1.000000        0.00220781
     426         -0.168605        1.000000        0.00337764
     427         -0.168225        1.000000        0.00514163
     428         -0.167989        1.000000        0.00736788
     429         -0.167808        1.000000        0.00387842
     430         -0.167484        1.000000        0.00302598
     431         -0.167239        1.000000        0.00256765
     432         -0.166606        1.000000        0.00368552
     433         -0.166389        1.000000        0.00564889
     434         -0.166029        1.000000        0.00534032
     435         -0.165531        1.000000        0.00949440
     436         -0.164916        1.000000        0.00273702
     437         -0.164615        1.000000        0.00322313
     438         -0.164170        1.000000        0.00269861
     439         -0.163797        1.000000        0.00188771
     440         -0.163631        1.000000        0.00226491
     441         -0.163482        1.000000        0.00177886
     442         -0.162999        1.000000        0.00282222
     443         -0.162868        1.000000        0.00307302
     444         -0.162189        1.000000        0.00534182
     445         -0.162009        1.000000        0.00421265
     446         -0.161697        1.000000        0.00286012
     447         -0.161411        1.000000        0.00239958
     448         -0.160911        1.000000        0.00307022
     449         -0.160458        1.000000        0.00209424
     450         -0.160177        1.000000        0.00221912
     451         -0.159903        1.000000        0.00194986
     452         -0.159574        1.000000        0.00167015
     453         -0.159005        1.000000        0.00225039
     454         -0.158927        1.000000        0.00233596
     455         -0.157729        1.000000        0.00223409
     456         -0.157369        1.000000        0.00185977
     457         -0.157118        1.000000        0.00147000
     458         -0.156845        1.000000        0.00160365
     459         -0.156314        1.000000        0.00124503
     460         -0.156136        1.000000        0.00197879
     461         -0.155103        1.000000        0.00175209
     462         -0.154486        1.000000        0.00083539
     463         -0.154078        1.000000        0.00173162
     464         -0.153789        1.000000        0.00099176
     465         -0.153517        1.000000        0.00172172
     466         -0.153394        1.000000        0.00222890
     467         -0.152690        1.000000        0.00228074
     468         -0.152380        1.000000        0.00118512
     469         -0.152260        1.000000        0.00184528
     470         -0.151672        1.000000        0.00096521
     471         -0.151180        1.000000        0.00209769
     472         -0.150954        1.000000        0.00203194
     473         -0.150867        1.000000        0.00216738
     474         -0.150574        1.000000        0.00279511
     475         -0.149746        1.000000        0.00115642
     476         -0.149579        1.000000        0.00175349
     477         -0.148842        1.000000        0.00130402
     478         -0.147669        1.000000        0.00308712
     479         -0.146927        1.000000        0.00103965
     480         -0.146902        1.000000        0.00077787
     481         -0.146120        1.000000        0.00075342
     482         -0.145574        1.000000        0.00072921
     483         -0.145374        1.000000        0.00004645
     484         -0.145269        1.000000        0.00101764
     485         -0.144402        1.000000        0.00096786
     486         -0.143789        1.000000        0.00115823
     487         -0.143582        1.000000        0.00009434
     488         -0.143486        1.000000        0.00097367
     489         -0.143178        1.000000        0.00118806