# Projected DOS for atomic kind H at iteration step i = 0, E(Fermi) =    -0.128954 a.u.
#     MO Eigenvalue [a.u.]      Occupation                 s
       1         -0.933491        1.000000        0.25365967
       2         -0.923274        1.000000        0.25188109
       3         -0.922568        1.000000        0.26911398
       4         -0.917149        1.000000        0.25615873
       5         -0.914847        1.000000        0.25502801
       6         -0.911734        1.000000        0.25279189
       7         -0.907239        1.000000        0.25341509
       8         -0.906524        1.000000        0.26345302
       9         -0.906511        1.000000        0.26082596
      10         -0.906055        1.000000        0.25843224
      11         -0.905718        1.000000        0.25835059
      12         -0.903046        1.000000        0.25969593
      13         -0.899914        1.000000        0.25455148
      14         -0.896969        1.000000        0.25781140
      15         -0.891150        1.000000        0.25743330
      16         -0.888150        1.000000        0.23567480
      17         -0.888111        1.000000        0.24160503
      18         -0.887572        1.000000        0.28055723
      19         -0.884970        1.000000        0.24733140
      20         -0.884408        1.000000        0.21617080
      21         -0.882452        1.000000        0.25469773
      22         -0.881892        1.000000        0.24030857
      23         -0.881027        1.000000        0.25433930
      24         -0.880632        1.000000        0.25780042
      25         -0.879857        1.000000        0.26811122
      26         -0.879359        1.000000        0.25629817
      27         -0.877567        1.000000        0.28622004
      28         -0.875876        1.000000        0.24850185
      29         -0.872907        1.000000        0.24282356
      30         -0.872742        1.000000        0.25563123
      31         -0.872568        1.000000        0.24894431
      32         -0.872093        1.000000        0.24693217
      33         -0.868890        1.000000        0.25926609
      34         -0.868093        1.000000        0.25334187
      35         -0.866192        1.000000        0.27171111
      36         -0.861562        1.000000        0.25180103
      37         -0.858654        1.000000        0.25582074
      38         -0.857406        1.000000        0.19692014
      39         -0.854516        1.000000        0.25154532
      40         -0.853343        1.000000        0.25241897
      41         -0.852823        1.000000        0.26075683
      42         -0.851403        1.000000        0.22915405
      43         -0.850264        1.000000        0.17265764
      44         -0.849873        1.000000        0.23822930
      45         -0.849341        1.000000        0.25547520
      46         -0.848148        1.000000        0.26318123
      47         -0.847897        1.000000        0.25733845
      48         -0.845708        1.000000        0.20784683
      49         -0.845607        1.000000        0.25259152
      50         -0.842454        1.000000        0.27299960
      51         -0.842103        1.000000        0.20066870
      52         -0.839594        1.000000        0.24834030
      53         -0.839561        1.000000        0.25765539
      54         -0.839389        1.000000        0.22714007
      55         -0.838350        1.000000        0.25391568
      56         -0.838168        1.000000        0.24213392
      57         -0.837815        1.000000        0.24232018
      58         -0.837398        1.000000        0.25673486
      59         -0.837206        1.000000        0.25492757
      60         -0.836867        1.000000        0.25732646
      61         -0.833968        1.000000        0.23441419
      62         -0.832060        1.000000        0.25871645
      63         -0.831683        1.000000        0.23763088
      64         -0.831468        1.000000        0.25747411
      65         -0.830208        1.000000        0.25810636
      66         -0.829348        1.000000        0.25685761
      67         -0.827826        1.000000        0.23284983
      68         -0.827509        1.000000        0.21200645
      69         -0.822700        1.000000        0.21602662
      70         -0.820308        1.000000        0.25550506
      71         -0.819047        1.000000        0.25759166
      72         -0.818911        1.000000        0.24452710
      73         -0.816191        1.000000        0.24006819
      74         -0.813252        1.000000        0.16479598
      75         -0.811381        1.000000        0.25349256
      76         -0.809123        1.000000        0.24557754
      77         -0.808080        1.000000        0.24444600
      78         -0.807584        1.000000        0.21567299
      79         -0.805432        1.000000        0.24605757
      80         -0.804615        1.000000        0.24499562
      81         -0.804360        1.000000        0.23395046
      82         -0.803411        1.000000        0.21679752
      83         -0.796828        1.000000        0.24496100
      84         -0.793352        1.000000        0.13889922
      85         -0.790394        1.000000        0.18721549
      86         -0.630539        1.000000        0.34686233
      87         -0.613767        1.000000        0.33788107
      88         -0.604616        1.000000        0.13407635
      89         -0.603400        1.000000        0.36917778
      90         -0.602736        1.000000        0.23857732
      91         -0.591221        1.000000        0.19305719
      92         -0.588678        1.000000        0.18010516
      93         -0.581333        1.000000        0.37516965
      94         -0.572573        1.000000        0.34236739
      95         -0.571026        1.000000        0.01863893
      96         -0.569198        1.000000        0.00387051
      97         -0.561263        1.000000        0.00488036
      98         -0.557081        1.000000        0.00250172
      99         -0.554484        1.000000        0.00860119
     100         -0.549986        1.000000        0.00277234
     101         -0.547890        1.000000        0.01688060
     102         -0.545672        1.000000        0.00442673
     103         -0.542341        1.000000        0.00246027
     104         -0.541844        1.000000        0.01901335
     105         -0.540197        1.000000        0.00958516
     106         -0.540048        1.000000        0.02394935
     107         -0.537827        1.000000        0.03650828
     108         -0.537657        1.000000        0.04060878
     109         -0.536742        1.000000        0.02569138
     110         -0.536274        1.000000        0.02138660
     111         -0.534928        1.000000        0.02240896
     112         -0.533343        1.000000        0.02228225
     113         -0.531903        1.000000        0.00858581
     114         -0.531533        1.000000        0.00742629
     115         -0.529936        1.000000        0.02892159
     116         -0.527669        1.000000        0.04516615
     117         -0.526615        1.000000        0.02856332
     118         -0.525833        1.000000        0.03195490
     119         -0.525806        1.000000        0.03214900
     120         -0.522784        1.000000        0.03071973
     121         -0.522591        1.000000        0.00547223
     122         -0.520509        1.000000        0.02355236
     123         -0.520112        1.000000        0.01156077
     124         -0.519294        1.000000        0.01477848
     125         -0.519129        1.000000        0.00696661
     126         -0.518650        1.000000        0.02809595
     127         -0.518566        1.000000        0.00533082
     128         -0.516788        1.000000        0.01303119
     129         -0.507571        1.000000        0.25944254
     130         -0.502754        1.000000        0.25868829
     131         -0.502099        1.000000        0.30510653
     132         -0.492495        1.000000        0.28909919
     133         -0.484957        1.000000        0.31565072
     134         -0.482317        1.000000        0.31016999
     135         -0.481216        1.000000        0.32862769
     136         -0.478235        1.000000        0.34326400
     137         -0.477642        1.000000        0.35775289
     138         -0.475277        1.000000        0.33981202
     139         -0.474407        1.000000        0.34958313
     140         -0.473861        1.000000        0.34865814
     141         -0.472955        1.000000        0.33851356
     142         -0.472421        1.000000        0.32267727
     143         -0.472362        1.000000        0.33516521
     144         -0.468667        1.000000        0.35960292
     145         -0.468238        1.000000        0.34120118
     146         -0.465696        1.000000        0.32491158
     147         -0.464210        1.000000        0.34472928
     148         -0.463164        1.000000        0.32797372
     149         -0.462966        1.000000        0.33538932
     150         -0.460961        1.000000        0.32687007
     151         -0.459947        1.000000        0.34484415
     152         -0.459487        1.000000        0.34317854
     153         -0.457464        1.000000        0.34663523
     154         -0.455572        1.000000        0.35546609
     155         -0.454926        1.000000        0.33474742
     156         -0.454351        1.000000        0.33854699
     157         -0.453780        1.000000        0.34577128
     158         -0.453485        1.000000        0.33818197
     159         -0.452228        1.000000        0.34400516
     160         -0.451748        1.000000        0.34076059
     161         -0.451451        1.000000        0.33941623
     162         -0.450329        1.000000        0.34356963
     163         -0.450046        1.000000        0.34766234
     164         -0.449429        1.000000        0.34091729
     165         -0.445793        1.000000        0.34109531
     166         -0.444897        1.000000        0.34381299
     167         -0.441983        1.000000        0.34005850
     168         -0.440947        1.000000        0.34746484
     169         -0.440850        1.000000        0.33708542
     170         -0.439320        1.000000        0.34856642
     171         -0.439274        1.000000        0.33406617
     172         -0.438196        1.000000        0.32045383
     173         -0.436427        1.000000        0.33900415
     174         -0.435850        1.000000        0.34967911
     175         -0.434973        1.000000        0.33183139
     176         -0.434810        1.000000        0.34819432
     177         -0.434667        1.000000        0.34608211
     178         -0.434578        1.000000        0.34861628
     179         -0.433342        1.000000        0.32552198
     180         -0.432370        1.000000        0.34444287
     181         -0.432302        1.000000        0.34291121
     182         -0.428443        1.000000        0.34642452
     183         -0.428043        1.000000        0.34491813
     184         -0.427830        1.000000        0.04100557
     185         -0.427543        1.000000        0.34221030
     186         -0.426465        1.000000        0.34500298
     187         -0.425432        1.000000        0.33017796
     188         -0.422799        1.000000        0.31757991
     189         -0.421318        1.000000        0.33110852
     190         -0.420838        1.000000        0.34394526
     191         -0.420237        1.000000        0.31279338
     192         -0.419153        1.000000        0.33042636
     193         -0.418911        1.000000        0.32631108
     194         -0.417003        1.000000        0.07862733
     195         -0.415848        1.000000        0.25611554
     196         -0.415470        1.000000        0.14255784
     197         -0.414947        1.000000        0.32539314
     198         -0.413627        1.000000        0.32817231
     199         -0.413415        1.000000        0.28229445
     200         -0.412879        1.000000        0.33070787
     201         -0.411692        1.000000        0.34513227
     202         -0.411538        1.000000        0.11379586
     203         -0.410562        1.000000        0.33974072
     204         -0.410228        1.000000        0.12215672
     205         -0.408817        1.000000        0.23411858
     206         -0.407469        1.000000        0.33752279
     207         -0.406783        1.000000        0.32677896
     208         -0.405856        1.000000        0.09033973
     209         -0.404287        1.000000        0.34853070
     210         -0.403290        1.000000        0.36474820
     211         -0.402908        1.000000        0.34496920
     212         -0.402563        1.000000        0.03945500
     213         -0.401801        1.000000        0.03721087
     214         -0.401072        1.000000        0.05166596
     215         -0.399497        1.000000        0.34011089
     216         -0.398052        1.000000        0.35810778
     217         -0.395849        1.000000        0.18487834
     218         -0.395444        1.000000        0.36178664
     219         -0.395023        1.000000        0.36528862
     220         -0.394847        1.000000        0.36397798
     221         -0.392208        1.000000        0.35124991
     222         -0.389460        1.000000        0.36938383
     223         -0.388824        1.000000        0.36995628
     224         -0.384172        1.000000        0.35410638
     225         -0.383348        1.000000        0.35672730
     226         -0.380739        1.000000        0.17697113
     227         -0.380661        1.000000        0.17111409
     228         -0.378942        1.000000        0.35524544
     229         -0.378169        1.000000        0.35531703
     230         -0.376911        1.000000        0.36447556
     231         -0.375660        1.000000        0.36799520
     232         -0.371120        1.000000        0.35460093
     233         -0.368573        1.000000        0.15924163
     234         -0.364545        1.000000        0.17667024
     235         -0.361039        1.000000        0.17832891
     236         -0.353425        1.000000        0.14497307
     237         -0.352840        1.000000        0.18695161
     238         -0.352203        1.000000        0.17834626
     239         -0.348794        1.000000        0.41919288
     240         -0.348274        1.000000        0.15908073
     241         -0.347537        1.000000        0.41991624
     242         -0.339085        1.000000        0.35050453
     243         -0.336849        1.000000        0.12233217
     244         -0.335592        1.000000        0.32570506
     245         -0.335160        1.000000        0.11894592
     246         -0.331109        1.000000        0.40590367
     247         -0.330517        1.000000        0.41671828
     248         -0.327895        1.000000        0.16976037
     249         -0.327590        1.000000        0.40067692
     250         -0.327327        1.000000        0.15182642
     251         -0.326085        1.000000        0.15846561
     252         -0.325879        1.000000        0.38056664
     253         -0.324797        1.000000        0.17511841
     254         -0.323102        1.000000        0.12087473
     255         -0.322329        1.000000        0.36050479
     256         -0.314665        1.000000        0.13545558
     257         -0.314022        1.000000        0.27952827
     258         -0.312936        1.000000        0.39901527
     259         -0.312525        1.000000        0.15726537
     260         -0.312431        1.000000        0.16041882
     261         -0.311163        1.000000        0.15706858
     262         -0.309313        1.000000        0.29454806
     263         -0.308766        1.000000        0.38661012
     264         -0.305103        1.000000        0.10333236
     265         -0.303896        1.000000        0.15814282
     266         -0.301559        1.000000        0.10813543
     267         -0.300024        1.000000        0.02175481
     268         -0.295210        1.000000        0.40015707
     269         -0.292418        1.000000        0.16671188
     270         -0.291658        1.000000        0.12128777
     271         -0.290636        1.000000        0.08170012
     272         -0.289129        1.000000        0.14425264
     273         -0.288805        1.000000        0.07801881
     274         -0.286357        1.000000        0.08041628
     275         -0.283559        1.000000        0.05510874
     276         -0.283037        1.000000        0.12906848
     277         -0.278860        1.000000        0.12416965
     278         -0.277096        1.000000        0.08921311
     279         -0.276310        1.000000        0.06972682
     280         -0.275816        1.000000        0.11302005
     281         -0.275730        1.000000        0.06612352
     282         -0.275375        1.000000        0.07599329
     283         -0.275334        1.000000        0.11910884
     284         -0.273441        1.000000        0.12051376
     285         -0.269826        1.000000        0.10248510
     286         -0.267071        1.000000        0.10443670
     287         -0.264623        1.000000        0.05376034
     288         -0.261529        1.000000        0.09513752
     289         -0.261375        1.000000        0.10904008
     290         -0.260086        1.000000        0.08810816
     291         -0.259539        1.000000        0.04102313
     292         -0.258953        1.000000        0.02898022
     293         -0.258719        1.000000        0.03352309
     294         -0.258498        1.000000        0.07429140
     295         -0.257850        1.000000        0.09930223
     296         -0.256709        1.000000        0.04029389
     297         -0.253789        1.000000        0.05609672
     298         -0.252644        1.000000        0.02948518
     299         -0.246356        1.000000        0.04220311
     300         -0.246282        1.000000        0.04715112
     301         -0.245062        1.000000        0.08218504
     302         -0.241389        1.000000        0.00677544
     303         -0.240196        1.000000        0.04655469
     304         -0.239575        1.000000        0.00381716
     305         -0.237370        1.000000        0.00415863
     306         -0.237166        1.000000        0.02548042
     307         -0.234606        1.000000        0.00632033
     308         -0.234451        1.000000        0.00722003
     309         -0.233291        1.000000        0.04375939
     310         -0.233058        1.000000        0.02095557
     311         -0.231897        1.000000        0.07215071
     312         -0.230177        1.000000        0.00865218
     313         -0.229808        1.000000        0.01487646
     314         -0.229515        1.000000        0.05343513
     315         -0.226860        1.000000        0.00772957
     316         -0.226404        1.000000        0.00645706
     317         -0.225535        1.000000        0.04762471
     318         -0.225032        1.000000        0.01350428
     319         -0.224807        1.000000        0.01758514
     320         -0.224668        1.000000        0.02292306
     321         -0.224209        1.000000        0.02761359
     322         -0.223873        1.000000        0.02127893
     323         -0.223183        1.000000        0.00752356
     324         -0.223051        1.000000        0.07598114
     325         -0.221525        1.000000        0.03475414
     326         -0.220460        1.000000        0.05771785
     327         -0.219947        1.000000        0.02443319
     328         -0.219755        1.000000        0.02457978
     329         -0.219459        1.000000        0.03159589
     330         -0.218917        1.000000        0.01485288
     331         -0.218566        1.000000        0.02640181
     332         -0.216043        1.000000        0.01034392
     333         -0.215730        1.000000        0.02314970
     334         -0.215370        1.000000        0.01734762
     335         -0.215330        1.000000        0.06215273
     336         -0.215014        1.000000        0.01740346
     337         -0.214757        1.000000        0.01395408
     338         -0.214724        1.000000        0.01542656
     339         -0.214164        1.000000        0.03833530
     340         -0.213819        1.000000        0.01725299
     341         -0.213522        1.000000        0.02770725
     342         -0.212642        1.000000        0.05824268
     343         -0.211765        1.000000        0.00810863
     344         -0.210979        1.000000        0.01604059
     345         -0.209941        1.000000        0.02203673
     346         -0.209773        1.000000        0.00219308
     347         -0.209687        1.000000        0.03274861
     348         -0.209217        1.000000        0.01280557
     349         -0.208260        1.000000        0.01452507
     350         -0.207683        1.000000        0.04373841
     351         -0.207197        1.000000        0.01542182
     352         -0.207166        1.000000        0.05013698
     353         -0.206784        1.000000        0.01902805
     354         -0.206600        1.000000        0.02313394
     355         -0.205985        1.000000        0.02152830
     356         -0.205457        1.000000        0.02360462
     357         -0.205215        1.000000        0.07240058
     358         -0.204854        1.000000        0.01433948
     359         -0.204442        1.000000        0.01050464
     360         -0.204208        1.000000        0.01102598
     361         -0.203851        1.000000        0.01789746
     362         -0.203229        1.000000        0.01081164
     363         -0.202735        1.000000        0.02234071
     364         -0.202400        1.000000        0.01368803
     365         -0.202150        1.000000        0.01746277
     366         -0.201675        1.000000        0.01388541
     367         -0.201029        1.000000        0.00919666
     368         -0.200269        1.000000        0.01447552
     369         -0.200257        1.000000        0.00664082
     370         -0.199481        1.000000        0.00712662
     371         -0.198953        1.000000        0.01124210
     372         -0.198801        1.000000        0.01260964
     373         -0.198430        1.000000        0.06647466
     374         -0.198214        1.000000        0.01012433
     375         -0.197808        1.000000        0.02163482
     376         -0.196518        1.000000        0.00997983
     377         -0.196346        1.000000        0.01408133
     378         -0.195564        1.000000        0.01006219
     379         -0.195087        1.000000        0.02934408
     380         -0.194244        1.000000        0.00925452
     381         -0.193796        1.000000        0.00232278
     382         -0.193575        1.000000        0.00269135
     383         -0.193188        1.000000        0.00274643
     384         -0.193042        1.000000        0.00694805
     385         -0.191865        1.000000        0.01124365
     386         -0.191546        1.000000        0.00496292
     387         -0.190595        1.000000        0.00950459
     388         -0.190015        1.000000        0.03762739
     389         -0.187869        1.000000        0.00653235
     390         -0.187261        1.000000        0.02911171
     391         -0.186410        1.000000        0.00684052
     392         -0.185177        1.000000        0.00602178
     393         -0.184737        1.000000        0.00563821
     394         -0.184610        1.000000        0.00557393
     395         -0.184024        1.000000        0.00538811
     396         -0.183198        1.000000        0.00676477
     397         -0.182772        1.000000        0.00309895
     398         -0.182466        1.000000        0.00458341
     399         -0.182224        1.000000        0.00733416
     400         -0.181944        1.000000        0.01075211
     401         -0.181368        1.000000        0.00433851
     402         -0.180660        1.000000        0.02423317
     403         -0.180324        1.000000        0.03694541
     404         -0.179881        1.000000        0.00543102
     405         -0.179438        1.000000        0.00892191
     406         -0.179245        1.000000        0.00289117
     407         -0.178383        1.000000        0.00987186
     408         -0.178314        1.000000        0.00398072
     409         -0.177548        1.000000        0.00302107
     410         -0.176819        1.000000        0.00663735
     411         -0.176267        1.000000        0.01465242
     412         -0.176056        1.000000        0.00598801
     413         -0.175571        1.000000        0.00881739
     414         -0.173920        1.000000        0.00450834
     415         -0.173660        1.000000        0.01200319
     416         -0.173316        1.000000        0.01274880
     417         -0.173126        1.000000        0.01105636
     418         -0.172652        1.000000        0.00841776
     419         -0.171903        1.000000        0.00290372
     420         -0.171586        1.000000        0.00295052
     421         -0.171543        1.000000        0.00342420
     422         -0.170457        1.000000        0.00276400
     423         -0.170307        1.000000        0.00496756
     424         -0.169766        1.000000        0.00822561
     425         -0.169642        1.000000        0.00209586
     426         -0.169188        1.000000        0.00520146
     427         -0.168658        1.000000        0.00392165
     428         -0.168453        1.000000        0.00324862
     429         -0.168136        1.000000        0.00712156
     430         -0.167819        1.000000        0.00402601
     431         -0.167506        1.000000        0.00197726
     432         -0.167334        1.000000        0.00304091
     433         -0.166501        1.000000        0.00404283
     434         -0.166406        1.000000        0.00630458
     435         -0.165958        1.000000        0.00395068
     436         -0.165631        1.000000        0.00297019
     437         -0.165522        1.000000        0.00914037
     438         -0.164881        1.000000        0.00236477
     439         -0.164604        1.000000        0.00355504
     440         -0.164289        1.000000        0.00323666
     441         -0.163512        1.000000        0.00191294
     442         -0.163458        1.000000        0.00188405
     443         -0.163124        1.000000        0.00308593
     444         -0.162690        1.000000        0.00274615
     445         -0.162154        1.000000        0.00673130
     446         -0.161970        1.000000        0.00283885
     447         -0.161774        1.000000        0.00282281
     448         -0.161500        1.000000        0.00233748
     449         -0.160982        1.000000        0.00322440
     450         -0.160505        1.000000        0.00190025
     451         -0.160277        1.000000        0.00253414
     452         -0.159844        1.000000        0.00196892
     453         -0.159198        1.000000        0.00221293
     454         -0.159042        1.000000        0.00217373
     455         -0.158540        1.000000        0.00239437
     456         -0.158086        1.000000        0.00178594
     457         -0.157296        1.000000        0.00203236
     458         -0.157209        1.000000        0.00200976
     459         -0.156997        1.000000        0.00096579
     460         -0.156432        1.000000        0.00188958
     461         -0.155754        1.000000        0.00153377
     462         -0.154534        1.000000        0.00093967
     463         -0.154258        1.000000        0.00200178
     464         -0.154006        1.000000        0.00167355
     465         -0.153816        1.000000        0.00108042
     466         -0.153523        1.000000        0.00258669
     467         -0.152960        1.000000        0.00199966
     468         -0.152768        1.000000        0.00126425
     469         -0.152474        1.000000        0.00140687
     470         -0.151830        1.000000        0.00110826
     471         -0.151261        1.000000        0.00212950
     472         -0.150991        1.000000        0.00195468
     473         -0.150885        1.000000        0.00219012
     474         -0.150735        1.000000        0.00312992
     475         -0.149803        1.000000        0.00121590
     476         -0.149610        1.000000        0.00171217
     477         -0.148906        1.000000        0.00128726
     478         -0.147858        1.000000        0.00294993
     479         -0.146926        1.000000        0.00103643
     480         -0.146892        1.000000        0.00078043
     481         -0.146159        1.000000        0.00074402
     482         -0.145641        1.000000        0.00065595
     483         -0.145517        1.000000        0.00019130
     484         -0.145273        1.000000        0.00101907
     485         -0.144639        1.000000        0.00129343
     486         -0.144304        1.000000        0.00106939
     487         -0.143799        1.000000        0.00111546
     488         -0.143570        1.000000        0.00005300
     489         -0.143337        1.000000        0.00156916