# Projected DOS for atomic kind C at iteration step i = 0, E(Fermi) =    -0.180909 a.u.
#     MO Eigenvalue [a.u.]      Occupation                 s                py                pz                px
       1         -0.978171        1.000000        0.05881269        0.00084688        0.00164774        0.04355301
       2         -0.957199        1.000000        0.06653660        0.00094763        0.01998294        0.02582412
       3         -0.951817        1.000000        0.06380131        0.00544212        0.02218620        0.01931769
       4         -0.945466        1.000000        0.05993801        0.00017277        0.00561920        0.03799166
       5         -0.944220        1.000000        0.06058374        0.01764649        0.01378871        0.01352779
       6         -0.943219        1.000000        0.06343215        0.00603998        0.00013894        0.03861669
       7         -0.935816        1.000000        0.06095872        0.00000414        0.01224053        0.03175765
       8         -0.710152        1.000000        0.42858977        0.00014411        0.00001135        0.00019079
       9         -0.703756        1.000000        0.43408083        0.00000279        0.00109953        0.00106460
      10         -0.691390        1.000000        0.43094479        0.00014389        0.00022813        0.00096423
      11         -0.690613        1.000000        0.43673336        0.00017678        0.00002254        0.00178545
      12         -0.689569        1.000000        0.43941821        0.00012099        0.00014185        0.00095264
      13         -0.683193        1.000000        0.43795913        0.00052007        0.00051956        0.00013960
      14         -0.681440        1.000000        0.43891133        0.00000073        0.00049963        0.00066376
      15         -0.638328        1.000000        0.00088872        0.00064917        0.00010322        0.00018187
      16         -0.617553        1.000000        0.00012230        0.00036093        0.00007009        0.00007515
      17         -0.609882        1.000000        0.00004686        0.00781288        0.03795696        0.00328109
      18         -0.601284        1.000000        0.00006111        0.00455051        0.00403543        0.00102050
      19         -0.597325        1.000000        0.00050502        0.00289710        0.00378723        0.00107886
      20         -0.594617        1.000000        0.00063982        0.00337798        0.00260258        0.00109153
      21         -0.593331        1.000000        0.00028963        0.00972460        0.00297430        0.00140815
      22         -0.591493        1.000000        0.00048683        0.01291064        0.00663114        0.00646804
      23         -0.588176        1.000000        0.00050467        0.00479183        0.00651470        0.00358514
      24         -0.587411        1.000000        0.00056187        0.00187766        0.00242629        0.00153788
      25         -0.585996        1.000000        0.00051726        0.01115270        0.00770121        0.00350254
      26         -0.585092        1.000000        0.00034283        0.00786963        0.00568739        0.00216084
      27         -0.584278        1.000000        0.00121986        0.03622729        0.00907123        0.00153259
      28         -0.583241        1.000000        0.00047846        0.00716805        0.00278108        0.00033045
      29         -0.582871        1.000000        0.00012391        0.00083543        0.00032620        0.00009235
      30         -0.581368        1.000000        0.00006855        0.04107982        0.00361332        0.00186107
      31         -0.579703        1.000000        0.00000122        0.00013504        0.00012823        0.00000830
      32         -0.577897        1.000000        0.00039207        0.00439018        0.00420713        0.00186488
      33         -0.576860        1.000000        0.00028255        0.00653180        0.00295165        0.00232433
      34         -0.572525        1.000000        0.00034661        0.01757550        0.00172872        0.00169904
      35         -0.572121        1.000000        0.00009726        0.00142305        0.00162354        0.00059149
      36         -0.571656        1.000000        0.00008360        0.00602584        0.00155219        0.00060123
      37         -0.571003        1.000000        0.00072661        0.01114056        0.01421826        0.00552583
      38         -0.569815        1.000000        0.00024395        0.00094523        0.00398715        0.00187961
      39         -0.569298        1.000000        0.00118489        0.00238075        0.01525289        0.00908501
      40         -0.568154        1.000000        0.00036974        0.01701249        0.02389713        0.00398004
      41         -0.566844        1.000000        0.00011757        0.00982683        0.01135640        0.00209142
      42         -0.566392        1.000000        0.00048061        0.00517297        0.01227848        0.00769147
      43         -0.566148        1.000000        0.00001419        0.00046835        0.00094371        0.00037955
      44         -0.564713        1.000000        0.00013259        0.00951177        0.00252309        0.00086939
      45         -0.563888        1.000000        0.00003156        0.01161055        0.01571794        0.00441716
      46         -0.563474        1.000000        0.00002582        0.01629774        0.00356553        0.02712370
      47         -0.562868        1.000000        0.00011173        0.00703250        0.01153289        0.00163638
      48         -0.561831        1.000000        0.00001792        0.01009993        0.00468329        0.00546266
      49         -0.561543        1.000000        0.00000391        0.00037056        0.00055267        0.00032028
      50         -0.560215        1.000000        0.00002332        0.00384007        0.00350805        0.00190802
      51         -0.559575        1.000000        0.00004906        0.03042595        0.00132669        0.00595626
      52         -0.559180        1.000000        0.00006361        0.00291336        0.00144801        0.00206284
      53         -0.559092        1.000000        0.00003276        0.00563910        0.00220705        0.00310008
      54         -0.558549        1.000000        0.00007232        0.00185689        0.00041685        0.00062969
      55         -0.558208        1.000000        0.00012783        0.00197961        0.01048144        0.00161468
      56         -0.557964        1.000000        0.00025774        0.00089552        0.03397211        0.00243978
      57         -0.556393        1.000000        0.00000122        0.00009539        0.00000962        0.00000846
      58         -0.555617        1.000000        0.00006374        0.00077266        0.00222863        0.00200696
      59         -0.554606        1.000000        0.00000302        0.00420569        0.00591254        0.00261507
      60         -0.554389        1.000000        0.00017188        0.00470683        0.00683098        0.00522112
      61         -0.554093        1.000000        0.00057595        0.01634229        0.01229134        0.00731113
      62         -0.552227        1.000000        0.00007934        0.00548969        0.02004937        0.00752133
      63         -0.549831        1.000000        0.00019250        0.00312345        0.00014002        0.00857666
      64         -0.544966        1.000000        0.00019929        0.03881025        0.01112497        0.00663125
      65         -0.498563        1.000000        0.03476876        0.01214133        0.00912217        0.31392675
      66         -0.485627        1.000000        0.02256863        0.00390176        0.14568918        0.19339091
      67         -0.475526        1.000000        0.02653798        0.03895558        0.14318825        0.15548732
      68         -0.471291        1.000000        0.02356105        0.01300831        0.03424676        0.29169224
      69         -0.469432        1.000000        0.02272366        0.02861781        0.01844705        0.29641431
      70         -0.466235        1.000000        0.02605810        0.13334906        0.11237570        0.09319387
      71         -0.461444        1.000000        0.02466994        0.00016054        0.10371724        0.23430563
      72         -0.459668        1.000000        0.00012327        0.00039614        0.00063734        0.00115355
      73         -0.457070        1.000000        0.00013340        0.00064630        0.00100827        0.00092603
      74         -0.455282        1.000000        0.00002009        0.00036596        0.00028253        0.00031854
      75         -0.454326        1.000000        0.00006632        0.00019875        0.00025848        0.00131572
      76         -0.451416        1.000000        0.00027272        0.00058782        0.00089999        0.00205647
      77         -0.449516        1.000000        0.00002048        0.00066886        0.00024063        0.00010371
      78         -0.448925        1.000000        0.00017709        0.00058330        0.00191710        0.00199445
      79         -0.444676        1.000000        0.00016184        0.00049772        0.00059915        0.00174082
      80         -0.421180        1.000000        0.00000231        0.20329806        0.21961143        0.10680003
      81         -0.419941        1.000000        0.00000011        0.06136538        0.46209259        0.02789031
      82         -0.417419        1.000000        0.00000031        0.31467451        0.08661051        0.12680938
      83         -0.416656        1.000000        0.00000021        0.45905677        0.06961169        0.00456789
      84         -0.409698        1.000000        0.00000335        0.04566132        0.47379022        0.00149163
      85         -0.406593        1.000000        0.00001843        0.40917557        0.05199811        0.06263342
      86         -0.405678        1.000000        0.00000412        0.28243224        0.21320723        0.03869178
      87         -0.405193        1.000000        0.00002189        0.14122195        0.34882818        0.04597711
      88         -0.403930        1.000000        0.00000667        0.19813236        0.07196672        0.26225761
      89         -0.403274        1.000000        0.00000193        0.39203843        0.10556697        0.03534610
      90         -0.399676        1.000000        0.00008376        0.02166312        0.16182824        0.34871107
      91         -0.399123        1.000000        0.00001029        0.04728014        0.33849880        0.14445128
      92         -0.395885        1.000000        0.00000211        0.48382413        0.03439391        0.01143718
      93         -0.395487        1.000000        0.00000958        0.30653096        0.20821177        0.02820097
      94         -0.317963        1.000000        0.00006938        0.00058722        0.00020739        0.00015699
      95         -0.292249        1.000000        0.00008513        0.00064660        0.00018535        0.00014066
      96         -0.277295        1.000000        0.00008431        0.00008802        0.00024778        0.00006622
      97         -0.273123        1.000000        0.00001175        0.00001640        0.00011607        0.00005404
      98         -0.270603        1.000000        0.00005607        0.00041661        0.00014323        0.00085529
      99         -0.269993        1.000000        0.00006244        0.00022355        0.00031591        0.00009464
     100         -0.266877        1.000000        0.00014572        0.00037718        0.00026518        0.00023123
     101         -0.265018        1.000000        0.00006015        0.00021401        0.00007251        0.00029992
     102         -0.263639        1.000000        0.00017274        0.00013657        0.00006602        0.00034826
     103         -0.261867        1.000000        0.00008592        0.00024638        0.00013576        0.00065419
     104         -0.261273        1.000000        0.00005101        0.00049395        0.00006939        0.00016249
     105         -0.257952        1.000000        0.00002231        0.00074668        0.00004703        0.00009752
     106         -0.255926        1.000000        0.00004233        0.00026161        0.00011002        0.00004400
     107         -0.253946        1.000000        0.00020121        0.00091942        0.00006627        0.00048017
     108         -0.251662        1.000000        0.00025260        0.00060391        0.00005413        0.00017976
     109         -0.249824        1.000000        0.00017010        0.00031516        0.00018092        0.00048749
     110         -0.244721        1.000000        0.00026828        0.00032582        0.00021860        0.00027198
     111         -0.244205        1.000000        0.00040914        0.00027310        0.00032104        0.00057762
     112         -0.242649        1.000000        0.00015491        0.00024804        0.00018751        0.00034947
     113         -0.242171        1.000000        0.00018229        0.00033710        0.00034089        0.00028744
     114         -0.240304        1.000000        0.00025642        0.00058509        0.00032822        0.00046187
     115         -0.238081        1.000000        0.00043200        0.00035095        0.00050435        0.00158058
     116         -0.237408        1.000000        0.00023524        0.00039039        0.00018064        0.00113818
     117         -0.236306        1.000000        0.00007714        0.00020625        0.00015107        0.00018033
     118         -0.234850        1.000000        0.00018406        0.00022360        0.00026033        0.00018579
     119         -0.232747        1.000000        0.00015727        0.00078838        0.00019849        0.00012566
     120         -0.230387        1.000000        0.00018860        0.00014515        0.00062743        0.00104312
     121         -0.228205        1.000000        0.00055019        0.00034356        0.00179175        0.00017391
     122         -0.227356        1.000000        0.00042308        0.00107376        0.00010208        0.00060957
     123         -0.225764        1.000000        0.00005703        0.00038993        0.00021190        0.00057341
     124         -0.224677        1.000000        0.00036807        0.00037405        0.00039231        0.00010408
     125         -0.222656        1.000000        0.00023468        0.00034393        0.00012035        0.00010345
     126         -0.219947        1.000000        0.00014688        0.00033878        0.00056618        0.00025554
     127         -0.219243        1.000000        0.00031936        0.00058246        0.00110148        0.00061122
     128         -0.217921        1.000000        0.00021901        0.00067810        0.00015151        0.00043437
     129         -0.216695        1.000000        0.00032600        0.00047167        0.00025640        0.00030806
     130         -0.215074        1.000000        0.00008425        0.00093156        0.00050947        0.00084330
     131         -0.213986        1.000000        0.00103355        0.00075427        0.00011647        0.00045715
     132         -0.213372        1.000000        0.00023979        0.00093490        0.00035059        0.00064117
     133         -0.212640        1.000000        0.00020411        0.00050190        0.00024891        0.00035015
     134         -0.210777        1.000000        0.00020572        0.00101494        0.00038742        0.00015710
     135         -0.209838        1.000000        0.00015074        0.00066810        0.00018900        0.00005960
     136         -0.208791        1.000000        0.00026305        0.00057075        0.00019493        0.00029394
     137         -0.208087        1.000000        0.00017327        0.00034855        0.00010967        0.00011657
     138         -0.207740        1.000000        0.00029893        0.00082117        0.00025634        0.00022245
     139         -0.207178        1.000000        0.00019010        0.00046981        0.00049267        0.00028910
     140         -0.206027        1.000000        0.00004173        0.00014778        0.00058050        0.00008077
     141         -0.205695        1.000000        0.00018554        0.00005539        0.00015608        0.00008621
     142         -0.204755        1.000000        0.00011272        0.00050373        0.00053388        0.00006462
     143         -0.202863        1.000000        0.00014630        0.00014292        0.00047204        0.00008667
     144         -0.202437        1.000000        0.00009372        0.00037872        0.00010307        0.00037082
     145         -0.202330        1.000000        0.00012985        0.00028536        0.00061463        0.00013643
     146         -0.201813        1.000000        0.00010301        0.00003514        0.00004246        0.00023930
     147         -0.200965        1.000000        0.00005156        0.00005032        0.00012061        0.00006655
     148         -0.200683        1.000000        0.00010648        0.00042376        0.00020695        0.00023466
     149         -0.199416        1.000000        0.00011690        0.00018672        0.00012907        0.00012816
     150         -0.198579        1.000000        0.00005896        0.00005481        0.00014188        0.00008077
     151         -0.198306        1.000000        0.00008932        0.00020127        0.00005741        0.00027566
     152         -0.196377        1.000000        0.00009240        0.00012756        0.00008511        0.00039827
     153         -0.196047        1.000000        0.00008005        0.00011991        0.00013595        0.00004007
     154         -0.195470        1.000000        0.00002004        0.00039084        0.00018627        0.00007802
     155         -0.195040        1.000000        0.00012385        0.00009700        0.00024955        0.00007488
     156         -0.194168        1.000000        0.00006905        0.00020287        0.00010220        0.00007899
     157         -0.193544        1.000000        0.00004494        0.00025983        0.00010720        0.00008901
     158         -0.192740        1.000000        0.00004399        0.00022368        0.00015206        0.00013224
     159         -0.192354        1.000000        0.00002264        0.00010590        0.00005386        0.00013177
     160         -0.192078        1.000000        0.00004025        0.00012861        0.00016217        0.00015021
     161         -0.191752        1.000000        0.00008351        0.00008888        0.00009504        0.00009622
     162         -0.191479        1.000000        0.00010150        0.00018301        0.00019739        0.00012647
     163         -0.191002        1.000000        0.00011928        0.00007146        0.00015357        0.00017489
     164         -0.190723        1.000000        0.00003842        0.00014951        0.00004334        0.00004702
     165         -0.190597        1.000000        0.00005647        0.00016021        0.00025517        0.00006747
     166         -0.190386        1.000000        0.00006048        0.00012886        0.00010381        0.00041745
     167         -0.190119        1.000000        0.00004158        0.00019607        0.00009963        0.00007015
     168         -0.189669        1.000000        0.00003643        0.00026790        0.00014600        0.00014865
     169         -0.188615        1.000000        0.00008520        0.00009282        0.00009629        0.00010608
     170         -0.188201        1.000000        0.00008481        0.00020364        0.00015791        0.00020569
     171         -0.187972        1.000000        0.00018475        0.00012299        0.00021061        0.00003479
     172         -0.187312        1.000000        0.00006846        0.00016044        0.00008164        0.00008440
     173         -0.186940        1.000000        0.00010914        0.00010162        0.00012581        0.00020689
     174         -0.186547        1.000000        0.00001104        0.00015956        0.00005542        0.00006848
     175         -0.186195        1.000000        0.00003740        0.00002570        0.00013762        0.00003601
     176         -0.185810        1.000000        0.00016688        0.00002205        0.00006513        0.00009469
     177         -0.185286        1.000000        0.00001232        0.00005465        0.00004362        0.00014868
     178         -0.184973        1.000000        0.00003965        0.00009088        0.00025201        0.00007021
     179         -0.184738        1.000000        0.00003532        0.00002158        0.00009403        0.00023223
     180         -0.184422        1.000000        0.00004580        0.00003411        0.00009960        0.00002633
     181         -0.184248        1.000000        0.00022506        0.00012335        0.00003270        0.00001979
     182         -0.184030        1.000000        0.00007513        0.00019633        0.00005009        0.00002702
     183         -0.183891        1.000000        0.00001297        0.00013419        0.00017345        0.00004117
     184         -0.183711        1.000000        0.00002174        0.00006635        0.00002891        0.00009693
     185         -0.183565        1.000000        0.00003273        0.00008209        0.00004493        0.00002861
     186         -0.183197        1.000000        0.00002279        0.00000877        0.00002574        0.00006916
     187         -0.183185        1.000000        0.00005777        0.00019780        0.00003797        0.00004294
     188         -0.182684        1.000000        0.00001918        0.00003215        0.00005209        0.00002981
     189         -0.182539        1.000000        0.00002847        0.00003453        0.00003716        0.00004617
     190         -0.181817        1.000000        0.00001503        0.00004540        0.00002511        0.00013337
     191         -0.181621        1.000000        0.00002195        0.00010046        0.00014714        0.00018856
     192         -0.181369        1.000000        0.00000881        0.00004253        0.00002661        0.00003139
     193         -0.181174        1.000000        0.00014445        0.00005757        0.00001288        0.00006180
     194         -0.181037        1.000000        0.00002344        0.00003756        0.00000899        0.00004428
     195         -0.180909        1.000000        0.00001298        0.00003749        0.00005207        0.00007956
     196         -0.180875        0.000000        0.00001282        0.00005193        0.00004369        0.00013134
     197         -0.180645        0.000000        0.00001913        0.00003489        0.00001933        0.00000845
     198         -0.180478        0.000000        0.00002419        0.00002449        0.00000975        0.00004755
     199         -0.180075        0.000000        0.00000598        0.00006395        0.00001375        0.00002373
     200         -0.179749        0.000000        0.00001097        0.00005344        0.00001315        0.00001114
     201         -0.164491        0.000000        0.00001508        0.00005005        0.00000733        0.00000836
     202         -0.073434        0.000000        0.00001200        0.00002929        0.00002653        0.00008853
     203         -0.069804        0.000000        0.00005225        0.00003001        0.00011886        0.00003187
     204         -0.065374        0.000000        0.00002371        0.00002856        0.00000761        0.00007541
     205         -0.062727        0.000000        0.00001728        0.00002282        0.00000715        0.00001926
     206         -0.058440        0.000000        0.00000717        0.00001177        0.00001226        0.00001498
     207         -0.056312        0.000000        0.00001717        0.00000295        0.00002560        0.00001465
     208         -0.055536        0.000000        0.00000977        0.00001115        0.00000780        0.00001169
     209         -0.053591        0.000000        0.00001897        0.00000929        0.00001514        0.00005531
     210         -0.049137        0.000000        0.00005057        0.00008149        0.00000699        0.00001404
     211         -0.047345        0.000000        0.00003258        0.00003483        0.00004192        0.00001994
     212         -0.045041        0.000000        0.00005482        0.00002577        0.00001696        0.00002474
     213         -0.044031        0.000000        0.00001901        0.00001191        0.00003877        0.00003267
     214         -0.043545        0.000000        0.00001992        0.00001261        0.00002160        0.00000456
     215         -0.041505        0.000000        0.00003152        0.00000885        0.00006180        0.00008392
     216         -0.037831        0.000000        0.00002041        0.00003040        0.00000502        0.00002134
     217         -0.032079        0.000000        0.00002307        0.00003844        0.00001705        0.00006095
     218         -0.030146        0.000000        0.00000786        0.00003371        0.00000539        0.00002387
     219         -0.027258        0.000000        0.00001425        0.00002142        0.00002201        0.00005061
     220         -0.023899        0.000000        0.00002465        0.00000709        0.00001684        0.00004664
     221         -0.021437        0.000000        0.00003284        0.00006267        0.00003114        0.00001966
     222         -0.019857        0.000000        0.00001849        0.00001683        0.00000345        0.00002244
     223         -0.018492        0.000000        0.00001225        0.00000289        0.00001260        0.00002706
     224         -0.011647        0.000000        0.00001292        0.00000872        0.00001412        0.00004909
     225         -0.008132        0.000000        0.00001184        0.00000737        0.00001957        0.00002563
     226          0.084657        0.000000        0.08636313        0.01343119        0.02122193        0.51786065
     227          0.090423        0.000000        0.08444416        0.00936412        0.24113286        0.29249087
     228          0.099770        0.000000        0.08156234        0.01364808        0.07118536        0.46287236
     229          0.102821        0.000000        0.08351143        0.06390982        0.24199569        0.24247320
     230          0.104148        0.000000        0.07886578        0.06207938        0.01512646        0.47149999
     231          0.105506        0.000000        0.08350908        0.20658017        0.17140981        0.17248253
     232          0.107690        0.000000        0.07886563        0.00047040        0.15616177        0.39452544
     233          0.166114        0.000000        0.00045108        0.00032963        0.00005692        0.00001244
     234          0.170759        0.000000        0.00194444        0.00022706        0.00142772        0.00023342
     235          0.203710        0.000000        0.00155675        0.00142081        0.00011382        0.00057916
     236          0.233361        0.000000        0.00299522        0.00012048        0.00134363        0.00302452
     237          0.252611        0.000000        0.00096652        0.00066970        0.00000547        0.00373368
     238          0.282184        0.000000        0.00004753        0.00054389        0.00373068        0.00402642
     239          0.283651        0.000000        0.00183564        0.00156831        0.00319468        0.00002282
     240          0.288221        0.000000        0.00000699        0.00020778        0.00711621        0.00024183
     241          0.291388        0.000000        0.00001508        0.00237402        0.00304137        0.00064487
     242          0.292701        0.000000        0.00003073        0.00574479        0.00061948        0.00035919
     243          0.294195        0.000000        0.00011387        0.00751350        0.00005860        0.00011328
     244          0.294954        0.000000        0.00001532        0.00410743        0.00119783        0.00108091
     245          0.298972        0.000000        0.00025180        0.00260601        0.00692044        0.00006725
     246          0.301210        0.000000        0.00004610        0.00116151        0.00689013        0.00051921
     247          0.306712        0.000000        0.00001931        0.00397125        0.00296862        0.00067934
     248          0.323268        0.000000        0.00378321        0.00531949        0.00035639        0.00000451
     249          0.325426        0.000000        0.00345150        0.00000915        0.00181601        0.00234873
     250          0.327936        0.000000        0.00379314        0.00120828        0.00003618        0.00162002
     251          0.336170        0.000000        0.00542877        0.00001732        0.00027803        0.00004452
     252          0.337400        0.000000        0.00505455        0.00005317        0.00004637        0.00010539
     253          0.344624        0.000000        0.00562322        0.00000454        0.00008903        0.00004408
     254          0.442053        0.000000        0.00001243        0.26602207        0.04469096        0.07827708
     255          0.447581        0.000000        0.00052499        0.12590257        0.26361076        0.00284149
     256          0.450216        0.000000        0.00028616        0.11863207        0.17546553        0.09917428
     257          0.451349        0.000000        0.00105915        0.25612032        0.11251172        0.01915254
     258          0.459214        0.000000        0.00117835        0.29737452        0.03636096        0.05670264
     259          0.460240        0.000000        0.00001227        0.36766294        0.01216276        0.01217277