# Projected DOS for atomic kind C at iteration step i = 0, E(Fermi) =    -0.180627 a.u.
#     MO Eigenvalue [a.u.]      Occupation                 s                py                pz                px
       1         -0.978028        1.000000        0.05879541        0.00084642        0.00164735        0.04354444
       2         -0.957027        1.000000        0.06651667        0.00094699        0.01997690        0.02581780
       3         -0.951658        1.000000        0.06377455        0.00544106        0.02217976        0.01931338
       4         -0.945293        1.000000        0.05991861        0.00017257        0.00561906        0.03798007
       5         -0.944030        1.000000        0.06057409        0.01764260        0.01378571        0.01352411
       6         -0.943031        1.000000        0.06339918        0.00603691        0.00013895        0.03860503
       7         -0.935645        1.000000        0.06092796        0.00000415        0.01223679        0.03174784
       8         -0.709999        1.000000        0.42860165        0.00014434        0.00001145        0.00019204
       9         -0.703590        1.000000        0.43411344        0.00000278        0.00110153        0.00106569
      10         -0.691212        1.000000        0.43097152        0.00014343        0.00022775        0.00096303
      11         -0.690410        1.000000        0.43677404        0.00017629        0.00002378        0.00177586
      12         -0.689388        1.000000        0.43946251        0.00012250        0.00014061        0.00096227
      13         -0.683019        1.000000        0.43798845        0.00052223        0.00051751        0.00014180
      14         -0.681232        1.000000        0.43896770        0.00000078        0.00049908        0.00066445
      15         -0.638278        1.000000        0.00088867        0.00064311        0.00010219        0.00018001
      16         -0.617092        1.000000        0.00012197        0.00036208        0.00006995        0.00007503
      17         -0.609714        1.000000        0.00004712        0.00780176        0.03795804        0.00327520
      18         -0.600792        1.000000        0.00005759        0.00470035        0.00411219        0.00101768
      19         -0.596879        1.000000        0.00050473        0.00261764        0.00385926        0.00104725
      20         -0.593981        1.000000        0.00066551        0.00358823        0.00254352        0.00108399
      21         -0.592999        1.000000        0.00022051        0.00967093        0.00264584        0.00105464
      22         -0.590795        1.000000        0.00052529        0.01371988        0.00779549        0.00763072
      23         -0.587510        1.000000        0.00049063        0.00606711        0.00731601        0.00388720
      24         -0.586052        1.000000        0.00044653        0.00247351        0.00324054        0.00170733
      25         -0.585386        1.000000        0.00061548        0.01480079        0.00789553        0.00350651
      26         -0.584347        1.000000        0.00059545        0.01765902        0.00668273        0.00191132
      27         -0.583846        1.000000        0.00096651        0.02395543        0.00697269        0.00126616
      28         -0.582885        1.000000        0.00043796        0.00506359        0.00227021        0.00028175
      29         -0.581893        1.000000        0.00012973        0.00116698        0.00025522        0.00013576
      30         -0.581187        1.000000        0.00007414        0.04099383        0.00365056        0.00185772
      31         -0.579411        1.000000        0.00000152        0.00016562        0.00014187        0.00001066
      32         -0.577400        1.000000        0.00025104        0.00767001        0.00312602        0.00207207
      33         -0.576216        1.000000        0.00040917        0.00228061        0.00475793        0.00207107
      34         -0.571639        1.000000        0.00061787        0.01684043        0.00432446        0.00306271
      35         -0.571194        1.000000        0.00019403        0.00745883        0.00439472        0.00103448
      36         -0.570966        1.000000        0.00012198        0.00369363        0.00245160        0.00106129
      37         -0.570614        1.000000        0.00058674        0.00939598        0.01116544        0.00420035
      38         -0.569604        1.000000        0.00022004        0.00122318        0.00335240        0.00166976
      39         -0.568578        1.000000        0.00095955        0.00411235        0.01432746        0.00840954
      40         -0.567746        1.000000        0.00034888        0.01601118        0.02292679        0.00399549
      41         -0.566383        1.000000        0.00056504        0.00570594        0.01068381        0.00797578
      42         -0.565889        1.000000        0.00007365        0.01210328        0.01137125        0.00156767
      43         -0.564940        1.000000        0.00000477        0.00395640        0.00668604        0.00092729
      44         -0.563735        1.000000        0.00007488        0.00417832        0.00334433        0.00325873
      45         -0.563201        1.000000        0.00003259        0.01070341        0.01185760        0.01270695
      46         -0.563125        1.000000        0.00002958        0.01623009        0.00717883        0.01812619
      47         -0.561811        1.000000        0.00018345        0.00748327        0.00554640        0.00066206
      48         -0.561341        1.000000        0.00002881        0.00176608        0.00214347        0.00072654
      49         -0.561256        1.000000        0.00002087        0.00587958        0.00290344        0.00307811
      50         -0.560526        1.000000        0.00001628        0.00088849        0.00178914        0.00073878
      51         -0.559416        1.000000        0.00002202        0.01412762        0.00323494        0.00536066
      52         -0.559311        1.000000        0.00008980        0.00330514        0.00219697        0.00309654
      53         -0.559142        1.000000        0.00003020        0.02598430        0.00253097        0.00494104
      54         -0.557992        1.000000        0.00006409        0.00103231        0.00064332        0.00040222
      55         -0.557863        1.000000        0.00009782        0.00163267        0.00834260        0.00134045
      56         -0.557522        1.000000        0.00028823        0.00215526        0.03532012        0.00243580
      57         -0.555638        1.000000        0.00000177        0.00009744        0.00000825        0.00000955
      58         -0.554976        1.000000        0.00003695        0.00145130        0.00402670        0.00530477
      59         -0.554406        1.000000        0.00000397        0.00418929        0.00602141        0.00264720
      60         -0.553889        1.000000        0.00067147        0.01852273        0.01538736        0.00843398
      61         -0.553260        1.000000        0.00006036        0.00140321        0.00203342        0.00194259
      62         -0.551264        1.000000        0.00010111        0.00394549        0.01872929        0.00774184
      63         -0.548718        1.000000        0.00020023        0.00256376        0.00007512        0.00723580
      64         -0.544505        1.000000        0.00019229        0.03869835        0.01041734        0.00625332
      65         -0.498427        1.000000        0.03475430        0.01212922        0.00912187        0.31387632
      66         -0.485465        1.000000        0.02255887        0.00389550        0.14567259        0.19336054
      67         -0.475364        1.000000        0.02656227        0.03893487        0.14317753        0.15546552
      68         -0.471110        1.000000        0.02359498        0.01279882        0.03456378        0.29170526
      69         -0.469243        1.000000        0.02270934        0.02884044        0.01814512        0.29651090
      70         -0.466060        1.000000        0.02606555        0.13346979        0.11225148        0.09336342
      71         -0.461242        1.000000        0.02470475        0.00015862        0.10377909        0.23444143
      72         -0.459179        1.000000        0.00010270        0.00040704        0.00055118        0.00094453
      73         -0.456486        1.000000        0.00011330        0.00064007        0.00091885        0.00087514
      74         -0.454651        1.000000        0.00002047        0.00041734        0.00029094        0.00030067
      75         -0.453316        1.000000        0.00006352        0.00021262        0.00030479        0.00130170
      76         -0.450297        1.000000        0.00025544        0.00050046        0.00090486        0.00181427
      77         -0.449045        1.000000        0.00001957        0.00065940        0.00024562        0.00008912
      78         -0.448612        1.000000        0.00017289        0.00059478        0.00185254        0.00205359
      79         -0.444218        1.000000        0.00016084        0.00047067        0.00057744        0.00172841
      80         -0.421022        1.000000        0.00000227        0.20324249        0.21961877        0.10684317
      81         -0.419802        1.000000        0.00000011        0.06160043        0.46181357        0.02790203
      82         -0.417244        1.000000        0.00000031        0.31482128        0.08657668        0.12669984
      83         -0.416515        1.000000        0.00000019        0.45869333        0.06987716        0.00461943
      84         -0.409490        1.000000        0.00000347        0.04550505        0.47395898        0.00149652
      85         -0.406385        1.000000        0.00001840        0.40896401        0.05223524        0.06262590
      86         -0.405488        1.000000        0.00000408        0.28206305        0.21342850        0.03887249
      87         -0.405012        1.000000        0.00002225        0.14274849        0.34748807        0.04580886
      88         -0.403739        1.000000        0.00000661        0.19874661        0.07169107        0.26198973
      89         -0.403095        1.000000        0.00000195        0.39065561        0.10664473        0.03564967
      90         -0.399533        1.000000        0.00008054        0.02155754        0.16226783        0.34831968
      91         -0.398918        1.000000        0.00001011        0.04777089        0.33821452        0.14429149
      92         -0.395670        1.000000        0.00000225        0.48342877        0.03473476        0.01157614
      93         -0.395295        1.000000        0.00001011        0.30661627        0.20795099        0.02841603
      94         -0.317867        1.000000        0.00006922        0.00058537        0.00020872        0.00015659
      95         -0.291815        1.000000        0.00008393        0.00063296        0.00018285        0.00013713
      96         -0.276898        1.000000        0.00008477        0.00009103        0.00024434        0.00006890
      97         -0.272686        1.000000        0.00001315        0.00001581        0.00011283        0.00005410
      98         -0.269701        1.000000        0.00006745        0.00025906        0.00017728        0.00079046
      99         -0.269078        1.000000        0.00006520        0.00033496        0.00029339        0.00027172
     100         -0.265324        1.000000        0.00017428        0.00037730        0.00028374        0.00023139
     101         -0.264332        1.000000        0.00004016        0.00024946        0.00004332        0.00025630
     102         -0.262773        1.000000        0.00019458        0.00011651        0.00004974        0.00045443
     103         -0.260760        1.000000        0.00006841        0.00021649        0.00016544        0.00055137
     104         -0.260360        1.000000        0.00004381        0.00056126        0.00007763        0.00015644
     105         -0.257268        1.000000        0.00001732        0.00073086        0.00004583        0.00009743
     106         -0.255110        1.000000        0.00003161        0.00016683        0.00012404        0.00005707
     107         -0.252852        1.000000        0.00023509        0.00117004        0.00007059        0.00050615
     108         -0.250409        1.000000        0.00029180        0.00070750        0.00005063        0.00020843
     109         -0.248290        1.000000        0.00010339        0.00010635        0.00017558        0.00042194
     110         -0.243654        1.000000        0.00021776        0.00005762        0.00018125        0.00049375
     111         -0.243270        1.000000        0.00041614        0.00060433        0.00038105        0.00044284
     112         -0.241784        1.000000        0.00014692        0.00017104        0.00015338        0.00039035
     113         -0.240968        1.000000        0.00025389        0.00035223        0.00038181        0.00022192
     114         -0.239574        1.000000        0.00027791        0.00066198        0.00033268        0.00046942
     115         -0.237676        1.000000        0.00046037        0.00034200        0.00051902        0.00154141
     116         -0.236777        1.000000        0.00024293        0.00039470        0.00018992        0.00114551
     117         -0.235339        1.000000        0.00009460        0.00019854        0.00017577        0.00014409
     118         -0.234104        1.000000        0.00017324        0.00020873        0.00025898        0.00015733
     119         -0.232089        1.000000        0.00017055        0.00077346        0.00018623        0.00014346
     120         -0.229716        1.000000        0.00025539        0.00017246        0.00080926        0.00092913
     121         -0.227717        1.000000        0.00050381        0.00039313        0.00162815        0.00027347
     122         -0.226720        1.000000        0.00040562        0.00105077        0.00011279        0.00062350
     123         -0.224786        1.000000        0.00009749        0.00043186        0.00015177        0.00047621
     124         -0.223806        1.000000        0.00033229        0.00031811        0.00044099        0.00023307
     125         -0.221569        1.000000        0.00023681        0.00049679        0.00020667        0.00010414
     126         -0.219490        1.000000        0.00012432        0.00029239        0.00043804        0.00029444
     127         -0.218437        1.000000        0.00034434        0.00058794        0.00109970        0.00067115
     128         -0.216934        1.000000        0.00022775        0.00069628        0.00015706        0.00044512
     129         -0.215596        1.000000        0.00037655        0.00045762        0.00024673        0.00028506
     130         -0.214313        1.000000        0.00005349        0.00084542        0.00065787        0.00089852
     131         -0.213518        1.000000        0.00038221        0.00018430        0.00017119        0.00044428
     132         -0.213307        1.000000        0.00073785        0.00152959        0.00013202        0.00043898
     133         -0.211881        1.000000        0.00023893        0.00054294        0.00025904        0.00033210
     134         -0.210345        1.000000        0.00025815        0.00135451        0.00042779        0.00018742
     135         -0.208912        1.000000        0.00022897        0.00049621        0.00014852        0.00007799
     136         -0.208253        1.000000        0.00024237        0.00035370        0.00015457        0.00029399
     137         -0.208079        1.000000        0.00008727        0.00031984        0.00006636        0.00008952
     138         -0.206836        1.000000        0.00017084        0.00042064        0.00011417        0.00018692
     139         -0.206540        1.000000        0.00022447        0.00055218        0.00088062        0.00027647
     140         -0.205598        1.000000        0.00014339        0.00033332        0.00032820        0.00009130
     141         -0.204974        1.000000        0.00012742        0.00016141        0.00009145        0.00012011
     142         -0.203854        1.000000        0.00012512        0.00046021        0.00077970        0.00008316
     143         -0.202174        1.000000        0.00009745        0.00013077        0.00028291        0.00005633
     144         -0.201720        1.000000        0.00013667        0.00016392        0.00006531        0.00006692
     145         -0.201458        1.000000        0.00019207        0.00023638        0.00011957        0.00030988
     146         -0.201100        1.000000        0.00008171        0.00037343        0.00073885        0.00030618
     147         -0.200107        1.000000        0.00011626        0.00011622        0.00007853        0.00015907
     148         -0.199441        1.000000        0.00004085        0.00004599        0.00006966        0.00003733
     149         -0.199065        1.000000        0.00001635        0.00004428        0.00011302        0.00010318
     150         -0.197888        1.000000        0.00001779        0.00010499        0.00008010        0.00012280
     151         -0.197099        1.000000        0.00004815        0.00060778        0.00015221        0.00008882
     152         -0.196670        1.000000        0.00011902        0.00021129        0.00017230        0.00018645
     153         -0.196390        1.000000        0.00009933        0.00021745        0.00016925        0.00015212
     154         -0.195438        1.000000        0.00006426        0.00007831        0.00011739        0.00010884
     155         -0.194728        1.000000        0.00000892        0.00010810        0.00005000        0.00010833
     156         -0.194638        1.000000        0.00010768        0.00008636        0.00018279        0.00014740
     157         -0.194165        1.000000        0.00007236        0.00012001        0.00010812        0.00015440
     158         -0.193597        1.000000        0.00003597        0.00022834        0.00004684        0.00005737
     159         -0.192693        1.000000        0.00003216        0.00021412        0.00006733        0.00007096
     160         -0.191697        1.000000        0.00009918        0.00009215        0.00035932        0.00002796
     161         -0.191352        1.000000        0.00001645        0.00002092        0.00008844        0.00024415
     162         -0.191149        1.000000        0.00002521        0.00005509        0.00007735        0.00005831
     163         -0.190877        1.000000        0.00004448        0.00015385        0.00007487        0.00029803
     164         -0.190357        1.000000        0.00005356        0.00012853        0.00013651        0.00011516
     165         -0.190038        1.000000        0.00015428        0.00011723        0.00008669        0.00007721
     166         -0.189781        1.000000        0.00002112        0.00004024        0.00002371        0.00017477
     167         -0.189602        1.000000        0.00005876        0.00027299        0.00010369        0.00011943
     168         -0.189259        1.000000        0.00002460        0.00018895        0.00031907        0.00005780
     169         -0.188840        1.000000        0.00018570        0.00018379        0.00005264        0.00003174
     170         -0.188594        1.000000        0.00007215        0.00027753        0.00024193        0.00015523
     171         -0.187728        1.000000        0.00010265        0.00011167        0.00016266        0.00013192
     172         -0.187023        1.000000        0.00011434        0.00005706        0.00008982        0.00015092
     173         -0.186822        1.000000        0.00005247        0.00017526        0.00024766        0.00019487
     174         -0.186565        1.000000        0.00002723        0.00011814        0.00008837        0.00003513
     175         -0.186110        1.000000        0.00001789        0.00008020        0.00004546        0.00012935
     176         -0.185995        1.000000        0.00004156        0.00021430        0.00007403        0.00034206
     177         -0.185471        1.000000        0.00003119        0.00007601        0.00013790        0.00000713
     178         -0.185402        1.000000        0.00013272        0.00006163        0.00003202        0.00013354
     179         -0.184964        1.000000        0.00007347        0.00015406        0.00007602        0.00004838
     180         -0.184722        1.000000        0.00006524        0.00007233        0.00019381        0.00002626
     181         -0.183908        1.000000        0.00003928        0.00003686        0.00006995        0.00007022
     182         -0.183833        1.000000        0.00023482        0.00011278        0.00010187        0.00015093
     183         -0.183427        1.000000        0.00008968        0.00004111        0.00001117        0.00012862
     184         -0.183381        1.000000        0.00009762        0.00013747        0.00002514        0.00012382
     185         -0.183112        1.000000        0.00002590        0.00005257        0.00003215        0.00006403
     186         -0.182956        1.000000        0.00003028        0.00008363        0.00006197        0.00004033
     187         -0.182774        1.000000        0.00002257        0.00004101        0.00005500        0.00008705
     188         -0.182577        1.000000        0.00004445        0.00003321        0.00003154        0.00013186
     189         -0.182482        1.000000        0.00005077        0.00005806        0.00008210        0.00004745
     190         -0.182164        1.000000        0.00000698        0.00001144        0.00000755        0.00007676
     191         -0.181982        1.000000        0.00003589        0.00006184        0.00003746        0.00001358
     192         -0.181605        1.000000        0.00002982        0.00002611        0.00005681        0.00007827
     193         -0.181099        1.000000        0.00003382        0.00005122        0.00002063        0.00005842
     194         -0.180627        1.000000        0.00001132        0.00007820        0.00009077        0.00010968
     195         -0.180579        0.000000        0.00001226        0.00010883        0.00014140        0.00013520
     196         -0.180280        0.000000        0.00003673        0.00003947        0.00004267        0.00000855
     197         -0.179455        0.000000        0.00003641        0.00006400        0.00002671        0.00004626
     198         -0.179057        0.000000        0.00003722        0.00020083        0.00003679        0.00002842
     199         -0.178888        0.000000        0.00005160        0.00007956        0.00001309        0.00012532
     200         -0.178402        0.000000        0.00001620        0.00002585        0.00006742        0.00002768
     201         -0.164360        0.000000        0.00001520        0.00004914        0.00000685        0.00000841
     202         -0.072945        0.000000        0.00001225        0.00002845        0.00002573        0.00008884
     203         -0.069350        0.000000        0.00005117        0.00002937        0.00011688        0.00003248
     204         -0.065029        0.000000        0.00002457        0.00002919        0.00000825        0.00007629
     205         -0.062452        0.000000        0.00001715        0.00002298        0.00000726        0.00001819
     206         -0.058243        0.000000        0.00000712        0.00001167        0.00001214        0.00001441
     207         -0.055913        0.000000        0.00001718        0.00000304        0.00002594        0.00001507
     208         -0.055172        0.000000        0.00000972        0.00001159        0.00000796        0.00001177
     209         -0.053249        0.000000        0.00001956        0.00000969        0.00001465        0.00005451
     210         -0.048843        0.000000        0.00005138        0.00007973        0.00000754        0.00001473
     211         -0.046832        0.000000        0.00003064        0.00003635        0.00004049        0.00001910
     212         -0.044702        0.000000        0.00005611        0.00002337        0.00001651        0.00002359
     213         -0.043508        0.000000        0.00003078        0.00000763        0.00005118        0.00003324
     214         -0.043120        0.000000        0.00000889        0.00001789        0.00001923        0.00001928
     215         -0.040756        0.000000        0.00003157        0.00000863        0.00005607        0.00007135
     216         -0.036862        0.000000        0.00002065        0.00003060        0.00000487        0.00002203
     217         -0.031597        0.000000        0.00002438        0.00004134        0.00001585        0.00006637
     218         -0.029232        0.000000        0.00000572        0.00003255        0.00000607        0.00001773
     219         -0.026870        0.000000        0.00001451        0.00001956        0.00002262        0.00005143
     220         -0.023511        0.000000        0.00002479        0.00000722        0.00001722        0.00004634
     221         -0.020374        0.000000        0.00003190        0.00006283        0.00003118        0.00002006
     222         -0.019128        0.000000        0.00001939        0.00001812        0.00000332        0.00002324
     223         -0.017825        0.000000        0.00001296        0.00000306        0.00001231        0.00002634
     224         -0.011030        0.000000        0.00001297        0.00000879        0.00001500        0.00005116
     225         -0.007834        0.000000        0.00001105        0.00000682        0.00001975        0.00002408
     226          0.084797        0.000000        0.08637426        0.01343415        0.02122437        0.51791282
     227          0.090575        0.000000        0.08445686        0.00936592        0.24114750        0.29251725
     228          0.099920        0.000000        0.08157975        0.01351265        0.07134227        0.46289965
     229          0.102980        0.000000        0.08352340        0.06390511        0.24213722        0.24241048
     230          0.104332        0.000000        0.07886733        0.06224566        0.01487499        0.47166533
     231          0.105665        0.000000        0.08352101        0.20659738        0.17143050        0.17250002
     232          0.107867        0.000000        0.07887362        0.00047201        0.15618752        0.39459984
     233          0.166266        0.000000        0.00045081        0.00033025        0.00005692        0.00001241
     234          0.170928        0.000000        0.00194220        0.00022635        0.00142405        0.00023230
     235          0.203916        0.000000        0.00155406        0.00142114        0.00011252        0.00057635
     236          0.233526        0.000000        0.00299392        0.00012037        0.00134549        0.00302095
     237          0.252851        0.000000        0.00096512        0.00067175        0.00000536        0.00373942
     238          0.282350        0.000000        0.00004763        0.00054467        0.00373167        0.00402618
     239          0.283829        0.000000        0.00183630        0.00157044        0.00319648        0.00002297
     240          0.288359        0.000000        0.00000762        0.00021105        0.00711099        0.00024007
     241          0.291556        0.000000        0.00001487        0.00237523        0.00303648        0.00064227
     242          0.292872        0.000000        0.00003081        0.00574463        0.00062007        0.00035902
     243          0.294416        0.000000        0.00011357        0.00751481        0.00006072        0.00011377
     244          0.295123        0.000000        0.00001514        0.00411900        0.00118031        0.00107854
     245          0.299204        0.000000        0.00024923        0.00260357        0.00692878        0.00006471
     246          0.301391        0.000000        0.00004638        0.00117271        0.00688060        0.00052089
     247          0.306877        0.000000        0.00001944        0.00393977        0.00299158        0.00068413
     248          0.323435        0.000000        0.00378121        0.00531780        0.00035653        0.00000453
     249          0.325597        0.000000        0.00344964        0.00000909        0.00181563        0.00234686
     250          0.328161        0.000000        0.00379744        0.00119925        0.00003685        0.00162716
     251          0.336334        0.000000        0.00542708        0.00001750        0.00027235        0.00004472
     252          0.337581        0.000000        0.00505227        0.00005306        0.00004648        0.00010527
     253          0.344807        0.000000        0.00561989        0.00000455        0.00008931        0.00004379
     254          0.442201        0.000000        0.00001248        0.26609863        0.04466056        0.07824234
     255          0.447701        0.000000        0.00052138        0.12598349        0.26357100        0.00283516
     256          0.450361        0.000000        0.00028756        0.11856667        0.17552312        0.09919980
     257          0.451460        0.000000        0.00105525        0.25610228        0.11258136        0.01916314
     258          0.459385        0.000000        0.00117798        0.29726071        0.03652101        0.05668715
     259          0.460392        0.000000        0.00001217        0.36787959        0.01201081        0.01210926