# Projected DOS for atomic kind N at iteration step i = 0, E(Fermi) =    -0.180909 a.u.
#     MO Eigenvalue [a.u.]      Occupation                 s                py                pz                px
       1         -0.978171        1.000000        0.62534987        0.00003421        0.00000020        0.00015300
       2         -0.957199        1.000000        0.61544329        0.00028173        0.00000037        0.00001890
       3         -0.951817        1.000000        0.62007608        0.00002699        0.00018165        0.00022353
       4         -0.945466        1.000000        0.61221639        0.00007206        0.00000454        0.00017974
       5         -0.944220        1.000000        0.61625219        0.00003990        0.00015288        0.00009900
       6         -0.943219        1.000000        0.61017376        0.00016079        0.00002437        0.00000081
       7         -0.935816        1.000000        0.61276459        0.00007668        0.00004611        0.00007107
       8         -0.710152        1.000000        0.01435164        0.00917081        0.00756021        0.21027652
       9         -0.703756        1.000000        0.02102140        0.00086903        0.08714142        0.10545070
      10         -0.691390        1.000000        0.01895688        0.02184606        0.07842797        0.10639803
      11         -0.690613        1.000000        0.01781805        0.02153059        0.00552263        0.16316282
      12         -0.689569        1.000000        0.01588509        0.00655121        0.02438778        0.16608460
      13         -0.683193        1.000000        0.01713712        0.07735235        0.06963072        0.05390706
      14         -0.681440        1.000000        0.01626224        0.00000275        0.05872715        0.13729821
      15         -0.638328        1.000000        0.00058833        0.00695258        0.00082738        0.00009591
      16         -0.617553        1.000000        0.00001079        0.00088784        0.00031012        0.00002389
      17         -0.609882        1.000000        0.00000439        0.09337468        0.48353934        0.03343429
      18         -0.601284        1.000000        0.00069232        0.04334221        0.03222171        0.00504955
      19         -0.597325        1.000000        0.00077749        0.01670231        0.03867484        0.00526110
      20         -0.594617        1.000000        0.00039357        0.02587887        0.03041451        0.00543835
      21         -0.593331        1.000000        0.00057987        0.08965608        0.03245813        0.00993901
      22         -0.591493        1.000000        0.00097556        0.10152236        0.08609144        0.03452691
      23         -0.588176        1.000000        0.00064042        0.04143850        0.04851792        0.04151696
      24         -0.587411        1.000000        0.00035313        0.01721783        0.03237713        0.00751628
      25         -0.585996        1.000000        0.00089327        0.09418570        0.05183433        0.05246685
      26         -0.585092        1.000000        0.00045372        0.08171519        0.04114697        0.03210253
      27         -0.584278        1.000000        0.00020666        0.37122599        0.07559863        0.00127173
      28         -0.583241        1.000000        0.00023381        0.08104115        0.02633759        0.00312478
      29         -0.582871        1.000000        0.00002740        0.00608675        0.00429275        0.00073798
      30         -0.581368        1.000000        0.00008616        0.41359278        0.03972290        0.01703675
      31         -0.579703        1.000000        0.00000419        0.00091539        0.00043162        0.00047873
      32         -0.577897        1.000000        0.00022420        0.05486216        0.05047035        0.00814119
      33         -0.576860        1.000000        0.00017655        0.05698126        0.04099031        0.01152413
      34         -0.572525        1.000000        0.00029558        0.14207082        0.01055485        0.02548809
      35         -0.572121        1.000000        0.00000710        0.01352315        0.00998339        0.00225920
      36         -0.571656        1.000000        0.00006861        0.06231109        0.01294295        0.00706293
      37         -0.571003        1.000000        0.00074460        0.08864887        0.10384833        0.07215253
      38         -0.569815        1.000000        0.00030087        0.00729395        0.02592983        0.02734967
      39         -0.569298        1.000000        0.00074150        0.02011562        0.11169464        0.09715971
      40         -0.568154        1.000000        0.00042346        0.15777373        0.26198950        0.03518684
      41         -0.566844        1.000000        0.00010439        0.09443313        0.10291900        0.01868949
      42         -0.566392        1.000000        0.00041351        0.04054654        0.09829372        0.09344759
      43         -0.566148        1.000000        0.00000969        0.00304745        0.01351192        0.00232595
      44         -0.564713        1.000000        0.00016045        0.09510175        0.01797279        0.00799096
      45         -0.563888        1.000000        0.00025017        0.11611758        0.14462843        0.05125906
      46         -0.563474        1.000000        0.00028160        0.15028861        0.02678176        0.24114816
      47         -0.562868        1.000000        0.00029988        0.06676678        0.10769220        0.01959613
      48         -0.561831        1.000000        0.00000552        0.07195976        0.03251663        0.04520533
      49         -0.561543        1.000000        0.00000276        0.00297912        0.00471289        0.00291838
      50         -0.560215        1.000000        0.00003336        0.03149600        0.03418769        0.01372328
      51         -0.559575        1.000000        0.00026073        0.27283390        0.02194508        0.05807505
      52         -0.559180        1.000000        0.00002876        0.02469950        0.01067005        0.02250610
      53         -0.559092        1.000000        0.00007339        0.04514625        0.01657464        0.02459634
      54         -0.558549        1.000000        0.00002253        0.01750494        0.00078264        0.00232637
      55         -0.558208        1.000000        0.00005086        0.01759632        0.08819257        0.00678705
      56         -0.557964        1.000000        0.00026071        0.00868572        0.29060995        0.01043085
      57         -0.556393        1.000000        0.00000073        0.00109654        0.00013609        0.00033232
      58         -0.555617        1.000000        0.00004563        0.00734286        0.01918322        0.01399849
      59         -0.554606        1.000000        0.00003715        0.03258085        0.04806895        0.01739035
      60         -0.554389        1.000000        0.00012508        0.04198600        0.07418808        0.04840504
      61         -0.554093        1.000000        0.00025005        0.14661650        0.13255059        0.02956131
      62         -0.552227        1.000000        0.00005024        0.05079338        0.18283821        0.05484958
      63         -0.549831        1.000000        0.00038573        0.03722298        0.00354986        0.06133206
      64         -0.544966        1.000000        0.00030128        0.31856744        0.10728453        0.03498579
      65         -0.498563        1.000000        0.00936600        0.00200024        0.02039408        0.39776843
      66         -0.485627        1.000000        0.00620823        0.01789345        0.18221393        0.24144756
      67         -0.475526        1.000000        0.00644127        0.05513095        0.23749996        0.14468475
      68         -0.471291        1.000000        0.00928220        0.01750635        0.02846497        0.38163959
      69         -0.469432        1.000000        0.00841078        0.04149696        0.01226736        0.38333469
      70         -0.466235        1.000000        0.00791407        0.18407371        0.12211307        0.12873758
      71         -0.461444        1.000000        0.00942318        0.00012968        0.11218050        0.31472473
      72         -0.459668        1.000000        0.00002877        0.00025080        0.00037859        0.00161472
      73         -0.457070        1.000000        0.00002209        0.00115217        0.00046301        0.00190154
      74         -0.455282        1.000000        0.00000416        0.00010413        0.00017282        0.00027390
      75         -0.454326        1.000000        0.00000307        0.00006963        0.00067412        0.00125606
      76         -0.451416        1.000000        0.00001317        0.00114965        0.00079016        0.00277494
      77         -0.449516        1.000000        0.00001085        0.00029779        0.00007928        0.00028273
      78         -0.448925        1.000000        0.00000524        0.00044430        0.00097153        0.00368153
      79         -0.444676        1.000000        0.00001423        0.00022030        0.00029983        0.00304523
      80         -0.421180        1.000000        0.00007045        0.01710746        0.01765103        0.00779964
      81         -0.419941        1.000000        0.00000552        0.00297077        0.02264992        0.00082786
      82         -0.417419        1.000000        0.00002293        0.02747014        0.00828305        0.00911311
      83         -0.416656        1.000000        0.00002180        0.03357284        0.00518195        0.00050770
      84         -0.409698        1.000000        0.00000860        0.00369621        0.03739128        0.00008742
      85         -0.406593        1.000000        0.00001812        0.03378243        0.00440566        0.00442288
      86         -0.405678        1.000000        0.00003268        0.01805855        0.01673739        0.00340906
      87         -0.405193        1.000000        0.00000115        0.00896110        0.02435205        0.00309456
      88         -0.403930        1.000000        0.00010271        0.01293302        0.00662668        0.01936305
      89         -0.403274        1.000000        0.00002696        0.02708720        0.00866717        0.00268193
      90         -0.399676        1.000000        0.00000584        0.00097241        0.01081001        0.02919415
      91         -0.399123        1.000000        0.00000161        0.00285952        0.02457852        0.01179705
      92         -0.395885        1.000000        0.00000481        0.03644007        0.00302214        0.00104022
      93         -0.395487        1.000000        0.00000631        0.01939185        0.01266570        0.00257057
      94         -0.317963        1.000000        0.00021386        0.00081238        0.00004734        0.00013508
      95         -0.292249        1.000000        0.00003109        0.00012450        0.00003991        0.00003700
      96         -0.277295        1.000000        0.00021605        0.00115919        0.00060865        0.00027666
      97         -0.273123        1.000000        0.00008525        0.00034882        0.00043954        0.00005269
      98         -0.270603        1.000000        0.00070880        0.00201248        0.00043573        0.00049233
      99         -0.269993        1.000000        0.00014353        0.00068422        0.00116382        0.00005276
     100         -0.266877        1.000000        0.00062766        0.00064697        0.00046728        0.00017127
     101         -0.265018        1.000000        0.00032101        0.00067077        0.00005564        0.00027503
     102         -0.263639        1.000000        0.00055011        0.00120107        0.00023570        0.00045617
     103         -0.261867        1.000000        0.00089753        0.00079319        0.00033029        0.00086116
     104         -0.261273        1.000000        0.00025461        0.00069534        0.00011838        0.00021048
     105         -0.257952        1.000000        0.00015219        0.00088288        0.00039918        0.00009867
     106         -0.255926        1.000000        0.00025427        0.00145079        0.00018076        0.00022646
     107         -0.253946        1.000000        0.00106181        0.00164729        0.00018336        0.00064765
     108         -0.251662        1.000000        0.00014956        0.00032862        0.00049642        0.00019688
     109         -0.249824        1.000000        0.00107669        0.00020898        0.00032246        0.00065996
     110         -0.244721        1.000000        0.00021521        0.00098146        0.00040540        0.00065879
     111         -0.244205        1.000000        0.00083318        0.00073248        0.00151671        0.00079547
     112         -0.242649        1.000000        0.00064698        0.00188273        0.00060523        0.00083560
     113         -0.242171        1.000000        0.00092938        0.00056258        0.00099016        0.00061152
     114         -0.240304        1.000000        0.00076768        0.00055990        0.00068773        0.00057013
     115         -0.238081        1.000000        0.00398030        0.00114980        0.00140457        0.00250649
     116         -0.237408        1.000000        0.00083218        0.00088903        0.00028346        0.00079773
     117         -0.236306        1.000000        0.00047510        0.00217241        0.00110070        0.00050925
     118         -0.234850        1.000000        0.00064155        0.00150235        0.00193925        0.00084988
     119         -0.232747        1.000000        0.00029450        0.00043968        0.00208031        0.00037015
     120         -0.230387        1.000000        0.00185001        0.00280369        0.00104888        0.00047727
     121         -0.228205        1.000000        0.00130722        0.00392119        0.00154001        0.00094230
     122         -0.227356        1.000000        0.00176130        0.00242871        0.00079031        0.00057019
     123         -0.225764        1.000000        0.00104384        0.00203629        0.00412696        0.00044283
     124         -0.224677        1.000000        0.00078819        0.00041886        0.00067876        0.00086120
     125         -0.222656        1.000000        0.00025518        0.00096900        0.00029211        0.00039900
     126         -0.219947        1.000000        0.00200359        0.00197311        0.00065704        0.00055180
     127         -0.219243        1.000000        0.00065443        0.00010521        0.00446150        0.00039086
     128         -0.217921        1.000000        0.00135656        0.00634740        0.00185634        0.00157529
     129         -0.216695        1.000000        0.00112418        0.00194706        0.00145788        0.00063663
     130         -0.215074        1.000000        0.00169045        0.00153026        0.00139242        0.00441564
     131         -0.213986        1.000000        0.00098084        0.00214056        0.00022259        0.00110301
     132         -0.213372        1.000000        0.00049204        0.00009699        0.00252057        0.00099627
     133         -0.212640        1.000000        0.00027929        0.00011007        0.00361656        0.00063156
     134         -0.210777        1.000000        0.00069774        0.00087804        0.00190470        0.00084058
     135         -0.209838        1.000000        0.00027828        0.00105009        0.00098720        0.00039290
     136         -0.208791        1.000000        0.00042236        0.00047105        0.00113704        0.00053181
     137         -0.208087        1.000000        0.00023871        0.00088912        0.00074066        0.00033359
     138         -0.207740        1.000000        0.00037920        0.00040544        0.00046903        0.00048216
     139         -0.207178        1.000000        0.00025984        0.00093668        0.00089048        0.00112145
     140         -0.206027        1.000000        0.00050619        0.00044539        0.00185755        0.00016357
     141         -0.205695        1.000000        0.00007552        0.00049617        0.00053019        0.00018194
     142         -0.204755        1.000000        0.00040797        0.00129682        0.00025820        0.00050430
     143         -0.202863        1.000000        0.00035850        0.00112669        0.00058668        0.00053381
     144         -0.202437        1.000000        0.00067172        0.00214062        0.00071421        0.00099960
     145         -0.202330        1.000000        0.00030983        0.00044058        0.00112198        0.00076552
     146         -0.201813        1.000000        0.00055187        0.00274584        0.00031152        0.00135703
     147         -0.200965        1.000000        0.00025724        0.00086783        0.00049896        0.00039723
     148         -0.200683        1.000000        0.00038779        0.00101566        0.00020298        0.00043779
     149         -0.199416        1.000000        0.00022835        0.00088354        0.00019114        0.00045349
     150         -0.198579        1.000000        0.00017990        0.00164486        0.00011235        0.00032163
     151         -0.198306        1.000000        0.00060068        0.00076941        0.00104446        0.00107413
     152         -0.196377        1.000000        0.00018469        0.00009339        0.00028222        0.00043712
     153         -0.196047        1.000000        0.00007916        0.00012037        0.00018777        0.00008727
     154         -0.195470        1.000000        0.00035847        0.00014056        0.00047759        0.00039257
     155         -0.195040        1.000000        0.00020607        0.00082877        0.00041207        0.00041582
     156         -0.194168        1.000000        0.00011629        0.00140306        0.00035339        0.00032730
     157         -0.193544        1.000000        0.00030955        0.00013954        0.00019811        0.00043642
     158         -0.192740        1.000000        0.00025409        0.00109462        0.00026776        0.00030105
     159         -0.192354        1.000000        0.00016352        0.00086797        0.00030428        0.00044788
     160         -0.192078        1.000000        0.00033162        0.00006411        0.00021658        0.00033248
     161         -0.191752        1.000000        0.00043701        0.00048013        0.00006474        0.00033334
     162         -0.191479        1.000000        0.00031602        0.00015946        0.00010542        0.00034512
     163         -0.191002        1.000000        0.00017216        0.00025786        0.00023761        0.00005435
     164         -0.190723        1.000000        0.00023104        0.00095985        0.00032243        0.00009933
     165         -0.190597        1.000000        0.00004292        0.00039883        0.00013650        0.00006599
     166         -0.190386        1.000000        0.00043438        0.00013314        0.00024510        0.00049857
     167         -0.190119        1.000000        0.00010143        0.00082890        0.00008842        0.00010778
     168         -0.189669        1.000000        0.00022878        0.00230218        0.00022290        0.00036948
     169         -0.188615        1.000000        0.00026400        0.00105833        0.00033899        0.00026703
     170         -0.188201        1.000000        0.00024683        0.00017273        0.00009106        0.00024148
     171         -0.187972        1.000000        0.00008510        0.00007124        0.00010025        0.00008270
     172         -0.187312        1.000000        0.00001352        0.00003949        0.00000961        0.00005560
     173         -0.186940        1.000000        0.00047149        0.00020941        0.00008658        0.00088045
     174         -0.186547        1.000000        0.00013015        0.00045371        0.00011659        0.00053110
     175         -0.186195        1.000000        0.00010852        0.00025072        0.00016195        0.00010611
     176         -0.185810        1.000000        0.00012509        0.00015061        0.00009655        0.00015516
     177         -0.185286        1.000000        0.00020453        0.00017073        0.00002270        0.00012948
     178         -0.184973        1.000000        0.00019003        0.00062525        0.00001527        0.00034806
     179         -0.184738        1.000000        0.00019777        0.00045663        0.00012453        0.00045698
     180         -0.184422        1.000000        0.00002641        0.00016642        0.00008540        0.00009423
     181         -0.184248        1.000000        0.00013170        0.00024316        0.00011995        0.00008736
     182         -0.184030        1.000000        0.00004285        0.00015166        0.00005998        0.00016795
     183         -0.183891        1.000000        0.00007414        0.00015373        0.00007094        0.00015919
     184         -0.183711        1.000000        0.00005165        0.00036427        0.00011810        0.00004363
     185         -0.183565        1.000000        0.00015149        0.00030069        0.00012731        0.00010947
     186         -0.183197        1.000000        0.00012752        0.00017381        0.00007950        0.00006058
     187         -0.183185        1.000000        0.00005819        0.00030537        0.00013981        0.00014565
     188         -0.182684        1.000000        0.00002029        0.00012585        0.00004026        0.00009965
     189         -0.182539        1.000000        0.00011058        0.00006329        0.00009164        0.00020157
     190         -0.181817        1.000000        0.00005113        0.00008146        0.00002243        0.00004265
     191         -0.181621        1.000000        0.00004184        0.00003127        0.00007085        0.00006201
     192         -0.181369        1.000000        0.00004167        0.00022439        0.00009790        0.00013656
     193         -0.181174        1.000000        0.00002248        0.00002654        0.00004890        0.00007296
     194         -0.181037        1.000000        0.00007344        0.00009290        0.00009627        0.00012728
     195         -0.180909        1.000000        0.00009180        0.00010935        0.00005294        0.00008036
     196         -0.180875        0.000000        0.00005407        0.00005798        0.00004741        0.00005069
     197         -0.180645        0.000000        0.00000352        0.00002285        0.00002304        0.00005621
     198         -0.180478        0.000000        0.00006347        0.00008436        0.00002305        0.00006043
     199         -0.180075        0.000000        0.00005024        0.00032116        0.00003651        0.00005319
     200         -0.179749        0.000000        0.00004381        0.00045479        0.00005022        0.00007548
     201         -0.164491        0.000000        0.00004220        0.00014949        0.00003507        0.00004845
     202         -0.073434        0.000000        0.00005888        0.00003005        0.00001164        0.00002369
     203         -0.069804        0.000000        0.00017455        0.00010180        0.00033463        0.00007292
     204         -0.065374        0.000000        0.00023868        0.00006073        0.00015524        0.00007609
     205         -0.062727        0.000000        0.00002512        0.00004184        0.00002910        0.00002171
     206         -0.058440        0.000000        0.00006670        0.00005348        0.00004573        0.00005915
     207         -0.056312        0.000000        0.00006726        0.00008660        0.00006311        0.00003091
     208         -0.055536        0.000000        0.00004150        0.00006032        0.00003343        0.00005692
     209         -0.053591        0.000000        0.00007592        0.00009290        0.00016684        0.00008551
     210         -0.049137        0.000000        0.00006448        0.00009475        0.00010774        0.00006596
     211         -0.047345        0.000000        0.00011532        0.00015481        0.00006915        0.00010552
     212         -0.045041        0.000000        0.00009800        0.00022346        0.00016087        0.00009204
     213         -0.044031        0.000000        0.00008609        0.00004066        0.00009403        0.00000575
     214         -0.043545        0.000000        0.00005240        0.00014076        0.00011065        0.00007712
     215         -0.041505        0.000000        0.00022164        0.00015293        0.00004270        0.00004302
     216         -0.037831        0.000000        0.00026993        0.00047016        0.00003428        0.00004429
     217         -0.032079        0.000000        0.00003542        0.00003926        0.00002981        0.00001266
     218         -0.030146        0.000000        0.00003012        0.00001705        0.00002834        0.00001161
     219         -0.027258        0.000000        0.00009792        0.00020743        0.00004226        0.00003478
     220         -0.023899        0.000000        0.00004885        0.00003407        0.00008626        0.00002479
     221         -0.021437        0.000000        0.00010184        0.00009192        0.00004068        0.00004718
     222         -0.019857        0.000000        0.00005237        0.00003215        0.00004382        0.00001367
     223         -0.018492        0.000000        0.00005315        0.00004040        0.00006704        0.00001432
     224         -0.011647        0.000000        0.00009695        0.00005672        0.00006987        0.00001634
     225         -0.008132        0.000000        0.00005938        0.00008531        0.00015380        0.00005208
     226          0.084657        0.000000        0.11902410        0.00266869        0.01446465        0.21707629
     227          0.090423        0.000000        0.10782250        0.00305505        0.11310079        0.14155825
     228          0.099770        0.000000        0.10401108        0.00545517        0.02395579        0.22934053
     229          0.102821        0.000000        0.11008179        0.02942632        0.10458155        0.11554980
     230          0.104148        0.000000        0.10093820        0.03241534        0.00474587        0.22681788
     231          0.105506        0.000000        0.10221473        0.11387452        0.07451578        0.06913255
     232          0.107690        0.000000        0.10469817        0.00024748        0.06791997        0.19028659
     233          0.166114        0.000000        0.03441223        0.25448448        0.02286681        0.02259590
     234          0.170759        0.000000        0.06128518        0.01552400        0.19998438        0.06014098
     235          0.203710        0.000000        0.05927022        0.26290056        0.00131187        0.01355092
     236          0.233361        0.000000        0.09268737        0.00738174        0.14001902        0.10176739
     237          0.252611        0.000000        0.03425201        0.00792325        0.02328424        0.26107589
     238          0.282184        0.000000        0.00016903        0.00264015        0.16515510        0.14372553
     239          0.283651        0.000000        0.10099631        0.06992648        0.15202950        0.01102118
     240          0.288221        0.000000        0.00177431        0.00060019        0.27591253        0.03835026
     241          0.291388        0.000000        0.00039479        0.13408249        0.13813766        0.04562906
     242          0.292701        0.000000        0.00155378        0.26771978        0.03513564        0.01506809
     243          0.294195        0.000000        0.00041183        0.31641296        0.00019909        0.00005527
     244          0.294954        0.000000        0.00045206        0.22534000        0.05056318        0.04070399
     245          0.298972        0.000000        0.00214158        0.12152142        0.19165893        0.00424519
     246          0.301210        0.000000        0.00078209        0.06070022        0.24686965        0.00502515
     247          0.306712        0.000000        0.00076308        0.16824691        0.11518825        0.03718218
     248          0.323268        0.000000        0.17663696        0.06126670        0.05554663        0.04006607
     249          0.325426        0.000000        0.17045899        0.01049118        0.00142602        0.15486035
     250          0.327936        0.000000        0.20909387        0.08469504        0.04500717        0.00213097
     251          0.336170        0.000000        0.24017515        0.00005398        0.02184209        0.08319085
     252          0.337400        0.000000        0.24448228        0.01630504        0.00088719        0.08385467
     253          0.344624        0.000000        0.24179914        0.00102681        0.02938765        0.07384529
     254          0.442053        0.000000        0.00074269        0.01390150        0.00268892        0.00841482
     255          0.447581        0.000000        0.00000333        0.00355069        0.01308756        0.00045434
     256          0.450216        0.000000        0.00037022        0.00650723        0.01386657        0.00370767
     257          0.451349        0.000000        0.00017561        0.01052256        0.00929825        0.00032517
     258          0.459214        0.000000        0.00004340        0.01833150        0.00214089        0.00306458
     259          0.460240        0.000000        0.00000813        0.02316484        0.00174335        0.00021523