100
Lattice="31.7900009155 0.0 0.0 0.0 31.0900001526 0.0 0.0 0.0 30.3899993896" Properties=species:S:1:pos:R:3 i=732 E=-2362.1781988058 pbc="F F F"
I       12.80041379      11.27359228       8.72400617
I       18.34625023      11.91103652       8.82519032
I       12.69948604      18.96327710       7.90074653
I       18.50197663      17.99877613       8.61898225
I       12.24986010       8.55775763      12.49000232
I       18.82682210       9.15435834      12.51297980
I        9.41570108      12.24906708      11.89849285
I       12.17168730      12.01321779      15.30585722
I       13.08550067      14.92118093      11.52475413
I       15.23171616      11.95869697      13.84248012
I       19.21330626      12.44562129      15.20352228
I       17.66467863      15.51986470      12.34188107
I       21.72990965      12.88816096      11.42243838
I        9.09201231      16.64014173      10.36920731
I       11.80159665      18.21736427      14.65196601
I       10.62471837      21.30892962      11.52912226
I       14.74008321      18.78286162      10.38750093
I       19.61588645      19.66514143      14.93686023
I       19.33175671      21.85722666      10.75873442
I       21.67840584      17.80063777      11.29118861
I       12.62997672       8.69037504      17.77625283
I       19.54100459       8.87618275      17.73786708
I        9.47813973      11.54466701      16.84175948
I       12.20228953      12.16980414      22.03770120
I       12.04560389      15.18608089      18.65496253
I       15.67031643      12.01019444      18.52418810
I       18.96434037      12.85111095      21.90671784
I       18.38386697      15.55383639      18.23116117
I       22.30377120      13.09727597      18.62511799
I        9.58803276      19.49963060      18.61559283
I       13.44793108      19.03174100      20.86726636
I       12.83435270      23.08470681      18.19666767
I       15.73694681      18.80818142      17.16473672
I       18.54898724      18.72690796      21.46860109
I       18.75948096      21.98028467      18.63668701
I       22.11640043      18.34590051      18.47728268
Pb      12.40698669      11.89355745      11.68959387
Pb      18.80333017      12.51768081      12.22341525
Pb      11.59710442      18.26766190      11.56262901
Pb      18.83476795      18.84042457      11.55328823
Pb      12.65595868      12.21359217      19.06970464
Pb      19.26711597      12.68935212      18.89326617
Pb      12.77186003      19.83217361      18.04578186
Pb      18.99651954      18.94609380      18.08868514
C       15.11841842      15.20987415       8.13655996
C       15.57363086       8.19353294      14.76458054
C        8.92773790      15.32511814      14.93639462
C       14.76506812      15.56052203      15.41500613
C       21.89540247      15.22672809      14.88873119
C       15.51108010      21.36976225      14.26581896
C       15.44202194      15.22869660      21.08876648
N       16.44558650      15.23072916       8.96796666
N       16.43754321       9.17070239      15.62522280
N       10.38266209      15.22448561      15.50415494
N       16.22074788      15.00122141      15.50740111
N       23.40175250      15.00465062      15.18674963
N       16.66601164      21.59645206      15.28568897
N       16.43796900      15.76180771      22.15716739
H       15.38417173      15.28035204       7.10786988
H       14.53138630      16.03967166       8.44630224
H       14.61549032      14.29599163       8.34148635
H       16.99277669      16.12284174       8.78443204
H       17.04616215      14.42355159       8.71731640
H       16.26281835      15.20061368       9.99455291
H       15.51473971       8.59592945      13.78454070
H       14.61393124       8.12115131      15.20855064
H       16.06086885       7.24662790      14.72322467
H       16.17060425      10.14784410      15.38499672
H       17.49028991       9.03241619      15.42500075
H       16.27509610       9.01834351      16.63208719
H        8.99700264      15.28015094      13.87654466
H        8.52574028      16.25557620      15.25419011
H        8.34503712      14.51778212      15.31513369
H       10.91534942      16.09733240      15.22555223
H       10.87410945      14.38976568      15.12635021
H       10.41855787      15.16142199      16.54534949
H       14.31504238      15.15287334      14.54260995
H       14.83052538      16.61835022      15.35332851
H       14.24976947      15.27363962      16.29860277
H       16.75433408      15.26841860      14.64233174
H       16.18937234      13.96356395      15.54157431
H       16.73083277      15.35127019      16.35587565
H       21.81172399      15.73853275      13.96257117
H       21.48058219      15.81216228      15.67203864
H       21.40172382      14.29224436      14.83561404
H       23.89192719      16.00270976      15.24640556
H       23.91206391      14.52680831      14.38390521
H       23.53657937      14.48055817      16.05995823
H       15.82775911      21.75959460      13.33148092
H       14.64792583      21.88514049      14.61011112
H       15.30372007      20.33028130      14.19817114
H       16.96297697      22.66060528      15.27023662
H       17.49936830      21.01754322      15.03776342
H       16.37748161      21.29775800      16.23307519
H       15.97405982      14.95214616      20.21430828
H       14.75012089      16.00495656      20.86813306
H       14.94089018      14.38992245      21.50186372
H       16.94185748      16.59389308      21.80501045
H       17.14392832      15.04387358      22.38829173
H       15.83806064      16.04890636      23.07924889
