# Projected DOS for atomic kind I at iteration step i = 0, E(Fermi) =    -0.180909 a.u.
#     MO Eigenvalue [a.u.]      Occupation                 s                py                pz                px
       1         -0.978171        1.000000        0.00000304        0.00001443        0.00003000        0.00000562
       2         -0.957199        1.000000        0.00013770        0.00033463        0.00016049        0.00025724
       3         -0.951817        1.000000        0.00003620        0.00015879        0.00001792        0.00010063
       4         -0.945466        1.000000        0.00024864        0.00060925        0.00026849        0.00020102
       5         -0.944220        1.000000        0.00010334        0.00024758        0.00018533        0.00016551
       6         -0.943219        1.000000        0.00022203        0.00027086        0.00055662        0.00024629
       7         -0.935816        1.000000        0.00017173        0.00037001        0.00023681        0.00022387
       8         -0.710152        1.000000        0.00044932        0.00021235        0.00010123        0.00016524
       9         -0.703756        1.000000        0.00066636        0.00010993        0.00012233        0.00024897
      10         -0.691390        1.000000        0.00075329        0.00029135        0.00014021        0.00021275
      11         -0.690613        1.000000        0.00324394        0.00055795        0.00066255        0.00036031
      12         -0.689569        1.000000        0.00183803        0.00021084        0.00027709        0.00021932
      13         -0.683193        1.000000        0.00046841        0.00008411        0.00018741        0.00030716
      14         -0.681440        1.000000        0.00214367        0.00036357        0.00045061        0.00015275
      15         -0.638328        1.000000        0.94431632        0.00307408        0.00466451        0.01462693
      16         -0.617553        1.000000        0.95818972        0.00078327        0.00844775        0.00760399
      17         -0.609882        1.000000        0.00729633        0.00019147        0.00054512        0.00003841
      18         -0.601284        1.000000        0.79850301        0.00167113        0.00585202        0.01094827
      19         -0.597325        1.000000        0.79535499        0.00252028        0.00235236        0.00260442
      20         -0.594617        1.000000        0.79827114        0.00261353        0.00517660        0.00496449
      21         -0.593331        1.000000        0.70368473        0.00580774        0.00151037        0.00120864
      22         -0.591493        1.000000        0.56854267        0.00535731        0.00174044        0.00086537
      23         -0.588176        1.000000        0.69818503        0.00219963        0.00340200        0.00505001
      24         -0.587411        1.000000        0.78834036        0.00449954        0.00502743        0.00311990
      25         -0.585996        1.000000        0.61480259        0.00146309        0.00136789        0.00436181
      26         -0.585092        1.000000        0.66056801        0.00282692        0.00362555        0.00478951
      27         -0.584278        1.000000        0.24308216        0.00093157        0.00124105        0.00203611
      28         -0.583241        1.000000        0.76946445        0.00202121        0.00250534        0.00386051
      29         -0.582871        1.000000        0.90284374        0.00286456        0.00246835        0.00656244
      30         -0.581368        1.000000        0.20506843        0.00238581        0.00048326        0.00194153
      31         -0.579703        1.000000        0.98043376        0.00050308        0.00643771        0.00283858
      32         -0.577897        1.000000        0.76352729        0.00075788        0.00233449        0.00149981
      33         -0.576860        1.000000        0.73326139        0.00132215        0.00484701        0.00227161
      34         -0.572525        1.000000        0.63040744        0.00388142        0.00268945        0.00157938
      35         -0.572121        1.000000        0.90757432        0.00093020        0.00086847        0.00237436
      36         -0.571656        1.000000        0.80335984        0.00214571        0.00145223        0.00420537
      37         -0.571003        1.000000        0.51301842        0.00200910        0.00259196        0.00190598
      38         -0.569815        1.000000        0.83728604        0.00123373        0.00181402        0.00304228
      39         -0.569298        1.000000        0.58916786        0.00146241        0.00123297        0.00086200
      40         -0.568154        1.000000        0.23415248        0.00283165        0.00134449        0.00156002
      41         -0.566844        1.000000        0.59533740        0.00181953        0.00303956        0.00118269
      42         -0.566392        1.000000        0.55670455        0.00086998        0.00282147        0.00274221
      43         -0.566148        1.000000        0.91743490        0.00079273        0.00312264        0.00054010
      44         -0.564713        1.000000        0.74298047        0.00260416        0.00263302        0.00160400
      45         -0.563888        1.000000        0.46523989        0.00208878        0.00193023        0.00089664
      46         -0.563474        1.000000        0.29685914        0.00208253        0.00151806        0.00102517
      47         -0.562868        1.000000        0.65176672        0.00151866        0.00087892        0.00145648
      48         -0.561831        1.000000        0.73306310        0.00079837        0.00050829        0.00059439
      49         -0.561543        1.000000        0.95259040        0.00054905        0.00037660        0.00149226
      50         -0.560215        1.000000        0.83789974        0.00101037        0.00113251        0.00120842
      51         -0.559575        1.000000        0.41034820        0.00094712        0.00223018        0.00115524
      52         -0.559180        1.000000        0.87491638        0.00049894        0.00141853        0.00057062
      53         -0.559092        1.000000        0.83120979        0.00106753        0.00082474        0.00062309
      54         -0.558549        1.000000        0.95334535        0.00077717        0.00010746        0.00030735
      55         -0.558208        1.000000        0.78255478        0.00199867        0.00133805        0.00076437
      56         -0.557964        1.000000        0.47059096        0.00070763        0.00399484        0.00092139
      57         -0.556393        1.000000        0.96894275        0.00188681        0.00028702        0.00024768
      58         -0.555617        1.000000        0.92051766        0.00095334        0.00051934        0.00070588
      59         -0.554606        1.000000        0.83552408        0.00050491        0.00057839        0.00024664
      60         -0.554389        1.000000        0.72133057        0.00123540        0.00057600        0.00071902
      61         -0.554093        1.000000        0.48530791        0.00150575        0.00088439        0.00111490
      62         -0.552227        1.000000        0.52717593        0.00019724        0.00051000        0.00069419
      63         -0.549831        1.000000        0.83042049        0.00060499        0.00035503        0.00066110
      64         -0.544966        1.000000        0.23676113        0.00215974        0.00108608        0.00149747
      65         -0.498563        1.000000        0.00133145        0.00062579        0.00020277        0.00053264
      66         -0.485627        1.000000        0.00286887        0.00072070        0.00045056        0.00064070
      67         -0.475526        1.000000        0.00226131        0.00096186        0.00066258        0.00078748
      68         -0.471291        1.000000        0.00424974        0.00338840        0.00385346        0.00105146
      69         -0.469432        1.000000        0.00205411        0.00084893        0.00247595        0.00205451
      70         -0.466235        1.000000        0.00251017        0.00093998        0.00128110        0.00136827
      71         -0.461444        1.000000        0.00341339        0.00279524        0.00230724        0.00147196
      72         -0.459668        1.000000        0.11027138        0.04628827        0.04701808        0.04092246
      73         -0.457070        1.000000        0.11370495        0.04032176        0.04310533        0.02861724
      74         -0.455282        1.000000        0.12135464        0.03664714        0.03610951        0.04131420
      75         -0.454326        1.000000        0.13323120        0.03165252        0.03998196        0.04071914
      76         -0.451416        1.000000        0.13429130        0.02682472        0.03740225        0.03425622
      77         -0.449516        1.000000        0.12505593        0.03135428        0.03217283        0.02900988
      78         -0.448925        1.000000        0.12407376        0.02949799        0.04062600        0.02948163
      79         -0.444676        1.000000        0.13294071        0.02225889        0.02770881        0.02893381
      80         -0.421180        1.000000        0.00018877        0.00029183        0.00065505        0.00044890
      81         -0.419941        1.000000        0.00101615        0.00141427        0.00100827        0.00107702
      82         -0.417419        1.000000        0.00130739        0.00085742        0.00064351        0.00129460
      83         -0.416656        1.000000        0.00195140        0.00220665        0.00089102        0.00363773
      84         -0.409698        1.000000        0.00231246        0.00199598        0.00585871        0.00281187
      85         -0.406593        1.000000        0.00192858        0.00334030        0.00351808        0.00302046
      86         -0.405678        1.000000        0.00101596        0.00152675        0.00060796        0.00170961
      87         -0.405193        1.000000        0.00081399        0.00144936        0.00130869        0.00095847
      88         -0.403930        1.000000        0.00110982        0.00256528        0.00173767        0.00188941
      89         -0.403274        1.000000        0.00134588        0.00322828        0.00081459        0.00072579
      90         -0.399676        1.000000        0.00070206        0.00043648        0.00176253        0.00111858
      91         -0.399123        1.000000        0.00096736        0.00184240        0.00263112        0.00079000
      92         -0.395885        1.000000        0.00178303        0.00415300        0.00080223        0.00161296
      93         -0.395487        1.000000        0.00040127        0.00042208        0.00127501        0.00177100
      94         -0.317963        1.000000        0.02594198        0.01023994        0.23423920        0.69053031
      95         -0.292249        1.000000        0.02056096        0.00866956        0.48776275        0.42889316
      96         -0.277295        1.000000        0.01031642        0.02346709        0.59298342        0.21120051
      97         -0.273123        1.000000        0.01096734        0.33007793        0.25702511        0.11089932
      98         -0.270603        1.000000        0.01027785        0.59254160        0.10207623        0.11243870
      99         -0.269993        1.000000        0.01211428        0.23769383        0.28384380        0.19797600
     100         -0.266877        1.000000        0.01037824        0.15345139        0.07562184        0.49517870
     101         -0.265018        1.000000        0.00910352        0.34480621        0.24348659        0.17869762
     102         -0.263639        1.000000        0.01038595        0.50397954        0.08285345        0.18635309
     103         -0.261867        1.000000        0.00947010        0.27306461        0.17166713        0.34014581
     104         -0.261273        1.000000        0.00773964        0.07993600        0.34147401        0.36194263
     105         -0.257952        1.000000        0.01067461        0.17490822        0.41808102        0.13250266
     106         -0.255926        1.000000        0.01066833        0.16773938        0.38751818        0.17063817
     107         -0.253946        1.000000        0.01124397        0.27632179        0.22308248        0.27320909
     108         -0.251662        1.000000        0.01763973        0.16261750        0.24493077        0.34860529
     109         -0.249824        1.000000        0.01251825        0.37981340        0.19629933        0.17819279
     110         -0.244721        1.000000        0.01647724        0.18290649        0.33315414        0.24316498
     111         -0.244205        1.000000        0.01425208        0.17918372        0.28758350        0.30484626
     112         -0.242649        1.000000        0.01585038        0.22668999        0.31037999        0.21824168
     113         -0.242171        1.000000        0.01291873        0.18837456        0.41197459        0.16845357
     114         -0.240304        1.000000        0.01602235        0.23671344        0.20365461        0.31823285
     115         -0.238081        1.000000        0.00576207        0.28715056        0.23815267        0.34133901
     116         -0.237408        1.000000        0.00720346        0.71896926        0.08537248        0.08730113
     117         -0.236306        1.000000        0.01424172        0.37420394        0.20421400        0.19745694
     118         -0.234850        1.000000        0.00938257        0.26848434        0.20463713        0.30522338
     119         -0.232747        1.000000        0.00913888        0.33707889        0.17864979        0.30429351
     120         -0.230387        1.000000        0.00760253        0.51331040        0.24670759        0.10979654
     121         -0.228205        1.000000        0.00546906        0.44645555        0.29984665        0.14917838
     122         -0.227356        1.000000        0.00790204        0.18071654        0.47717243        0.27270245
     123         -0.225764        1.000000        0.00633085        0.27580929        0.29002024        0.29781389
     124         -0.224677        1.000000        0.00739790        0.29595030        0.35719022        0.20544026
     125         -0.222656        1.000000        0.00571360        0.29976592        0.30066351        0.31072324
     126         -0.219947        1.000000        0.00285482        0.28350693        0.32537538        0.31509613
     127         -0.219243        1.000000        0.00277980        0.23629419        0.49215662        0.20379841
     128         -0.217921        1.000000        0.00361433        0.39109800        0.17818637        0.36675465
     129         -0.216695        1.000000        0.00373446        0.24809280        0.28521825        0.39290398
     130         -0.215074        1.000000        0.00212538        0.36426055        0.25657382        0.34361386
     131         -0.213986        1.000000        0.00265726        0.33824531        0.21585140        0.40379327
     132         -0.213372        1.000000        0.00104411        0.59411333        0.14679600        0.23722738
     133         -0.212640        1.000000        0.00194310        0.49428389        0.12931566        0.35320482
     134         -0.210777        1.000000        0.00139183        0.35644918        0.31938391        0.29263931
     135         -0.209838        1.000000        0.00191148        0.30298176        0.32577974        0.33680223
     136         -0.208791        1.000000        0.00117522        0.28230496        0.47157035        0.23361473
     137         -0.208087        1.000000        0.00094177        0.31354567        0.37082525        0.29464471
     138         -0.207740        1.000000        0.00116511        0.24691598        0.25751570        0.47782921
     139         -0.207178        1.000000        0.00115749        0.29831679        0.48233142        0.19869935
     140         -0.206027        1.000000        0.00163499        0.38242073        0.16718038        0.42774706
     141         -0.205695        1.000000        0.00092166        0.18601283        0.40564523        0.39131069
     142         -0.204755        1.000000        0.00092162        0.31678965        0.44145300        0.22307222
     143         -0.202863        1.000000        0.00083669        0.37261130        0.36083488        0.25081591
     144         -0.202437        1.000000        0.00108102        0.50562272        0.38972929        0.08643727
     145         -0.202330        1.000000        0.00099828        0.44029432        0.23643714        0.30375252
     146         -0.201813        1.000000        0.00110046        0.72681726        0.15944766        0.10001313
     147         -0.200965        1.000000        0.00097410        0.25936138        0.40991430        0.31133538
     148         -0.200683        1.000000        0.00069819        0.26714678        0.36082278        0.35655305
     149         -0.199416        1.000000        0.00116142        0.40834286        0.39922750        0.16383425
     150         -0.198579        1.000000        0.00110111        0.32560687        0.38412771        0.26996256
     151         -0.198306        1.000000        0.00178931        0.37072395        0.35091410        0.24726380
     152         -0.196377        1.000000        0.00108176        0.30313248        0.38754645        0.28532078
     153         -0.196047        1.000000        0.00048746        0.26939487        0.46137358        0.25397887
     154         -0.195470        1.000000        0.00104182        0.43938101        0.28462646        0.25929942
     155         -0.195040        1.000000        0.00097399        0.50816564        0.22726689        0.25770679
     156         -0.194168        1.000000        0.00111630        0.36224646        0.30882941        0.31450666
     157         -0.193544        1.000000        0.00085652        0.37748183        0.41461454        0.18697339
     158         -0.192740        1.000000        0.00101588        0.38564034        0.31656839        0.27717687
     159         -0.192354        1.000000        0.00090429        0.33257272        0.27247866        0.38513210
     160         -0.192078        1.000000        0.00109319        0.36200188        0.35537476        0.25327061
     161         -0.191752        1.000000        0.00081083        0.48784155        0.23966878        0.25578627
     162         -0.191479        1.000000        0.00085216        0.47200133        0.40533567        0.10314960
     163         -0.191002        1.000000        0.00091453        0.35521677        0.15899112        0.45676110
     164         -0.190723        1.000000        0.00084506        0.52146784        0.25387451        0.21118744
     165         -0.190597        1.000000        0.00067848        0.36144960        0.26297078        0.35652395
     166         -0.190386        1.000000        0.00119704        0.37099312        0.17834334        0.42175149
     167         -0.190119        1.000000        0.00075336        0.31092971        0.24418754        0.41524511
     168         -0.189669        1.000000        0.00107214        0.34492687        0.13495229        0.50898680
     169         -0.188615        1.000000        0.00129949        0.38095901        0.30825668        0.27814687
     170         -0.188201        1.000000        0.00068821        0.45358794        0.24458799        0.28880617
     171         -0.187972        1.000000        0.00035647        0.16286784        0.42678841        0.40152253
     172         -0.187312        1.000000        0.00030067        0.07241466        0.33173152        0.59154337
     173         -0.186940        1.000000        0.00070848        0.19715166        0.44516825        0.34452491
     174         -0.186547        1.000000        0.00044935        0.28594633        0.27948223        0.41996027
     175         -0.186195        1.000000        0.00063739        0.26330216        0.27681365        0.44272893
     176         -0.185810        1.000000        0.00053736        0.25476099        0.27260042        0.43841796
     177         -0.185286        1.000000        0.00049329        0.20578996        0.37477727        0.39759120
     178         -0.184973        1.000000        0.00067401        0.25991579        0.44580061        0.26130759
     179         -0.184738        1.000000        0.00058071        0.29040778        0.36582380        0.31244291
     180         -0.184422        1.000000        0.00047818        0.43339247        0.26919913        0.28490528
     181         -0.184248        1.000000        0.00083694        0.26052726        0.23567094        0.46428077
     182         -0.184030        1.000000        0.00051972        0.29252049        0.20400773        0.48557889
     183         -0.183891        1.000000        0.00052260        0.26277382        0.26017071        0.45405251
     184         -0.183711        1.000000        0.00061535        0.31188469        0.37012725        0.29918811
     185         -0.183565        1.000000        0.00047913        0.36291602        0.31742569        0.30701420
     186         -0.183197        1.000000        0.00032874        0.30315971        0.35267209        0.32753045
     187         -0.183185        1.000000        0.00049840        0.29328256        0.52137197        0.16340763
     188         -0.182684        1.000000        0.00050556        0.28284468        0.35690116        0.31582954
     189         -0.182539        1.000000        0.00045887        0.17091543        0.33708725        0.46226877
     190         -0.181817        1.000000        0.00036680        0.25175491        0.28063034        0.45970820
     191         -0.181621        1.000000        0.00041504        0.27479660        0.43315037        0.27882665
     192         -0.181369        1.000000        0.00058302        0.15699970        0.62118857        0.21675059
     193         -0.181174        1.000000        0.00033077        0.41378199        0.23908378        0.33271767
     194         -0.181037        1.000000        0.00048374        0.23714729        0.45047411        0.30025211
     195         -0.180909        1.000000        0.00033386        0.39603806        0.30203288        0.28712529
     196         -0.180875        0.000000        0.00057416        0.29338436        0.23856572        0.45055772
     197         -0.180645        0.000000        0.00026429        0.39805766        0.18784419        0.39751117
     198         -0.180478        0.000000        0.00322047        0.14503626        0.48051699        0.34791970
     199         -0.180075        0.000000        0.00176934        0.17454557        0.40422903        0.40035926
     200         -0.179749        0.000000        0.00031522        0.18687498        0.39372069        0.39044259
     201         -0.164491        0.000000        0.00566301        0.01434317        0.22211638        0.75183374
     202         -0.073434        0.000000        0.01907484        0.13789794        0.05949697        0.03715569
     203         -0.069804        0.000000        0.02172157        0.03068447        0.05151486        0.15746008
     204         -0.065374        0.000000        0.03169004        0.12187603        0.03191668        0.06133833
     205         -0.062727        0.000000        0.01884640        0.14674724        0.03754316        0.07325182
     206         -0.058440        0.000000        0.02276715        0.13649331        0.05624744        0.05681387
     207         -0.056312        0.000000        0.02295603        0.05137358        0.15371650        0.05273820
     208         -0.055536        0.000000        0.01973283        0.10902717        0.08544619        0.06836189
     209         -0.053591        0.000000        0.02278355        0.06542633        0.10919035        0.08500083
     210         -0.049137        0.000000        0.02329220        0.06557569        0.04976836        0.14491459
     211         -0.047345        0.000000        0.02336473        0.04618937        0.11134962        0.11450638
     212         -0.045041        0.000000        0.02336534        0.07171604        0.08080538        0.10998376
     213         -0.044031        0.000000        0.02397606        0.02749670        0.14164257        0.10290306
     214         -0.043545        0.000000        0.01960674        0.07354410        0.04041140        0.15649612
     215         -0.041505        0.000000        0.01942175        0.13530513        0.08306562        0.05140688
     216         -0.037831        0.000000        0.01879030        0.03950680        0.03449113        0.20086819
     217         -0.032079        0.000000        0.01513888        0.02825939        0.20846583        0.04465906
     218         -0.030146        0.000000        0.01680627        0.04091570        0.18606614        0.05678847
     219         -0.027258        0.000000        0.01355024        0.16743987        0.10107403        0.02302843
     220         -0.023899        0.000000        0.01237463        0.14971164        0.11190386        0.03397420
     221         -0.021437        0.000000        0.01376887        0.25916478        0.00870300        0.02683605
     222         -0.019857        0.000000        0.01104929        0.02363484        0.05123012        0.22402540
     223         -0.018492        0.000000        0.01308979        0.09803719        0.11466100        0.08307332
     224         -0.011647        0.000000        0.01359947        0.10852862        0.05978022        0.13045997
     225         -0.008132        0.000000        0.01451571        0.02673145        0.26327090        0.01333285
     226          0.084657        0.000000        0.00001596        0.00040747        0.00018553        0.00019710
     227          0.090423        0.000000        0.00004356        0.00059706        0.00067313        0.00063281
     228          0.099770        0.000000        0.00010136        0.00109159        0.00158765        0.00027343
     229          0.102821        0.000000        0.00003794        0.00077562        0.00050555        0.00063293
     230          0.104148        0.000000        0.00008278        0.00065286        0.00095376        0.00118640
     231          0.105506        0.000000        0.00006226        0.00044470        0.00068488        0.00114353
     232          0.107690        0.000000        0.00009096        0.00102217        0.00097637        0.00036207
     233          0.166114        0.000000        0.00000270        0.00004286        0.00010084        0.00004484
     234          0.170759        0.000000        0.00000714        0.00021334        0.00004787        0.00009906
     235          0.203710        0.000000        0.00004480        0.00051859        0.00034399        0.00009006
     236          0.233361        0.000000        0.00000375        0.00008175        0.00014366        0.00009465
     237          0.252611        0.000000        0.00008313        0.00009079        0.00330623        0.00080455
     238          0.282184        0.000000        0.00058181        0.00500523        0.00019460        0.00638604
     239          0.283651        0.000000        0.00005205        0.00063464        0.00201498        0.00086816
     240          0.288221        0.000000        0.00062878        0.00519676        0.00365965        0.00370617
     241          0.291388        0.000000        0.00101285        0.00447210        0.00093302        0.00522262
     242          0.292701        0.000000        0.00025635        0.00476672        0.00033008        0.00270608
     243          0.294195        0.000000        0.00085199        0.01218929        0.00077912        0.00191713
     244          0.294954        0.000000        0.00039675        0.00494425        0.00496098        0.00305325
     245          0.298972        0.000000        0.00033212        0.00163294        0.00334477        0.00123647
     246          0.301210        0.000000        0.00078304        0.00134678        0.00861416        0.00511620
     247          0.306712        0.000000        0.00029284        0.00443873        0.00277501        0.00199702
     248          0.323268        0.000000        0.00067372        0.00612729        0.00051158        0.00714705
     249          0.325426        0.000000        0.00040363        0.00614020        0.00036473        0.00420603
     250          0.327936        0.000000        0.00056889        0.00492858        0.00409885        0.00224032
     251          0.336170        0.000000        0.00100963        0.01058341        0.00311505        0.00439421
     252          0.337400        0.000000        0.00106797        0.00244392        0.00900883        0.00542643
     253          0.344624        0.000000        0.00060917        0.00678175        0.00508957        0.00464054
     254          0.442053        0.000000        0.00003236        0.00014858        0.00012486        0.00033744
     255          0.447581        0.000000        0.00003647        0.00027881        0.00019258        0.00034352
     256          0.450216        0.000000        0.00002542        0.00020990        0.00002707        0.00002060
     257          0.451349        0.000000        0.00003895        0.00047619        0.00033996        0.00052373
     258          0.459214        0.000000        0.00005781        0.00037007        0.00085103        0.00042251
     259          0.460240        0.000000        0.00005536        0.00047119        0.00005907        0.00017404