# Projected DOS for atomic kind N at iteration step i = 0, E(Fermi) =    -0.180627 a.u.
#     MO Eigenvalue [a.u.]      Occupation                 s                py                pz                px
       1         -0.978028        1.000000        0.62541566        0.00003411        0.00000020        0.00015349
       2         -0.957027        1.000000        0.61549742        0.00028266        0.00000041        0.00001855
       3         -0.951658        1.000000        0.62012034        0.00002709        0.00018060        0.00022461
       4         -0.945293        1.000000        0.61228022        0.00007175        0.00000481        0.00018029
       5         -0.944030        1.000000        0.61632150        0.00004013        0.00015297        0.00009858
       6         -0.943031        1.000000        0.61024103        0.00016130        0.00002447        0.00000072
       7         -0.935645        1.000000        0.61285532        0.00007684        0.00004620        0.00007158
       8         -0.709999        1.000000        0.01434767        0.00916697        0.00755953        0.21025564
       9         -0.703590        1.000000        0.02101108        0.00086763        0.08713374        0.10544472
      10         -0.691212        1.000000        0.01893765        0.02184104        0.07845615        0.10641653
      11         -0.690410        1.000000        0.01776329        0.02132006        0.00578471        0.16323298
      12         -0.689388        1.000000        0.01591406        0.00677175        0.02414538        0.16599581
      13         -0.683019        1.000000        0.01713863        0.07735304        0.06958104        0.05392091
      14         -0.681232        1.000000        0.01625216        0.00000278        0.05871858        0.13731290
      15         -0.638278        1.000000        0.00058639        0.00689667        0.00082448        0.00009417
      16         -0.617092        1.000000        0.00001061        0.00088942        0.00031099        0.00002388
      17         -0.609714        1.000000        0.00000424        0.09336869        0.48369801        0.03346185
      18         -0.600792        1.000000        0.00066805        0.04467903        0.03305130        0.00523601
      19         -0.596879        1.000000        0.00077014        0.01554255        0.03976799        0.00497548
      20         -0.593981        1.000000        0.00043440        0.02785960        0.02961774        0.00532249
      21         -0.592999        1.000000        0.00056698        0.09190668        0.02799365        0.00853492
      22         -0.590795        1.000000        0.00099952        0.10457362        0.09962777        0.04140229
      23         -0.587510        1.000000        0.00065467        0.05018551        0.05363212        0.04735467
      24         -0.586052        1.000000        0.00031179        0.02459810        0.03614672        0.01148656
      25         -0.585386        1.000000        0.00091037        0.12613176        0.05617940        0.04886374
      26         -0.584347        1.000000        0.00044212        0.18253360        0.04947274        0.02202343
      27         -0.583846        1.000000        0.00018085        0.25293557        0.06155623        0.00627431
      28         -0.582885        1.000000        0.00021344        0.05538533        0.02059577        0.00234852
      29         -0.581893        1.000000        0.00004636        0.01087441        0.00414373        0.00099968
      30         -0.581187        1.000000        0.00009422        0.41494718        0.03926757        0.01684760
      31         -0.579411        1.000000        0.00000565        0.00120786        0.00051507        0.00055923
      32         -0.577400        1.000000        0.00015130        0.07943605        0.03926533        0.01054748
      33         -0.576216        1.000000        0.00024228        0.02275750        0.06043762        0.00868084
      34         -0.571639        1.000000        0.00052314        0.13574139        0.02638443        0.04622582
      35         -0.571194        1.000000        0.00017771        0.07188088        0.03261975        0.01322704
      36         -0.570966        1.000000        0.00002861        0.03261827        0.01907392        0.00751382
      37         -0.570614        1.000000        0.00060239        0.07935027        0.07957058        0.05654264
      38         -0.569604        1.000000        0.00026606        0.01053471        0.02139791        0.02402394
      39         -0.568578        1.000000        0.00059252        0.03006873        0.11203343        0.08607163
      40         -0.567746        1.000000        0.00035807        0.15224617        0.25859044        0.02924433
      41         -0.566383        1.000000        0.00041761        0.04761726        0.07276168        0.09725696
      42         -0.565889        1.000000        0.00018764        0.11392386        0.09881508        0.01715717
      43         -0.564940        1.000000        0.00003966        0.03838318        0.07002292        0.00880293
      44         -0.563735        1.000000        0.00005904        0.04052125        0.03623107        0.02569687
      45         -0.563201        1.000000        0.00026966        0.10393081        0.10372303        0.12305489
      46         -0.563125        1.000000        0.00021855        0.15480768        0.06585288        0.16383004
      47         -0.561811        1.000000        0.00032175        0.07216515        0.04749868        0.00872061
      48         -0.561341        1.000000        0.00005602        0.01389372        0.01727182        0.00612310
      49         -0.561256        1.000000        0.00000613        0.04234373        0.01957790        0.02825016
      50         -0.560526        1.000000        0.00001453        0.00726370        0.01798407        0.00504635
      51         -0.559416        1.000000        0.00008577        0.11825052        0.03097335        0.03899398
      52         -0.559311        1.000000        0.00003850        0.02943388        0.01477285        0.03529797
      53         -0.559142        1.000000        0.00025574        0.22793514        0.02992703        0.04719878
      54         -0.557992        1.000000        0.00001258        0.00996450        0.00267693        0.00118726
      55         -0.557863        1.000000        0.00003620        0.01434128        0.06878475        0.00594096
      56         -0.557522        1.000000        0.00032341        0.02030237        0.29845748        0.01054636
      57         -0.555638        1.000000        0.00000100        0.00111725        0.00014807        0.00028711
      58         -0.554976        1.000000        0.00010019        0.01340906        0.03833414        0.04799121
      59         -0.554406        1.000000        0.00003770        0.03241789        0.04863810        0.01758301
      60         -0.553889        1.000000        0.00028046        0.16605272        0.16250919        0.02669833
      61         -0.553260        1.000000        0.00002839        0.01231052        0.02597528        0.02884305
      62         -0.551264        1.000000        0.00007692        0.03661242        0.17370372        0.05391531
      63         -0.548718        1.000000        0.00036477        0.03182406        0.00234395        0.04928807
      64         -0.544505        1.000000        0.00029187        0.31727125        0.10065494        0.03274691
      65         -0.498427        1.000000        0.00936484        0.00199809        0.02040172        0.39784468
      66         -0.485465        1.000000        0.00620731        0.01789854        0.18225429        0.24146354
      67         -0.475364        1.000000        0.00644905        0.05513201        0.23753043        0.14471205
      68         -0.471110        1.000000        0.00929585        0.01715340        0.02872719        0.38200582
      69         -0.469243        1.000000        0.00840402        0.04186389        0.01201140        0.38342862
      70         -0.466060        1.000000        0.00791419        0.18428368        0.12216874        0.12888099
      71         -0.461242        1.000000        0.00943313        0.00012527        0.11232370        0.31502785
      72         -0.459179        1.000000        0.00002278        0.00026238        0.00031831        0.00128958
      73         -0.456486        1.000000        0.00001879        0.00097004        0.00035528        0.00195298
      74         -0.454651        1.000000        0.00000338        0.00012820        0.00016996        0.00030410
      75         -0.453316        1.000000        0.00000216        0.00006611        0.00062498        0.00135356
      76         -0.450297        1.000000        0.00001105        0.00110929        0.00078987        0.00239038
      77         -0.449045        1.000000        0.00001077        0.00028787        0.00011874        0.00024365
      78         -0.448612        1.000000        0.00000487        0.00045518        0.00092006        0.00369373
      79         -0.444218        1.000000        0.00001439        0.00022169        0.00029351        0.00296828
      80         -0.421022        1.000000        0.00007053        0.01710393        0.01764447        0.00780459
      81         -0.419802        1.000000        0.00000555        0.00298491        0.02263757        0.00082762
      82         -0.417244        1.000000        0.00002298        0.02747779        0.00828120        0.00909941
      83         -0.416515        1.000000        0.00002189        0.03355576        0.00519814        0.00050999
      84         -0.409490        1.000000        0.00000861        0.00367906        0.03737812        0.00008818
      85         -0.406385        1.000000        0.00001819        0.03374096        0.00441342        0.00441347
      86         -0.405488        1.000000        0.00003282        0.01803009        0.01673866        0.00342221
      87         -0.405012        1.000000        0.00000118        0.00906917        0.02423406        0.00308545
      88         -0.403739        1.000000        0.00010253        0.01296651        0.00659824        0.01932293
      89         -0.403095        1.000000        0.00002711        0.02700668        0.00874073        0.00270385
      90         -0.399533        1.000000        0.00000606        0.00097499        0.01087578        0.02915871
      91         -0.398918        1.000000        0.00000161        0.00288993        0.02454886        0.01177134
      92         -0.395670        1.000000        0.00000473        0.03635632        0.00304462        0.00105222
      93         -0.395295        1.000000        0.00000638        0.01936945        0.01266454        0.00259387
      94         -0.317867        1.000000        0.00021242        0.00080799        0.00004698        0.00013461
      95         -0.291815        1.000000        0.00003134        0.00012261        0.00004093        0.00003679
      96         -0.276898        1.000000        0.00022392        0.00118770        0.00061317        0.00028022
      97         -0.272686        1.000000        0.00009102        0.00032145        0.00047140        0.00005570
      98         -0.269701        1.000000        0.00060349        0.00172615        0.00084965        0.00043453
      99         -0.269078        1.000000        0.00036615        0.00117482        0.00073115        0.00021167
     100         -0.265324        1.000000        0.00059084        0.00070079        0.00054712        0.00014905
     101         -0.264332        1.000000        0.00038529        0.00063758        0.00003328        0.00029831
     102         -0.262773        1.000000        0.00068914        0.00126709        0.00030603        0.00061548
     103         -0.260760        1.000000        0.00072038        0.00057126        0.00026857        0.00067552
     104         -0.260360        1.000000        0.00029992        0.00090523        0.00015946        0.00023675
     105         -0.257268        1.000000        0.00017050        0.00084394        0.00039436        0.00011926
     106         -0.255110        1.000000        0.00026152        0.00142398        0.00015712        0.00027418
     107         -0.252852        1.000000        0.00115075        0.00178070        0.00018610        0.00065841
     108         -0.250409        1.000000        0.00023888        0.00048595        0.00063870        0.00025638
     109         -0.248290        1.000000        0.00097645        0.00031225        0.00035123        0.00055698
     110         -0.243654        1.000000        0.00071539        0.00050022        0.00036567        0.00115786
     111         -0.243270        1.000000        0.00046528        0.00082312        0.00164319        0.00044229
     112         -0.241784        1.000000        0.00073955        0.00230474        0.00056750        0.00094366
     113         -0.240968        1.000000        0.00086200        0.00051960        0.00111743        0.00049774
     114         -0.239574        1.000000        0.00077158        0.00052725        0.00079044        0.00052162
     115         -0.237676        1.000000        0.00388631        0.00110404        0.00126661        0.00241218
     116         -0.236777        1.000000        0.00083111        0.00094300        0.00027575        0.00084787
     117         -0.235339        1.000000        0.00044267        0.00207823        0.00121827        0.00044574
     118         -0.234104        1.000000        0.00052902        0.00148962        0.00211555        0.00089210
     119         -0.232089        1.000000        0.00034132        0.00056301        0.00176567        0.00040749
     120         -0.229716        1.000000        0.00173526        0.00351758        0.00112980        0.00036284
     121         -0.227717        1.000000        0.00141796        0.00338091        0.00224236        0.00106844
     122         -0.226720        1.000000        0.00174898        0.00223292        0.00051085        0.00054196
     123         -0.224786        1.000000        0.00089871        0.00220715        0.00286953        0.00057191
     124         -0.223806        1.000000        0.00111053        0.00037975        0.00206900        0.00071209
     125         -0.221569        1.000000        0.00025985        0.00084595        0.00014363        0.00047480
     126         -0.219490        1.000000        0.00202911        0.00212744        0.00050821        0.00062698
     127         -0.218437        1.000000        0.00061948        0.00015274        0.00381758        0.00038389
     128         -0.216934        1.000000        0.00149549        0.00617193        0.00195831        0.00170131
     129         -0.215596        1.000000        0.00072292        0.00142811        0.00162719        0.00037944
     130         -0.214313        1.000000        0.00178086        0.00138577        0.00159179        0.00350878
     131         -0.213518        1.000000        0.00095292        0.00159851        0.00071789        0.00194043
     132         -0.213307        1.000000        0.00035768        0.00087587        0.00191347        0.00147606
     133         -0.211881        1.000000        0.00030394        0.00009054        0.00272022        0.00054124
     134         -0.210345        1.000000        0.00053504        0.00068469        0.00203821        0.00095178
     135         -0.208912        1.000000        0.00042153        0.00149519        0.00055402        0.00052676
     136         -0.208253        1.000000        0.00072741        0.00076050        0.00155730        0.00074369
     137         -0.208079        1.000000        0.00016002        0.00051112        0.00077137        0.00008575
     138         -0.206836        1.000000        0.00035292        0.00037174        0.00109613        0.00071251
     139         -0.206540        1.000000        0.00022895        0.00098964        0.00116909        0.00058597
     140         -0.205598        1.000000        0.00040790        0.00062207        0.00146950        0.00016420
     141         -0.204974        1.000000        0.00031436        0.00058991        0.00091331        0.00038375
     142         -0.203854        1.000000        0.00026772        0.00119654        0.00004014        0.00039313
     143         -0.202174        1.000000        0.00031075        0.00065098        0.00069135        0.00039393
     144         -0.201720        1.000000        0.00019111        0.00040432        0.00053193        0.00052736
     145         -0.201458        1.000000        0.00079472        0.00430644        0.00033220        0.00157706
     146         -0.201100        1.000000        0.00058551        0.00155156        0.00107036        0.00111151
     147         -0.200107        1.000000        0.00021500        0.00205090        0.00015442        0.00023095
     148         -0.199441        1.000000        0.00014228        0.00030260        0.00036986        0.00032699
     149         -0.199065        1.000000        0.00038772        0.00106122        0.00020970        0.00062228
     150         -0.197888        1.000000        0.00029184        0.00018972        0.00030962        0.00051929
     151         -0.197099        1.000000        0.00056432        0.00078531        0.00046725        0.00054381
     152         -0.196670        1.000000        0.00037723        0.00020736        0.00071175        0.00037624
     153         -0.196390        1.000000        0.00015588        0.00012321        0.00025945        0.00020367
     154         -0.195438        1.000000        0.00007630        0.00020433        0.00014564        0.00024334
     155         -0.194728        1.000000        0.00019439        0.00046437        0.00030339        0.00082112
     156         -0.194638        1.000000        0.00002505        0.00006590        0.00025126        0.00012771
     157         -0.194165        1.000000        0.00006440        0.00024971        0.00028571        0.00004221
     158         -0.193597        1.000000        0.00021079        0.00253300        0.00039186        0.00034302
     159         -0.192693        1.000000        0.00005275        0.00037375        0.00012196        0.00012639
     160         -0.191697        1.000000        0.00002113        0.00042214        0.00010885        0.00004704
     161         -0.191352        1.000000        0.00081496        0.00065707        0.00028342        0.00102241
     162         -0.191149        1.000000        0.00018744        0.00047570        0.00015794        0.00025178
     163         -0.190877        1.000000        0.00053257        0.00054347        0.00019459        0.00052027
     164         -0.190357        1.000000        0.00022087        0.00025141        0.00030282        0.00029350
     165         -0.190038        1.000000        0.00021617        0.00046468        0.00008329        0.00013706
     166         -0.189781        1.000000        0.00035861        0.00145343        0.00019821        0.00038944
     167         -0.189602        1.000000        0.00010617        0.00075623        0.00025165        0.00005526
     168         -0.189259        1.000000        0.00009414        0.00026068        0.00022359        0.00004562
     169         -0.188840        1.000000        0.00015020        0.00012990        0.00008098        0.00002506
     170         -0.188594        1.000000        0.00019802        0.00013304        0.00024723        0.00013691
     171         -0.187728        1.000000        0.00001800        0.00000781        0.00004857        0.00013820
     172         -0.187023        1.000000        0.00003243        0.00024976        0.00004133        0.00009708
     173         -0.186822        1.000000        0.00010701        0.00051932        0.00012409        0.00031317
     174         -0.186565        1.000000        0.00009661        0.00006797        0.00008075        0.00014224
     175         -0.186110        1.000000        0.00022722        0.00022908        0.00007313        0.00034988
     176         -0.185995        1.000000        0.00051609        0.00037806        0.00019164        0.00100481
     177         -0.185471        1.000000        0.00014437        0.00042839        0.00007847        0.00022676
     178         -0.185402        1.000000        0.00007338        0.00035978        0.00014319        0.00001500
     179         -0.184964        1.000000        0.00023029        0.00021605        0.00011883        0.00011916
     180         -0.184722        1.000000        0.00009507        0.00027679        0.00010040        0.00017163
     181         -0.183908        1.000000        0.00007030        0.00003699        0.00009882        0.00003541
     182         -0.183833        1.000000        0.00007413        0.00011520        0.00003964        0.00006011
     183         -0.183427        1.000000        0.00013246        0.00027163        0.00007423        0.00015846
     184         -0.183381        1.000000        0.00012252        0.00024453        0.00005420        0.00023076
     185         -0.183112        1.000000        0.00014249        0.00086906        0.00007353        0.00031710
     186         -0.182956        1.000000        0.00002036        0.00041247        0.00014137        0.00004727
     187         -0.182774        1.000000        0.00005276        0.00007616        0.00009915        0.00013742
     188         -0.182577        1.000000        0.00002083        0.00039871        0.00019519        0.00005048
     189         -0.182482        1.000000        0.00015445        0.00023975        0.00006023        0.00008715
     190         -0.182164        1.000000        0.00005188        0.00014137        0.00004377        0.00004839
     191         -0.181982        1.000000        0.00013546        0.00028632        0.00008622        0.00022567
     192         -0.181605        1.000000        0.00013728        0.00035769        0.00009407        0.00012061
     193         -0.181099        1.000000        0.00005603        0.00009386        0.00005873        0.00014752
     194         -0.180627        1.000000        0.00015395        0.00043310        0.00011932        0.00017443
     195         -0.180579        0.000000        0.00005719        0.00023997        0.00010660        0.00016168
     196         -0.180280        0.000000        0.00002115        0.00012491        0.00000530        0.00007457
     197         -0.179455        0.000000        0.00004498        0.00006074        0.00002149        0.00007882
     198         -0.179057        0.000000        0.00007175        0.00012694        0.00005569        0.00010984
     199         -0.178888        0.000000        0.00004871        0.00010033        0.00003029        0.00009064
     200         -0.178402        0.000000        0.00002469        0.00015765        0.00001608        0.00012431
     201         -0.164360        0.000000        0.00004161        0.00014952        0.00003484        0.00005015
     202         -0.072945        0.000000        0.00005812        0.00003052        0.00001142        0.00002434
     203         -0.069350        0.000000        0.00017647        0.00010457        0.00033307        0.00007386
     204         -0.065029        0.000000        0.00024007        0.00006085        0.00015169        0.00007342
     205         -0.062452        0.000000        0.00002547        0.00004226        0.00003121        0.00002244
     206         -0.058243        0.000000        0.00006769        0.00005574        0.00004629        0.00006130
     207         -0.055913        0.000000        0.00006397        0.00008764        0.00006174        0.00002873
     208         -0.055172        0.000000        0.00004019        0.00006274        0.00003514        0.00005571
     209         -0.053249        0.000000        0.00007616        0.00008808        0.00016629        0.00008446
     210         -0.048843        0.000000        0.00006530        0.00009292        0.00010446        0.00006491
     211         -0.046832        0.000000        0.00011629        0.00014796        0.00007039        0.00011042
     212         -0.044702        0.000000        0.00009120        0.00021087        0.00015464        0.00008456
     213         -0.043508        0.000000        0.00008182        0.00004139        0.00015641        0.00001764
     214         -0.043120        0.000000        0.00009412        0.00018483        0.00005977        0.00007529
     215         -0.040756        0.000000        0.00019187        0.00012546        0.00003921        0.00003638
     216         -0.036862        0.000000        0.00026913        0.00047357        0.00003395        0.00004562
     217         -0.031597        0.000000        0.00003566        0.00004076        0.00002671        0.00001217
     218         -0.029232        0.000000        0.00002899        0.00001701        0.00003166        0.00001256
     219         -0.026870        0.000000        0.00009795        0.00020549        0.00004144        0.00003312
     220         -0.023511        0.000000        0.00004867        0.00003368        0.00008664        0.00002288
     221         -0.020374        0.000000        0.00010150        0.00009198        0.00004058        0.00004677
     222         -0.019128        0.000000        0.00005039        0.00003017        0.00003616        0.00001608
     223         -0.017825        0.000000        0.00005140        0.00004214        0.00006965        0.00001324
     224         -0.011030        0.000000        0.00009675        0.00005511        0.00006895        0.00001557
     225         -0.007834        0.000000        0.00006022        0.00008697        0.00015384        0.00005140
     226          0.084797        0.000000        0.11898677        0.00266925        0.01445990        0.21705536
     227          0.090575        0.000000        0.10777299        0.00306058        0.11309275        0.14155297
     228          0.099920        0.000000        0.10399132        0.00537752        0.02399689        0.22933260
     229          0.102980        0.000000        0.11004319        0.02941383        0.10462257        0.11547075
     230          0.104332        0.000000        0.10089346        0.03249685        0.00464989        0.22679028
     231          0.105665        0.000000        0.10217804        0.11385896        0.07450912        0.06913218
     232          0.107867        0.000000        0.10466229        0.00024805        0.06790409        0.19023485
     233          0.166266        0.000000        0.03440891        0.25444392        0.02285081        0.02259530
     234          0.170928        0.000000        0.06128903        0.01551877        0.19991931        0.06015034
     235          0.203916        0.000000        0.05926360        0.26284445        0.00130622        0.01353652
     236          0.233526        0.000000        0.09265496        0.00737942        0.14002991        0.10171971
     237          0.252851        0.000000        0.03426119        0.00793811        0.02324797        0.26103848
     238          0.282350        0.000000        0.00016864        0.00264898        0.16509841        0.14374433
     239          0.283829        0.000000        0.10101216        0.06990359        0.15196683        0.01102350
     240          0.288359        0.000000        0.00171284        0.00059280        0.27614414        0.03816682
     241          0.291556        0.000000        0.00039140        0.13430215        0.13794366        0.04553475
     242          0.292872        0.000000        0.00155180        0.26772248        0.03513620        0.01505894
     243          0.294416        0.000000        0.00041397        0.31633094        0.00021534        0.00005977
     244          0.295123        0.000000        0.00045925        0.22600482        0.04993670        0.04061660
     245          0.299204        0.000000        0.00206098        0.12149799        0.19172025        0.00415764
     246          0.301391        0.000000        0.00078143        0.06127394        0.24627802        0.00505041
     247          0.306877        0.000000        0.00076715        0.16705382        0.11605893        0.03742371
     248          0.323435        0.000000        0.17663527        0.06124422        0.05557565        0.04002538
     249          0.325597        0.000000        0.17044895        0.01049008        0.00142577        0.15486402
     250          0.328161        0.000000        0.20913350        0.08433547        0.04528813        0.00212849
     251          0.336334        0.000000        0.24020648        0.00005373        0.02163224        0.08332132
     252          0.337581        0.000000        0.24445591        0.01629117        0.00088929        0.08383977
     253          0.344807        0.000000        0.24175558        0.00102663        0.02941557        0.07379476
     254          0.442201        0.000000        0.00074220        0.01390111        0.00268645        0.00841015
     255          0.447701        0.000000        0.00000336        0.00355215        0.01308124        0.00045383
     256          0.450361        0.000000        0.00037001        0.00650151        0.01386557        0.00370890
     257          0.451460        0.000000        0.00017603        0.01051995        0.00930252        0.00032526
     258          0.459385        0.000000        0.00004340        0.01831579        0.00214982        0.00306268
     259          0.460392        0.000000        0.00000823        0.02317893        0.00172666        0.00021331