# Projected DOS for atomic kind Pb at iteration step i = 0, E(Fermi) =    -0.180627 a.u.
#     MO Eigenvalue [a.u.]      Occupation                 s                py                pz                px
       1         -0.978028        1.000000        0.00000003        0.00000031        0.00000033        0.00000031
       2         -0.957027        1.000000        0.00000111        0.00001236        0.00001846        0.00001320
       3         -0.951658        1.000000        0.00000027        0.00000215        0.00000141        0.00000184
       4         -0.945293        1.000000        0.00000031        0.00000250        0.00000588        0.00000062
       5         -0.944030        1.000000        0.00000004        0.00000049        0.00000056        0.00000044
       6         -0.943031        1.000000        0.00000047        0.00000577        0.00000549        0.00000419
       7         -0.935645        1.000000        0.00000040        0.00000584        0.00000588        0.00000298
       8         -0.709999        1.000000        0.00001774        0.00001149        0.00003059        0.00001921
       9         -0.703590        1.000000        0.00002250        0.00003148        0.00004170        0.00002136
      10         -0.691212        1.000000        0.00003869        0.00005883        0.00002310        0.00005788
      11         -0.690410        1.000000        0.00004689        0.00005780        0.00004769        0.00001474
      12         -0.689388        1.000000        0.00001427        0.00001560        0.00001327        0.00000799
      13         -0.683019        1.000000        0.00000156        0.00000302        0.00000269        0.00000173
      14         -0.681232        1.000000        0.00003717        0.00004012        0.00002682        0.00001252
      15         -0.638278        1.000000        0.00581059        0.00004780        0.00857418        0.00029430
      16         -0.617092        1.000000        0.01128134        0.00033756        0.00218975        0.00830179
      17         -0.609714        1.000000        0.00033439        0.00003110        0.00005687        0.00009306
      18         -0.600792        1.000000        0.02419513        0.00196893        0.00520702        0.00334479
      19         -0.596879        1.000000        0.05931295        0.01649050        0.00392103        0.00357459
      20         -0.593981        1.000000        0.05979437        0.00622275        0.00984399        0.00120374
      21         -0.592999        1.000000        0.02974773        0.00275077        0.01465598        0.00085456
      22         -0.590795        1.000000        0.02504131        0.00261644        0.00298145        0.00966561
      23         -0.587510        1.000000        0.04542455        0.00406810        0.00592509        0.00230180
      24         -0.586052        1.000000        0.07232336        0.00892869        0.00089899        0.00224631
      25         -0.585386        1.000000        0.01977679        0.00827248        0.00624048        0.00276809
      26         -0.584347        1.000000        0.02979692        0.00111270        0.01518314        0.00094184
      27         -0.583846        1.000000        0.02355895        0.00309264        0.00606560        0.00208220
      28         -0.582885        1.000000        0.01196806        0.00292795        0.00217812        0.00537237
      29         -0.581893        1.000000        0.08384933        0.00878757        0.00485738        0.00526197
      30         -0.581187        1.000000        0.00635973        0.00059492        0.00449036        0.00018350
      31         -0.579411        1.000000        0.00419486        0.00009442        0.00123409        0.00234005
      32         -0.577400        1.000000        0.05719702        0.00187488        0.01455027        0.00352265
      33         -0.576216        1.000000        0.01315291        0.00844485        0.00318841        0.01554104
      34         -0.571639        1.000000        0.04662944        0.01005366        0.00286711        0.00074880
      35         -0.571194        1.000000        0.02538814        0.00171755        0.00487931        0.01521740
      36         -0.570966        1.000000        0.01347985        0.00870050        0.00110661        0.01902697
      37         -0.570614        1.000000        0.02038081        0.00337118        0.00604436        0.00865129
      38         -0.569604        1.000000        0.02440135        0.00058838        0.00936423        0.01793146
      39         -0.568578        1.000000        0.01156428        0.00395306        0.00410199        0.00866848
      40         -0.567746        1.000000        0.00649427        0.00184259        0.00186728        0.00282394
      41         -0.566383        1.000000        0.04095438        0.00072069        0.00549902        0.01050230
      42         -0.565889        1.000000        0.01972797        0.00200622        0.00984887        0.00550255
      43         -0.564940        1.000000        0.01118715        0.00445798        0.01865397        0.00647149
      44         -0.563735        1.000000        0.03539415        0.00121514        0.00869828        0.00839654
      45         -0.563201        1.000000        0.00146141        0.00271591        0.00241182        0.00421818
      46         -0.563125        1.000000        0.00381568        0.00226138        0.00274292        0.00164050
      47         -0.561811        1.000000        0.00858965        0.00330887        0.01341680        0.00616771
      48         -0.561341        1.000000        0.00820205        0.00344133        0.00377619        0.01275947
      49         -0.561256        1.000000        0.00398019        0.00998759        0.00376401        0.00913433
      50         -0.560526        1.000000        0.00875178        0.01669554        0.00090338        0.00577344
      51         -0.559416        1.000000        0.00220449        0.00477377        0.01044775        0.00127084
      52         -0.559311        1.000000        0.00037452        0.00034012        0.01400083        0.01382684
      53         -0.559142        1.000000        0.00069299        0.00419698        0.00419561        0.00334211
      54         -0.557992        1.000000        0.00100115        0.00689637        0.00316373        0.00012450
      55         -0.557863        1.000000        0.00573577        0.01886482        0.00192227        0.00103377
      56         -0.557522        1.000000        0.00369612        0.00489274        0.00189912        0.00370081
      57         -0.555638        1.000000        0.00657914        0.01882298        0.00033935        0.00105314
      58         -0.554976        1.000000        0.00245430        0.01074610        0.00034435        0.00033894
      59         -0.554406        1.000000        0.00088290        0.00087663        0.00501266        0.00124952
      60         -0.553889        1.000000        0.00155232        0.00317865        0.00602586        0.00058545
      61         -0.553260        1.000000        0.00097951        0.00545470        0.00085399        0.00009242
      62         -0.551264        1.000000        0.00025580        0.00063911        0.00369739        0.00017208
      63         -0.548718        1.000000        0.00047104        0.00186464        0.00025413        0.00008690
      64         -0.544505        1.000000        0.00426153        0.00057749        0.00458556        0.00063698
      65         -0.498427        1.000000        0.00038223        0.00001874        0.00001278        0.00001200
      66         -0.485465        1.000000        0.00046143        0.00000925        0.00001822        0.00003059
      67         -0.475364        1.000000        0.00086929        0.00006872        0.00006628        0.00006695
      68         -0.471110        1.000000        0.01141510        0.00009417        0.00008454        0.00001888
      69         -0.469243        1.000000        0.00419480        0.00006173        0.00000953        0.00002700
      70         -0.466060        1.000000        0.00364170        0.00000665        0.00001787        0.00002063
      71         -0.461242        1.000000        0.01290557        0.00000774        0.00004016        0.00001633
      72         -0.459179        1.000000        0.74524987        0.00109079        0.00225514        0.00166258
      73         -0.456486        1.000000        0.76880814        0.00085017        0.00072148        0.00075469
      74         -0.454651        1.000000        0.76002595        0.00090080        0.00060661        0.00148995
      75         -0.453316        1.000000        0.74614496        0.00021167        0.00128121        0.00089616
      76         -0.450297        1.000000        0.75305097        0.00026915        0.00064216        0.00023384
      77         -0.449045        1.000000        0.77713873        0.00047963        0.00040595        0.00031200
      78         -0.448612        1.000000        0.76246803        0.00030114        0.00089281        0.00065784
      79         -0.444218        1.000000        0.78041115        0.00018502        0.00010121        0.00027918
      80         -0.421022        1.000000        0.00092946        0.00002871        0.00009555        0.00004397
      81         -0.419802        1.000000        0.00049047        0.00001008        0.00006114        0.00003737
      82         -0.417244        1.000000        0.00073489        0.00002452        0.00008236        0.00008933
      83         -0.416515        1.000000        0.00013649        0.00010654        0.00001876        0.00007520
      84         -0.409490        1.000000        0.00044406        0.00012265        0.00012416        0.00006146
      85         -0.406385        1.000000        0.00075928        0.00003787        0.00004785        0.00016055
      86         -0.405488        1.000000        0.00048889        0.00007073        0.00009606        0.00011531
      87         -0.405012        1.000000        0.00028212        0.00005543        0.00002589        0.00003030
      88         -0.403739        1.000000        0.00050160        0.00004524        0.00014169        0.00010314
      89         -0.403095        1.000000        0.00070540        0.00001243        0.00021965        0.00001615
      90         -0.399533        1.000000        0.00001466        0.00002648        0.00000350        0.00000446
      91         -0.398918        1.000000        0.00015530        0.00004093        0.00003282        0.00000324
      92         -0.395670        1.000000        0.00026707        0.00004609        0.00012083        0.00002534
      93         -0.395295        1.000000        0.00005706        0.00000374        0.00001278        0.00003962
      94         -0.317867        1.000000        0.00483297        0.00026052        0.02382139        0.00701902
      95         -0.291815        1.000000        0.00175355        0.00228844        0.02598928        0.02184559
      96         -0.276898        1.000000        0.00351957        0.00204519        0.14773421        0.00276209
      97         -0.272686        1.000000        0.01369966        0.09489230        0.13372528        0.04895808
      98         -0.269701        1.000000        0.00540232        0.07027052        0.07802980        0.03897134
      99         -0.269078        1.000000        0.00588171        0.10604479        0.06954250        0.05881623
     100         -0.265324        1.000000        0.00474295        0.05433975        0.04283699        0.16390899
     101         -0.264332        1.000000        0.00209147        0.08964800        0.02300798        0.10669672
     102         -0.262773        1.000000        0.00208114        0.09788058        0.04127938        0.05160616
     103         -0.260760        1.000000        0.00205185        0.03562794        0.05854953        0.13111324
     104         -0.260360        1.000000        0.00205816        0.05247897        0.05736706        0.10611669
     105         -0.257268        1.000000        0.00616223        0.04114943        0.15028633        0.06433611
     106         -0.255110        1.000000        0.00729726        0.03837247        0.13472938        0.08359526
     107         -0.252852        1.000000        0.00438031        0.11666237        0.03106845        0.05282194
     108         -0.250409        1.000000        0.00374903        0.07310489        0.02179115        0.12514291
     109         -0.248290        1.000000        0.00748751        0.14825761        0.06109493        0.02710305
     110         -0.243654        1.000000        0.00304396        0.10452988        0.04729367        0.06788067
     111         -0.243270        1.000000        0.00371260        0.04435544        0.09098323        0.06731522
     112         -0.241784        1.000000        0.00326153        0.05352326        0.11968797        0.04745341
     113         -0.240968        1.000000        0.00512415        0.06520166        0.09140297        0.05468537
     114         -0.239574        1.000000        0.00193553        0.07204691        0.03694530        0.10984293
     115         -0.237676        1.000000        0.00260862        0.03365002        0.02629995        0.05132165
     116         -0.236777        1.000000        0.00169627        0.05738941        0.00927252        0.03017846
     117         -0.235339        1.000000        0.00108736        0.12682924        0.05050834        0.02953121
     118         -0.234104        1.000000        0.01507681        0.02527742        0.07930334        0.08883456
     119         -0.232089        1.000000        0.00181765        0.06148971        0.04596587        0.06030036
     120         -0.229716        1.000000        0.00134597        0.05891818        0.01794403        0.02639417
     121         -0.227717        1.000000        0.00631917        0.02290139        0.03383542        0.02449895
     122         -0.226720        1.000000        0.00419187        0.02042045        0.01196102        0.02037525
     123         -0.224786        1.000000        0.00632670        0.06317228        0.02657604        0.03813484
     124         -0.223806        1.000000        0.00982641        0.01570004        0.06122941        0.02276838
     125         -0.221569        1.000000        0.00941744        0.01880494        0.02913054        0.03034704
     126         -0.219490        1.000000        0.00887126        0.02286685        0.02339866        0.02652157
     127         -0.218437        1.000000        0.00465762        0.02215753        0.01472361        0.01318492
     128         -0.216934        1.000000        0.00299423        0.02195498        0.01657090        0.00682361
     129         -0.215596        1.000000        0.00946224        0.01438580        0.02369791        0.01642341
     130         -0.214313        1.000000        0.00397732        0.00637549        0.00725174        0.00418924
     131         -0.213518        1.000000        0.00490947        0.00976223        0.00194284        0.01587318
     132         -0.213307        1.000000        0.00201444        0.00322710        0.00224057        0.00508307
     133         -0.211881        1.000000        0.00108674        0.01162115        0.00222656        0.00148022
     134         -0.210345        1.000000        0.00285739        0.00840230        0.00396111        0.00130415
     135         -0.208912        1.000000        0.00438674        0.00696761        0.00689882        0.00952208
     136         -0.208253        1.000000        0.00114395        0.00552334        0.00256234        0.00258534
     137         -0.208079        1.000000        0.00367070        0.00362555        0.00137430        0.00354451
     138         -0.206836        1.000000        0.00303091        0.00640345        0.00395968        0.00193399
     139         -0.206540        1.000000        0.00158629        0.00593354        0.00096870        0.00249334
     140         -0.205598        1.000000        0.00542993        0.00561096        0.00456397        0.00452134
     141         -0.204974        1.000000        0.00771717        0.00468347        0.00347744        0.00547514
     142         -0.203854        1.000000        0.00220658        0.00212625        0.00341979        0.00529847
     143         -0.202174        1.000000        0.00138714        0.00251456        0.00112602        0.00252556
     144         -0.201720        1.000000        0.00896880        0.00261270        0.00606940        0.00670802
     145         -0.201458        1.000000        0.00186606        0.00292457        0.00256650        0.00363173
     146         -0.201100        1.000000        0.00262240        0.00191795        0.00259890        0.00167315
     147         -0.200107        1.000000        0.00250974        0.00275388        0.00331866        0.00156943
     148         -0.199441        1.000000        0.00560978        0.00631024        0.00626032        0.00538468
     149         -0.199065        1.000000        0.00300707        0.00123356        0.00348643        0.00324310
     150         -0.197888        1.000000        0.00683402        0.00953459        0.00169763        0.00328991
     151         -0.197099        1.000000        0.00545212        0.00111627        0.00080080        0.00093712
     152         -0.196670        1.000000        0.00728540        0.00513685        0.00512131        0.00407685
     153         -0.196390        1.000000        0.00312697        0.00421867        0.00302448        0.00267766
     154         -0.195438        1.000000        0.00505215        0.00242214        0.00139269        0.00423965
     155         -0.194728        1.000000        0.00306916        0.00150237        0.00104865        0.00093364
     156         -0.194638        1.000000        0.00355926        0.00138328        0.00167052        0.00176725
     157         -0.194165        1.000000        0.00721269        0.00377633        0.00290464        0.00183286
     158         -0.193597        1.000000        0.00370120        0.00092022        0.00111878        0.00102428
     159         -0.192693        1.000000        0.00951409        0.00105417        0.00225166        0.00618126
     160         -0.191697        1.000000        0.00601726        0.00177004        0.00185430        0.00892417
     161         -0.191352        1.000000        0.00820234        0.00398773        0.00200347        0.00224805
     162         -0.191149        1.000000        0.00590731        0.00151846        0.00196029        0.00425797
     163         -0.190877        1.000000        0.00769710        0.00144894        0.00162146        0.00171913
     164         -0.190357        1.000000        0.01070705        0.00139922        0.00125970        0.00328437
     165         -0.190038        1.000000        0.00592078        0.00084576        0.00201954        0.00282862
     166         -0.189781        1.000000        0.00448887        0.00134594        0.00279003        0.00063758
     167         -0.189602        1.000000        0.00782345        0.00073915        0.00176162        0.00279190
     168         -0.189259        1.000000        0.01111323        0.00145249        0.00268328        0.00379019
     169         -0.188840        1.000000        0.00633670        0.00052177        0.00035641        0.00120399
     170         -0.188594        1.000000        0.01002904        0.00109479        0.00193385        0.00348666
     171         -0.187728        1.000000        0.00535515        0.00065088        0.00136242        0.00146415
     172         -0.187023        1.000000        0.00663492        0.00042304        0.00121146        0.00124893
     173         -0.186822        1.000000        0.00468036        0.00102169        0.00239461        0.00071784
     174         -0.186565        1.000000        0.01100157        0.00093653        0.00155972        0.00190717
     175         -0.186110        1.000000        0.00407737        0.00060944        0.00080555        0.00142376
     176         -0.185995        1.000000        0.00541052        0.00091189        0.00095490        0.00120877
     177         -0.185471        1.000000        0.00711332        0.00063355        0.00125390        0.00075661
     178         -0.185402        1.000000        0.01320164        0.00059481        0.00263384        0.00214355
     179         -0.184964        1.000000        0.01264630        0.00087398        0.00281808        0.00123045
     180         -0.184722        1.000000        0.00583618        0.00037614        0.00112927        0.00073555
     181         -0.183908        1.000000        0.01070761        0.00123322        0.00044530        0.00142093
     182         -0.183833        1.000000        0.00620996        0.00025806        0.00167653        0.00116278
     183         -0.183427        1.000000        0.00478762        0.00027479        0.00112608        0.00066419
     184         -0.183381        1.000000        0.00281979        0.00045782        0.00075478        0.00089144
     185         -0.183112        1.000000        0.00330534        0.00025933        0.00079984        0.00048970
     186         -0.182956        1.000000        0.00428440        0.00044219        0.00084435        0.00093513
     187         -0.182774        1.000000        0.01576707        0.00053393        0.00148227        0.00178854
     188         -0.182577        1.000000        0.00971576        0.00052526        0.00088317        0.00111915
     189         -0.182482        1.000000        0.00600792        0.00044906        0.00097472        0.00045066
     190         -0.182164        1.000000        0.01547415        0.00066836        0.00122428        0.00120921
     191         -0.181982        1.000000        0.00988860        0.00087091        0.00098633        0.00121661
     192         -0.181605        1.000000        0.00834150        0.00043643        0.00021051        0.00190403
     193         -0.181099        1.000000        0.00809653        0.00061474        0.00107988        0.00067023
     194         -0.180627        1.000000        0.01233968        0.00068344        0.00036852        0.00078409
     195         -0.180579        0.000000        0.00445126        0.00040871        0.00031408        0.00023122
     196         -0.180280        0.000000        0.01552468        0.00055683        0.00160232        0.00113709
     197         -0.179455        0.000000        0.08865973        0.00427913        0.00459641        0.00385037
     198         -0.179057        0.000000        0.06076749        0.00151697        0.00538537        0.00320954
     199         -0.178888        0.000000        0.05481071        0.00167299        0.00601223        0.00337835
     200         -0.178402        0.000000        0.07470383        0.00036380        0.00659382        0.00551363
     201         -0.164360        0.000000        0.00233169        0.00013431        0.00039693        0.00268458
     202         -0.072945        0.000000        0.00534405        0.30144329        0.31383420        0.12148057
     203         -0.069350        0.000000        0.00873037        0.15673685        0.07074961        0.49890679
     204         -0.065029        0.000000        0.00527800        0.46951807        0.04629568        0.22836529
     205         -0.062452        0.000000        0.00476294        0.21932534        0.02518427        0.47087047
     206         -0.058243        0.000000        0.00339031        0.30138791        0.12738108        0.29266638
     207         -0.055913        0.000000        0.00545726        0.15030280        0.40967641        0.15019276
     208         -0.055172        0.000000        0.00251607        0.42379353        0.15259442        0.13449649
     209         -0.053249        0.000000        0.00688918        0.17372725        0.35174608        0.18107400
     210         -0.048843        0.000000        0.00371952        0.21392148        0.12383601        0.37153515
     211         -0.046832        0.000000        0.00760424        0.10503288        0.32476656        0.26328517
     212         -0.044702        0.000000        0.00239096        0.29954832        0.18788799        0.22009618
     213         -0.043508        0.000000        0.00423822        0.13682752        0.31683621        0.24234001
     214         -0.043120        0.000000        0.00189649        0.25062780        0.19136932        0.26161747
     215         -0.040756        0.000000        0.00196214        0.38186635        0.24317825        0.07490145
     216         -0.036862        0.000000        0.00439865        0.14107278        0.08763809        0.46608569
     217         -0.031597        0.000000        0.00221065        0.02930255        0.55829570        0.11226661
     218         -0.029232        0.000000        0.00118626        0.12804680        0.42873762        0.13523276
     219         -0.026870        0.000000        0.00120163        0.24928378        0.33145051        0.11030842
     220         -0.023511        0.000000        0.00040306        0.37614242        0.17491910        0.13838405
     221         -0.020374        0.000000        0.00019041        0.53123742        0.00773432        0.14305821
     222         -0.019128        0.000000        0.00028227        0.08568099        0.15951772        0.43858522
     223         -0.017825        0.000000        0.00148111        0.27495554        0.22033918        0.19049966
     224         -0.011030        0.000000        0.00046550        0.18977987        0.11554926        0.37751680
     225         -0.007834        0.000000        0.00189422        0.04477573        0.62803980        0.00464980
     226          0.084797        0.000000        0.00000188        0.00005931        0.00007437        0.00005082
     227          0.090575        0.000000        0.00000036        0.00008886        0.00005273        0.00006438
     228          0.099920        0.000000        0.00000499        0.00012994        0.00013006        0.00000407
     229          0.102980        0.000000        0.00000886        0.00034698        0.00021052        0.00022037
     230          0.104332        0.000000        0.00000170        0.00006356        0.00005435        0.00003778
     231          0.105665        0.000000        0.00000148        0.00005541        0.00000506        0.00005460
     232          0.107867        0.000000        0.00000033        0.00004055        0.00003869        0.00000923
     233          0.166266        0.000000        0.00000026        0.00000135        0.00000196        0.00000930
     234          0.170928        0.000000        0.00000102        0.00000299        0.00001666        0.00000127
     235          0.203916        0.000000        0.00000026        0.00000960        0.00000196        0.00000967
     236          0.233526        0.000000        0.00000102        0.00000105        0.00000388        0.00001213
     237          0.252851        0.000000        0.00000092        0.00001061        0.00000299        0.00000395
     238          0.282350        0.000000        0.00000073        0.00001908        0.00000695        0.00003021
     239          0.283829        0.000000        0.00002024        0.00000195        0.00001790        0.00021534
     240          0.288359        0.000000        0.00000669        0.00013876        0.00006841        0.00002142
     241          0.291556        0.000000        0.00000094        0.00016444        0.00006299        0.00004506
     242          0.292872        0.000000        0.00000569        0.00004113        0.00012395        0.00001752
     243          0.294416        0.000000        0.00000445        0.00009195        0.00008971        0.00002708
     244          0.295123        0.000000        0.00001061        0.00001472        0.00011117        0.00003979
     245          0.299204        0.000000        0.00000828        0.00000927        0.00005192        0.00014228
     246          0.301391        0.000000        0.00001640        0.00018506        0.00009588        0.00003415
     247          0.306877        0.000000        0.00000286        0.00002614        0.00003664        0.00001016
     248          0.323435        0.000000        0.00000279        0.00002188        0.00005977        0.00005982
     249          0.325597        0.000000        0.00000769        0.00000762        0.00011778        0.00000604
     250          0.328161        0.000000        0.00001167        0.00002358        0.00005878        0.00019038
     251          0.336334        0.000000        0.00000755        0.00008654        0.00011505        0.00001991
     252          0.337581        0.000000        0.00001810        0.00019178        0.00006838        0.00010048
     253          0.344807        0.000000        0.00000412        0.00004134        0.00004923        0.00002762
     254          0.442201        0.000000        0.00000074        0.00002534        0.00002691        0.00002890
     255          0.447701        0.000000        0.00000042        0.00001050        0.00001124        0.00000933
     256          0.450361        0.000000        0.00000056        0.00000792        0.00003173        0.00001487
     257          0.451460        0.000000        0.00000078        0.00000276        0.00000874        0.00001687
     258          0.459385        0.000000        0.00000124        0.00001615        0.00000475        0.00002272
     259          0.460392        0.000000        0.00000049        0.00000055        0.00001105        0.00000362