# Projected DOS for atomic kind H at iteration step i = 0, E(Fermi) =    -0.180909 a.u.
#     MO Eigenvalue [a.u.]      Occupation                 s
       1         -0.978171        1.000000        0.26954834
       2         -0.957199        1.000000        0.27002923
       3         -0.951817        1.000000        0.26842524
       4         -0.945466        1.000000        0.28246892
       5         -0.944220        1.000000        0.27720602
       6         -0.943219        1.000000        0.28010078
       7         -0.935816        1.000000        0.28106299
       8         -0.710152        1.000000        0.32869730
       9         -0.703756        1.000000        0.34800475
      10         -0.691390        1.000000        0.34051337
      11         -0.690613        1.000000        0.34825428
      12         -0.689569        1.000000        0.34386068
      13         -0.683193        1.000000        0.34177819
      14         -0.681440        1.000000        0.34440577
      15         -0.638328        1.000000        0.00814020
      16         -0.617553        1.000000        0.00096814
      17         -0.609882        1.000000        0.33194751
      18         -0.601284        1.000000        0.05580903
      19         -0.597325        1.000000        0.04332515
      20         -0.594617        1.000000        0.04446544
      21         -0.593331        1.000000        0.09188874
      22         -0.591493        1.000000        0.13234288
      23         -0.588176        1.000000        0.08211455
      24         -0.587411        1.000000        0.03779010
      25         -0.585996        1.000000        0.11948349
      26         -0.585092        1.000000        0.09866398
      27         -0.584278        1.000000        0.23440355
      28         -0.583241        1.000000        0.06112162
      29         -0.582871        1.000000        0.00709316
      30         -0.581368        1.000000        0.26174047
      31         -0.579703        1.000000        0.00129482
      32         -0.577897        1.000000        0.06531189
      33         -0.576860        1.000000        0.06063290
      34         -0.572525        1.000000        0.09729788
      35         -0.572121        1.000000        0.01503584
      36         -0.571656        1.000000        0.05015377
      37         -0.571003        1.000000        0.14660095
      38         -0.569815        1.000000        0.03462956
      39         -0.569298        1.000000        0.12450291
      40         -0.568154        1.000000        0.24541580
      41         -0.566844        1.000000        0.11648841
      42         -0.566392        1.000000        0.12516806
      43         -0.566148        1.000000        0.01065674
      44         -0.564713        1.000000        0.06556167
      45         -0.563888        1.000000        0.17680479
      46         -0.563474        1.000000        0.22668162
      47         -0.562868        1.000000        0.10205211
      48         -0.561831        1.000000        0.07081848
      49         -0.561543        1.000000        0.00530003
      50         -0.560215        1.000000        0.03959618
      51         -0.559575        1.000000        0.18323067
      52         -0.559180        1.000000        0.02829060
      53         -0.559092        1.000000        0.04286708
      54         -0.558549        1.000000        0.01071268
      55         -0.558208        1.000000        0.05868606
      56         -0.557964        1.000000        0.16104743
      57         -0.556393        1.000000        0.00079349
      58         -0.555617        1.000000        0.02104137
      59         -0.554606        1.000000        0.04395475
      60         -0.554389        1.000000        0.08384676
      61         -0.554093        1.000000        0.15425669
      62         -0.552227        1.000000        0.14538297
      63         -0.549831        1.000000        0.05079359
      64         -0.544966        1.000000        0.23124875
      65         -0.498563        1.000000        0.19739959
      66         -0.485627        1.000000        0.18149949
      67         -0.475526        1.000000        0.18628844
      68         -0.471291        1.000000        0.17596024
      69         -0.469432        1.000000        0.17639754
      70         -0.466235        1.000000        0.18186784
      71         -0.461444        1.000000        0.17710073
      72         -0.459668        1.000000        0.00117403
      73         -0.457070        1.000000        0.00131322
      74         -0.455282        1.000000        0.00065869
      75         -0.454326        1.000000        0.00095326
      76         -0.451416        1.000000        0.00172633
      77         -0.449516        1.000000        0.00073814
      78         -0.448925        1.000000        0.00224251
      79         -0.444676        1.000000        0.00125207
      80         -0.421180        1.000000        0.42499681
      81         -0.419941        1.000000        0.41709103
      82         -0.417419        1.000000        0.42199019
      83         -0.416656        1.000000        0.41846391
      84         -0.409698        1.000000        0.42414305
      85         -0.406593        1.000000        0.42075301
      86         -0.405678        1.000000        0.42180778
      87         -0.405193        1.000000        0.42263589
      88         -0.403930        1.000000        0.42051931
      89         -0.403274        1.000000        0.42152211
      90         -0.399676        1.000000        0.42266143
      91         -0.399123        1.000000        0.42406526
      92         -0.395885        1.000000        0.42102981
      93         -0.395487        1.000000        0.41843073
      94         -0.317963        1.000000        0.00095060
      95         -0.292249        1.000000        0.00045438
      96         -0.277295        1.000000        0.00042902
      97         -0.273123        1.000000        0.00025718
      98         -0.270603        1.000000        0.00088524
      99         -0.269993        1.000000        0.00045399
     100         -0.266877        1.000000        0.00062610
     101         -0.265018        1.000000        0.00033277
     102         -0.263639        1.000000        0.00043109
     103         -0.261867        1.000000        0.00075317
     104         -0.261273        1.000000        0.00033092
     105         -0.257952        1.000000        0.00044899
     106         -0.255926        1.000000        0.00037081
     107         -0.253946        1.000000        0.00098249
     108         -0.251662        1.000000        0.00031424
     109         -0.249824        1.000000        0.00071075
     110         -0.244721        1.000000        0.00059164
     111         -0.244205        1.000000        0.00068929
     112         -0.242649        1.000000        0.00058461
     113         -0.242171        1.000000        0.00083607
     114         -0.240304        1.000000        0.00101580
     115         -0.238081        1.000000        0.00265706
     116         -0.237408        1.000000        0.00059229
     117         -0.236306        1.000000        0.00056638
     118         -0.234850        1.000000        0.00079131
     119         -0.232747        1.000000        0.00055786
     120         -0.230387        1.000000        0.00117238
     121         -0.228205        1.000000        0.00145975
     122         -0.227356        1.000000        0.00136666
     123         -0.225764        1.000000        0.00104463
     124         -0.224677        1.000000        0.00069491
     125         -0.222656        1.000000        0.00040259
     126         -0.219947        1.000000        0.00174286
     127         -0.219243        1.000000        0.00136281
     128         -0.217921        1.000000        0.00178406
     129         -0.216695        1.000000        0.00117114
     130         -0.215074        1.000000        0.00216487
     131         -0.213986        1.000000        0.00132466
     132         -0.213372        1.000000        0.00140481
     133         -0.212640        1.000000        0.00087818
     134         -0.210777        1.000000        0.00098188
     135         -0.209838        1.000000        0.00073369
     136         -0.208791        1.000000        0.00074721
     137         -0.208087        1.000000        0.00070284
     138         -0.207740        1.000000        0.00083211
     139         -0.207178        1.000000        0.00084193
     140         -0.206027        1.000000        0.00080348
     141         -0.205695        1.000000        0.00043207
     142         -0.204755        1.000000        0.00083347
     143         -0.202863        1.000000        0.00079730
     144         -0.202437        1.000000        0.00138210
     145         -0.202330        1.000000        0.00059054
     146         -0.201813        1.000000        0.00108253
     147         -0.200965        1.000000        0.00041683
     148         -0.200683        1.000000        0.00068203
     149         -0.199416        1.000000        0.00048285
     150         -0.198579        1.000000        0.00051859
     151         -0.198306        1.000000        0.00090067
     152         -0.196377        1.000000        0.00034339
     153         -0.196047        1.000000        0.00026761
     154         -0.195470        1.000000        0.00054054
     155         -0.195040        1.000000        0.00044511
     156         -0.194168        1.000000        0.00054285
     157         -0.193544        1.000000        0.00045049
     158         -0.192740        1.000000        0.00054408
     159         -0.192354        1.000000        0.00049508
     160         -0.192078        1.000000        0.00054788
     161         -0.191752        1.000000        0.00054237
     162         -0.191479        1.000000        0.00040531
     163         -0.191002        1.000000        0.00031524
     164         -0.190723        1.000000        0.00043084
     165         -0.190597        1.000000        0.00017616
     166         -0.190386        1.000000        0.00054123
     167         -0.190119        1.000000        0.00026761
     168         -0.189669        1.000000        0.00064797
     169         -0.188615        1.000000        0.00053044
     170         -0.188201        1.000000        0.00022930
     171         -0.187972        1.000000        0.00020383
     172         -0.187312        1.000000        0.00014208
     173         -0.186940        1.000000        0.00047136
     174         -0.186547        1.000000        0.00025804
     175         -0.186195        1.000000        0.00035076
     176         -0.185810        1.000000        0.00017689
     177         -0.185286        1.000000        0.00019060
     178         -0.184973        1.000000        0.00029813
     179         -0.184738        1.000000        0.00030144
     180         -0.184422        1.000000        0.00014849
     181         -0.184248        1.000000        0.00018933
     182         -0.184030        1.000000        0.00018787
     183         -0.183891        1.000000        0.00022314
     184         -0.183711        1.000000        0.00016553
     185         -0.183565        1.000000        0.00025810
     186         -0.183197        1.000000        0.00018681
     187         -0.183185        1.000000        0.00021788
     188         -0.182684        1.000000        0.00013335
     189         -0.182539        1.000000        0.00021384
     190         -0.181817        1.000000        0.00011315
     191         -0.181621        1.000000        0.00018424
     192         -0.181369        1.000000        0.00017307
     193         -0.181174        1.000000        0.00007775
     194         -0.181037        1.000000        0.00017424
     195         -0.180909        1.000000        0.00010521
     196         -0.180875        0.000000        0.00012081
     197         -0.180645        0.000000        0.00005765
     198         -0.180478        0.000000        0.00010433
     199         -0.180075        0.000000        0.00011180
     200         -0.179749        0.000000        0.00015316
     201         -0.164491        0.000000        0.00013124
     202         -0.073434        0.000000        0.00006419
     203         -0.069804        0.000000        0.00037993
     204         -0.065374        0.000000        0.00036437
     205         -0.062727        0.000000        0.00007227
     206         -0.058440        0.000000        0.00017072
     207         -0.056312        0.000000        0.00017236
     208         -0.055536        0.000000        0.00013014
     209         -0.053591        0.000000        0.00027133
     210         -0.049137        0.000000        0.00028308
     211         -0.047345        0.000000        0.00030407
     212         -0.045041        0.000000        0.00041496
     213         -0.044031        0.000000        0.00015449
     214         -0.043545        0.000000        0.00033503
     215         -0.041505        0.000000        0.00029108
     216         -0.037831        0.000000        0.00061342
     217         -0.032079        0.000000        0.00009161
     218         -0.030146        0.000000        0.00007968
     219         -0.027258        0.000000        0.00026186
     220         -0.023899        0.000000        0.00014505
     221         -0.021437        0.000000        0.00017526
     222         -0.019857        0.000000        0.00011323
     223         -0.018492        0.000000        0.00012473
     224         -0.011647        0.000000        0.00021866
     225         -0.008132        0.000000        0.00028385
     226          0.084657        0.000000        0.00689473
     227          0.090423        0.000000        0.00487790
     228          0.099770        0.000000        0.00464537
     229          0.102821        0.000000        0.00573362
     230          0.104148        0.000000        0.00447845
     231          0.105506        0.000000        0.00382905
     232          0.107690        0.000000        0.00428384
     233          0.166114        0.000000        0.66458629
     234          0.170759        0.000000        0.65884355
     235          0.203710        0.000000        0.65827694
     236          0.233361        0.000000        0.65031854
     237          0.252611        0.000000        0.66378550
     238          0.282184        0.000000        0.66773686
     239          0.283651        0.000000        0.65557882
     240          0.288221        0.000000        0.66236313
     241          0.291388        0.000000        0.66376762
     242          0.292701        0.000000        0.66552143
     243          0.294195        0.000000        0.65917003
     244          0.294954        0.000000        0.66300874
     245          0.298972        0.000000        0.66383143
     246          0.301210        0.000000        0.66181414
     247          0.306712        0.000000        0.66140193
     248          0.323268        0.000000        0.64241539
     249          0.325426        0.000000        0.64388467
     250          0.327936        0.000000        0.64029618
     251          0.336170        0.000000        0.62963774
     252          0.337400        0.000000        0.63088716
     253          0.344624        0.000000        0.63093715
     254          0.442053        0.000000        0.58452444
     255          0.447581        0.000000        0.58914125
     256          0.450216        0.000000        0.58165215
     257          0.451349        0.000000        0.58942660
     258          0.459214        0.000000        0.58305699
     259          0.460240        0.000000        0.58208236
     260          0.461181        0.000000        0.58296019
     261          0.461300        0.000000        0.58815266
     262          0.463364        0.000000        0.58374711
     263          0.465189        0.000000        0.58238978
     264          0.466911        0.000000        0.57757763
     265          0.469367        0.000000        0.58311978
     266          0.472010        0.000000        0.58038018
     267          0.480238        0.000000        0.58455734
     268          0.550354        0.000000        0.55156807
     269          0.559569        0.000000        0.55317235
     270          0.560231        0.000000        0.55189192
     271          0.563197        0.000000        0.55243754
     272          0.565146        0.000000        0.55327157
     273          0.570191        0.000000        0.55184273
     274          0.572830        0.000000        0.55279416
