# Projected DOS for atomic kind H at iteration step i = 0, E(Fermi) =    -0.180627 a.u.
#     MO Eigenvalue [a.u.]      Occupation                 s
       1         -0.978028        1.000000        0.26950890
       2         -0.957027        1.000000        0.27000785
       3         -0.951658        1.000000        0.26842001
       4         -0.945293        1.000000        0.28243732
       5         -0.944030        1.000000        0.27715748
       6         -0.943031        1.000000        0.28008226
       7         -0.935645        1.000000        0.28101612
       8         -0.709999        1.000000        0.32871892
       9         -0.703590        1.000000        0.34800395
      10         -0.691212        1.000000        0.34047487
      11         -0.690410        1.000000        0.34816971
      12         -0.689388        1.000000        0.34392279
      13         -0.683019        1.000000        0.34178672
      14         -0.681232        1.000000        0.34438605
      15         -0.638278        1.000000        0.00809087
      16         -0.617092        1.000000        0.00096895
      17         -0.609714        1.000000        0.33193867
      18         -0.600792        1.000000        0.05734931
      19         -0.596879        1.000000        0.04344521
      20         -0.593981        1.000000        0.04508805
      21         -0.592999        1.000000        0.09055557
      22         -0.590795        1.000000        0.14421441
      23         -0.587510        1.000000        0.09296707
      24         -0.586052        1.000000        0.04699193
      25         -0.585386        1.000000        0.13523491
      26         -0.584347        1.000000        0.14621020
      27         -0.583846        1.000000        0.17176200
      28         -0.582885        1.000000        0.04374106
      29         -0.581893        1.000000        0.00975820
      30         -0.581187        1.000000        0.26210702
      31         -0.579411        1.000000        0.00162916
      32         -0.577400        1.000000        0.07095330
      33         -0.576216        1.000000        0.05488447
      34         -0.571639        1.000000        0.11481160
      35         -0.571194        1.000000        0.06879666
      36         -0.570966        1.000000        0.03417232
      37         -0.570614        1.000000        0.11940995
      38         -0.569604        1.000000        0.03202046
      39         -0.568578        1.000000        0.12275511
      40         -0.567746        1.000000        0.23621123
      41         -0.566383        1.000000        0.11763181
      42         -0.565889        1.000000        0.12317593
      43         -0.564940        1.000000        0.06319917
      44         -0.563735        1.000000        0.05705624
      45         -0.563201        1.000000        0.18354511
      46         -0.563125        1.000000        0.21092406
      47         -0.561811        1.000000        0.06703476
      48         -0.561341        1.000000        0.01865707
      49         -0.561256        1.000000        0.04290484
      50         -0.560526        1.000000        0.01564819
      51         -0.559416        1.000000        0.09217714
      52         -0.559311        1.000000        0.04009389
      53         -0.559142        1.000000        0.15744910
      54         -0.557992        1.000000        0.00719777
      55         -0.557863        1.000000        0.04635495
      56         -0.557522        1.000000        0.17078532
      57         -0.555638        1.000000        0.00079177
      58         -0.554976        1.000000        0.05172742
      59         -0.554406        1.000000        0.04422031
      60         -0.553889        1.000000        0.17686874
      61         -0.553260        1.000000        0.03443734
      62         -0.551264        1.000000        0.13233104
      63         -0.548718        1.000000        0.04136616
      64         -0.544505        1.000000        0.22544922
      65         -0.498427        1.000000        0.19737245
      66         -0.485465        1.000000        0.18145159
      67         -0.475364        1.000000        0.18629928
      68         -0.471110        1.000000        0.17605233
      69         -0.469243        1.000000        0.17637802
      70         -0.466060        1.000000        0.18193783
      71         -0.461242        1.000000        0.17723056
      72         -0.459179        1.000000        0.00103283
      73         -0.456486        1.000000        0.00123190
      74         -0.454651        1.000000        0.00067930
      75         -0.453316        1.000000        0.00097093
      76         -0.450297        1.000000        0.00158905
      77         -0.449045        1.000000        0.00071788
      78         -0.448612        1.000000        0.00225247
      79         -0.444218        1.000000        0.00123544
      80         -0.421022        1.000000        0.42499498
      81         -0.419802        1.000000        0.41711426
      82         -0.417244        1.000000        0.42197710
      83         -0.416515        1.000000        0.41850364
      84         -0.409490        1.000000        0.42412170
      85         -0.406385        1.000000        0.42074479
      86         -0.405488        1.000000        0.42180008
      87         -0.405012        1.000000        0.42259115
      88         -0.403739        1.000000        0.42048558
      89         -0.403095        1.000000        0.42149611
      90         -0.399533        1.000000        0.42272871
      91         -0.398918        1.000000        0.42404177
      92         -0.395670        1.000000        0.42097221
      93         -0.395295        1.000000        0.41840290
      94         -0.317867        1.000000        0.00094823
      95         -0.291815        1.000000        0.00044681
      96         -0.276898        1.000000        0.00043410
      97         -0.272686        1.000000        0.00026645
      98         -0.269701        1.000000        0.00074622
      99         -0.269078        1.000000        0.00066117
     100         -0.265324        1.000000        0.00063596
     101         -0.264332        1.000000        0.00032320
     102         -0.262773        1.000000        0.00052757
     103         -0.260760        1.000000        0.00063887
     104         -0.260360        1.000000        0.00037014
     105         -0.257268        1.000000        0.00044627
     106         -0.255110        1.000000        0.00035550
     107         -0.252852        1.000000        0.00108301
     108         -0.250409        1.000000        0.00040177
     109         -0.248290        1.000000        0.00063475
     110         -0.243654        1.000000        0.00072523
     111         -0.243270        1.000000        0.00062266
     112         -0.241784        1.000000        0.00064420
     113         -0.240968        1.000000        0.00082243
     114         -0.239574        1.000000        0.00106382
     115         -0.237676        1.000000        0.00261586
     116         -0.236777        1.000000        0.00060440
     117         -0.235339        1.000000        0.00054509
     118         -0.234104        1.000000        0.00072676
     119         -0.232089        1.000000        0.00058896
     120         -0.229716        1.000000        0.00123305
     121         -0.227717        1.000000        0.00148319
     122         -0.226720        1.000000        0.00133139
     123         -0.224786        1.000000        0.00099915
     124         -0.223806        1.000000        0.00084295
     125         -0.221569        1.000000        0.00045109
     126         -0.219490        1.000000        0.00175019
     127         -0.218437        1.000000        0.00127367
     128         -0.216934        1.000000        0.00188133
     129         -0.215596        1.000000        0.00090508
     130         -0.214313        1.000000        0.00205640
     131         -0.213518        1.000000        0.00118853
     132         -0.213307        1.000000        0.00161747
     133         -0.211881        1.000000        0.00085609
     134         -0.210345        1.000000        0.00097395
     135         -0.208912        1.000000        0.00066270
     136         -0.208253        1.000000        0.00104817
     137         -0.208079        1.000000        0.00055709
     138         -0.206836        1.000000        0.00085510
     139         -0.206540        1.000000        0.00080542
     140         -0.205598        1.000000        0.00086038
     141         -0.204974        1.000000        0.00069102
     142         -0.203854        1.000000        0.00080660
     143         -0.202174        1.000000        0.00053616
     144         -0.201720        1.000000        0.00050721
     145         -0.201458        1.000000        0.00152672
     146         -0.201100        1.000000        0.00110895
     147         -0.200107        1.000000        0.00054584
     148         -0.199441        1.000000        0.00034507
     149         -0.199065        1.000000        0.00062220
     150         -0.197888        1.000000        0.00045744
     151         -0.197099        1.000000        0.00077611
     152         -0.196670        1.000000        0.00047281
     153         -0.196390        1.000000        0.00028207
     154         -0.195438        1.000000        0.00023533
     155         -0.194728        1.000000        0.00053507
     156         -0.194638        1.000000        0.00023080
     157         -0.194165        1.000000        0.00021681
     158         -0.193597        1.000000        0.00084032
     159         -0.192693        1.000000        0.00025355
     160         -0.191697        1.000000        0.00015927
     161         -0.191352        1.000000        0.00090478
     162         -0.191149        1.000000        0.00036822
     163         -0.190877        1.000000        0.00072064
     164         -0.190357        1.000000        0.00033690
     165         -0.190038        1.000000        0.00026876
     166         -0.189781        1.000000        0.00062293
     167         -0.189602        1.000000        0.00036014
     168         -0.189259        1.000000        0.00023149
     169         -0.188840        1.000000        0.00021096
     170         -0.188594        1.000000        0.00029121
     171         -0.187728        1.000000        0.00017958
     172         -0.187023        1.000000        0.00014915
     173         -0.186822        1.000000        0.00033882
     174         -0.186565        1.000000        0.00017858
     175         -0.186110        1.000000        0.00018803
     176         -0.185995        1.000000        0.00043170
     177         -0.185471        1.000000        0.00030073
     178         -0.185402        1.000000        0.00016997
     179         -0.184964        1.000000        0.00033973
     180         -0.184722        1.000000        0.00036915
     181         -0.183908        1.000000        0.00019238
     182         -0.183833        1.000000        0.00013449
     183         -0.183427        1.000000        0.00016727
     184         -0.183381        1.000000        0.00022498
     185         -0.183112        1.000000        0.00036715
     186         -0.182956        1.000000        0.00014532
     187         -0.182774        1.000000        0.00018297
     188         -0.182577        1.000000        0.00014629
     189         -0.182482        1.000000        0.00022182
     190         -0.182164        1.000000        0.00009575
     191         -0.181982        1.000000        0.00028728
     192         -0.181605        1.000000        0.00023226
     193         -0.181099        1.000000        0.00019290
     194         -0.180627        1.000000        0.00029986
     195         -0.180579        0.000000        0.00022693
     196         -0.180280        0.000000        0.00007726
     197         -0.179455        0.000000        0.00013477
     198         -0.179057        0.000000        0.00012398
     199         -0.178888        0.000000        0.00009323
     200         -0.178402        0.000000        0.00017806
     201         -0.164360        0.000000        0.00013095
     202         -0.072945        0.000000        0.00006422
     203         -0.069350        0.000000        0.00038627
     204         -0.065029        0.000000        0.00036221
     205         -0.062452        0.000000        0.00007456
     206         -0.058243        0.000000        0.00017547
     207         -0.055913        0.000000        0.00016734
     208         -0.055172        0.000000        0.00012871
     209         -0.053249        0.000000        0.00026984
     210         -0.048843        0.000000        0.00027996
     211         -0.046832        0.000000        0.00030549
     212         -0.044702        0.000000        0.00039414
     213         -0.043508        0.000000        0.00020552
     214         -0.043120        0.000000        0.00034310
     215         -0.040756        0.000000        0.00025358
     216         -0.036862        0.000000        0.00061633
     217         -0.031597        0.000000        0.00009224
     218         -0.029232        0.000000        0.00007968
     219         -0.026870        0.000000        0.00025856
     220         -0.023511        0.000000        0.00014425
     221         -0.020374        0.000000        0.00017761
     222         -0.019128        0.000000        0.00010528
     223         -0.017825        0.000000        0.00012545
     224         -0.011030        0.000000        0.00021423
     225         -0.007834        0.000000        0.00028584
     226          0.084797        0.000000        0.00688799
     227          0.090575        0.000000        0.00486538
     228          0.099920        0.000000        0.00464245
     229          0.102980        0.000000        0.00572069
     230          0.104332        0.000000        0.00447125
     231          0.105665        0.000000        0.00382336
     232          0.107867        0.000000        0.00427843
     233          0.166266        0.000000        0.66464683
     234          0.170928        0.000000        0.65890750
     235          0.203916        0.000000        0.65836399
     236          0.233526        0.000000        0.65039393
     237          0.252851        0.000000        0.66383553
     238          0.282350        0.000000        0.66774255
     239          0.283829        0.000000        0.65564754
     240          0.288359        0.000000        0.66236426
     241          0.291556        0.000000        0.66379552
     242          0.292872        0.000000        0.66550110
     243          0.294416        0.000000        0.65925218
     244          0.295123        0.000000        0.66301773
     245          0.299204        0.000000        0.66392658
     246          0.301391        0.000000        0.66185076
     247          0.306877        0.000000        0.66149184
     248          0.323435        0.000000        0.64244017
     249          0.325597        0.000000        0.64385771
     250          0.328161        0.000000        0.64034990
     251          0.336334        0.000000        0.62967065
     252          0.337581        0.000000        0.63092523
     253          0.344807        0.000000        0.63100008
     254          0.442201        0.000000        0.58452001
     255          0.447701        0.000000        0.58911285
     256          0.450361        0.000000        0.58163777
     257          0.451460        0.000000        0.58936275
     258          0.459385        0.000000        0.58303144
     259          0.460392        0.000000        0.58208590
     260          0.461355        0.000000        0.58298437
     261          0.461477        0.000000        0.58816971
     262          0.463524        0.000000        0.58375578
     263          0.465358        0.000000        0.58242228
     264          0.467084        0.000000        0.57757480
     265          0.469555        0.000000        0.58316703
     266          0.472180        0.000000        0.58038162
     267          0.480347        0.000000        0.58449622
     268          0.550491        0.000000        0.55157741
     269          0.559731        0.000000        0.55319799
     270          0.560398        0.000000        0.55189403
     271          0.563289        0.000000        0.55241193
     272          0.565336        0.000000        0.55329705
     273          0.570362        0.000000        0.55186691
     274          0.572963        0.000000        0.55279767
