# Projected DOS for atomic kind I at iteration step i = 0, E(Fermi) =    -0.180627 a.u.
#     MO Eigenvalue [a.u.]      Occupation                 s                py                pz                px
       1         -0.978028        1.000000        0.00000303        0.00001443        0.00002996        0.00000562
       2         -0.957027        1.000000        0.00013732        0.00033468        0.00016050        0.00025713
       3         -0.951658        1.000000        0.00003598        0.00015847        0.00001791        0.00010057
       4         -0.945293        1.000000        0.00024808        0.00060830        0.00026874        0.00020089
       5         -0.944030        1.000000        0.00010317        0.00024746        0.00018518        0.00016550
       6         -0.943031        1.000000        0.00022148        0.00027057        0.00055616        0.00024603
       7         -0.935645        1.000000        0.00017138        0.00037028        0.00023654        0.00022389
       8         -0.709999        1.000000        0.00044435        0.00021219        0.00010068        0.00016556
       9         -0.703590        1.000000        0.00065836        0.00010981        0.00012191        0.00024829
      10         -0.691212        1.000000        0.00074615        0.00029033        0.00014029        0.00021276
      11         -0.690410        1.000000        0.00323329        0.00055970        0.00066254        0.00035664
      12         -0.689388        1.000000        0.00180412        0.00020842        0.00027622        0.00022242
      13         -0.683019        1.000000        0.00046272        0.00008400        0.00018656        0.00030738
      14         -0.681232        1.000000        0.00211277        0.00036353        0.00045003        0.00015256
      15         -0.638278        1.000000        0.94461701        0.00304822        0.00465610        0.01464525
      16         -0.617092        1.000000        0.95819644        0.00077709        0.00845910        0.00762405
      17         -0.609714        1.000000        0.00715847        0.00019061        0.00054341        0.00003849
      18         -0.600792        1.000000        0.79585897        0.00161299        0.00586242        0.01107824
      19         -0.596879        1.000000        0.79650008        0.00254998        0.00237052        0.00275008
      20         -0.593981        1.000000        0.79406333        0.00278368        0.00508933        0.00479526
      21         -0.592999        1.000000        0.71018120        0.00584560        0.00151307        0.00130138
      22         -0.590795        1.000000        0.53145243        0.00518180        0.00179705        0.00077493
      23         -0.587510        1.000000        0.66939109        0.00198738        0.00309857        0.00524843
      24         -0.586052        1.000000        0.77511516        0.00423092        0.00521979        0.00363378
      25         -0.585386        1.000000        0.56214288        0.00151940        0.00132561        0.00381578
      26         -0.584347        1.000000        0.51602249        0.00235126        0.00314358        0.00391748
      27         -0.583846        1.000000        0.43314916        0.00142425        0.00179202        0.00296542
      28         -0.582885        1.000000        0.83882898        0.00190539        0.00169989        0.00478160
      29         -0.581893        1.000000        0.85683671        0.00330953        0.00365669        0.00593075
      30         -0.581187        1.000000        0.20366561        0.00237056        0.00050517        0.00199029
      31         -0.579411        1.000000        0.97812948        0.00055219        0.00639328        0.00282499
      32         -0.577400        1.000000        0.70066843        0.00131660        0.00491231        0.00248525
      33         -0.576216        1.000000        0.79877961        0.00077226        0.00244620        0.00115324
      34         -0.571639        1.000000        0.58345119        0.00358688        0.00254230        0.00158876
      35         -0.571194        1.000000        0.74541554        0.00216677        0.00176026        0.00367094
      36         -0.570966        1.000000        0.85192748        0.00146249        0.00094661        0.00261407
      37         -0.570614        1.000000        0.59491695        0.00171669        0.00217792        0.00191646
      38         -0.569604        1.000000        0.84704427        0.00118107        0.00169301        0.00308778
      39         -0.568578        1.000000        0.58819565        0.00182762        0.00124451        0.00111408
      40         -0.567746        1.000000        0.26190423        0.00267589        0.00103245        0.00142676
      41         -0.566383        1.000000        0.57495689        0.00092599        0.00282609        0.00299875
      42         -0.565889        1.000000        0.57869637        0.00231473        0.00249979        0.00102797
      43         -0.564940        1.000000        0.76293365        0.00094390        0.00282194        0.00050754
      44         -0.563735        1.000000        0.76860767        0.00253878        0.00303594        0.00169277
      45         -0.563201        1.000000        0.43459580        0.00202682        0.00172659        0.00101943
      46         -0.563125        1.000000        0.34742815        0.00207774        0.00207314        0.00076258
      47         -0.561811        1.000000        0.75511417        0.00106723        0.00145369        0.00126575
      48         -0.561341        1.000000        0.90854150        0.00070577        0.00055536        0.00135169
      49         -0.561256        1.000000        0.82599212        0.00086747        0.00056683        0.00074271
      50         -0.560526        1.000000        0.91508935        0.00142336        0.00106568        0.00090793
      51         -0.559416        1.000000        0.67553744        0.00081643        0.00102278        0.00070050
      52         -0.559311        1.000000        0.84082557        0.00020415        0.00142325        0.00067919
      53         -0.559142        1.000000        0.48792101        0.00074774        0.00161754        0.00103372
      54         -0.557992        1.000000        0.96444123        0.00078251        0.00010590        0.00030363
      55         -0.557863        1.000000        0.82190759        0.00189649        0.00105140        0.00071620
      56         -0.557522        1.000000        0.43942943        0.00065768        0.00407925        0.00103049
      57         -0.555638        1.000000        0.96824666        0.00194046        0.00029337        0.00026270
      58         -0.554976        1.000000        0.82155393        0.00092462        0.00061288        0.00064315
      59         -0.554406        1.000000        0.83487284        0.00052085        0.00058110        0.00024462
      60         -0.553889        1.000000        0.40870458        0.00217585        0.00099491        0.00135739
      61         -0.553260        1.000000        0.88410009        0.00062080        0.00033331        0.00053102
      62         -0.551264        1.000000        0.56661285        0.00026112        0.00055948        0.00064502
      63         -0.548718        1.000000        0.86041715        0.00056713        0.00036257        0.00071454
      64         -0.544505        1.000000        0.25329377        0.00211145        0.00111701        0.00144070
      65         -0.498427        1.000000        0.00135008        0.00062533        0.00020081        0.00053454
      66         -0.485465        1.000000        0.00291610        0.00071948        0.00044326        0.00063891
      67         -0.475364        1.000000        0.00227271        0.00095274        0.00065678        0.00078352
      68         -0.471110        1.000000        0.00430263        0.00336831        0.00380290        0.00101605
      69         -0.469243        1.000000        0.00206104        0.00083516        0.00247860        0.00204039
      70         -0.466060        1.000000        0.00250162        0.00090490        0.00123203        0.00133892
      71         -0.461242        1.000000        0.00335076        0.00275175        0.00226542        0.00143787
      72         -0.459179        1.000000        0.11047478        0.04641063        0.04773067        0.04019421
      73         -0.456486        1.000000        0.11162332        0.03779749        0.04396529        0.02840305
      74         -0.454651        1.000000        0.12127707        0.03789213        0.03477897        0.04071417
      75         -0.453316        1.000000        0.13423367        0.03095778        0.03959991        0.04177427
      76         -0.450297        1.000000        0.13618610        0.02759177        0.03781983        0.03484152
      77         -0.449045        1.000000        0.12645312        0.03190771        0.03253824        0.02837201
      78         -0.448612        1.000000        0.12494822        0.02895033        0.04004127        0.02974022
      79         -0.444218        1.000000        0.13302552        0.02231345        0.02771281        0.02830100
      80         -0.421022        1.000000        0.00019091        0.00029305        0.00065134        0.00044180
      81         -0.419802        1.000000        0.00102689        0.00142074        0.00098615        0.00108110
      82         -0.417244        1.000000        0.00132030        0.00085735        0.00064188        0.00129281
      83         -0.416515        1.000000        0.00197275        0.00219470        0.00087660        0.00363940
      84         -0.409490        1.000000        0.00234989        0.00199761        0.00585586        0.00280463
      85         -0.406385        1.000000        0.00195780        0.00335189        0.00350176        0.00300861
      86         -0.405488        1.000000        0.00101550        0.00150091        0.00061045        0.00171016
      87         -0.405012        1.000000        0.00083579        0.00145645        0.00130716        0.00095817
      88         -0.403739        1.000000        0.00111317        0.00256098        0.00173650        0.00188790
      89         -0.403095        1.000000        0.00135088        0.00322549        0.00081777        0.00072579
      90         -0.399533        1.000000        0.00071082        0.00041959        0.00173585        0.00111479
      91         -0.398918        1.000000        0.00098250        0.00183620        0.00261949        0.00078900
      92         -0.395670        1.000000        0.00180764        0.00415293        0.00080348        0.00160461
      93         -0.395295        1.000000        0.00040184        0.00041883        0.00125958        0.00177602
      94         -0.317867        1.000000        0.02598678        0.01010889        0.23537330        0.68942700
      95         -0.291815        1.000000        0.02050933        0.00863196        0.49001390        0.42725258
      96         -0.276898        1.000000        0.01000951        0.02157629        0.59596547        0.21315952
      97         -0.272686        1.000000        0.01117561        0.32746826        0.27384862        0.09483032
      98         -0.269701        1.000000        0.01182701        0.45969026        0.17133526        0.15881920
      99         -0.269078        1.000000        0.01011193        0.40771594        0.20638438        0.13139229
     100         -0.265324        1.000000        0.01019981        0.14001496        0.09296312        0.48730294
     101         -0.264332        1.000000        0.00917749        0.31490439        0.24834937        0.20385769
     102         -0.262773        1.000000        0.00940664        0.54393776        0.10419885        0.14538892
     103         -0.260760        1.000000        0.01003808        0.20426393        0.19534118        0.35913793
     104         -0.260360        1.000000        0.00838467        0.08795688        0.31464281        0.36818414
     105         -0.257268        1.000000        0.01069351        0.18106955        0.39110492        0.15233216
     106         -0.255110        1.000000        0.01068608        0.13510142        0.40060970        0.18675658
     107         -0.252852        1.000000        0.01127776        0.32689125        0.18372637        0.26633072
     108         -0.250409        1.000000        0.01692390        0.13584833        0.22175807        0.39840169
     109         -0.248290        1.000000        0.01287104        0.38637130        0.22362317        0.12955245
     110         -0.243654        1.000000        0.01647881        0.20403415        0.17048149        0.38184263
     111         -0.243270        1.000000        0.01468256        0.16789738        0.41283378        0.19237889
     112         -0.241784        1.000000        0.01566973        0.22257986        0.33744332        0.19431957
     113         -0.240968        1.000000        0.01342351        0.17115746        0.41344811        0.18052772
     114         -0.239574        1.000000        0.01588076        0.24374840        0.19755507        0.31662841
     115         -0.237676        1.000000        0.00596578        0.29137212        0.23401972        0.34061434
     116         -0.236777        1.000000        0.00728250        0.69553385        0.10050964        0.09266214
     117         -0.235339        1.000000        0.01434930        0.39044272        0.19327487        0.18863396
     118         -0.234104        1.000000        0.00914365        0.26387873        0.19570187        0.31623229
     119         -0.232089        1.000000        0.00958568        0.33939532        0.18741978        0.28908548
     120         -0.229716        1.000000        0.00678290        0.56867107        0.21568343        0.09411550
     121         -0.227717        1.000000        0.00590521        0.38664687        0.35920717        0.14829439
     122         -0.226720        1.000000        0.00826719        0.17522183        0.46084364        0.29015997
     123         -0.224786        1.000000        0.00707762        0.29079112        0.24286605        0.31635155
     124         -0.223806        1.000000        0.00660278        0.26801437        0.38609039        0.22332945
     125         -0.221569        1.000000        0.00551808        0.27204620        0.31214485        0.31937116
     126         -0.219490        1.000000        0.00358763        0.26997517        0.31240579        0.32418195
     127         -0.218437        1.000000        0.00279664        0.24381447        0.46753213        0.22218260
     128         -0.216934        1.000000        0.00379805        0.39317047        0.15854562        0.38140757
     129         -0.215596        1.000000        0.00356162        0.26347428        0.26975412        0.39281192
     130         -0.214313        1.000000        0.00227596        0.33570692        0.28025583        0.34718860
     131         -0.213518        1.000000        0.00274087        0.42274748        0.21256225        0.32188144
     132         -0.213307        1.000000        0.00125932        0.47827102        0.16176952        0.33705599
     133         -0.211881        1.000000        0.00197132        0.53747643        0.10643223        0.33182031
     134         -0.210345        1.000000        0.00099296        0.37626233        0.31808959        0.28071862
     135         -0.208912        1.000000        0.00183188        0.34845594        0.28911183        0.32821320
     136         -0.208253        1.000000        0.00171198        0.34843067        0.39238271        0.23977797
     137         -0.208079        1.000000        0.00080469        0.27254279        0.39028455        0.32150457
     138         -0.206836        1.000000        0.00111533        0.18308912        0.38941076        0.40677578
     139         -0.206540        1.000000        0.00180408        0.33903067        0.39278196        0.24968862
     140         -0.205598        1.000000        0.00130726        0.33486975        0.25394822        0.38532831
     141         -0.204974        1.000000        0.00151390        0.18321213        0.41483894        0.37568907
     142         -0.203854        1.000000        0.00077618        0.35759447        0.38193620        0.24248973
     143         -0.202174        1.000000        0.00077539        0.63683213        0.18997166        0.16171692
     144         -0.201720        1.000000        0.00089279        0.46652481        0.30340435        0.20222438
     145         -0.201458        1.000000        0.00175017        0.51005406        0.24486333        0.22294852
     146         -0.201100        1.000000        0.00109545        0.36788651        0.34101702        0.27426056
     147         -0.200107        1.000000        0.00094239        0.35150100        0.36323759        0.27050012
     148         -0.199441        1.000000        0.00129155        0.21500537        0.42680698        0.33165045
     149         -0.199065        1.000000        0.00095397        0.35853895        0.34224961        0.28410737
     150         -0.197888        1.000000        0.00125500        0.21467877        0.51737448        0.24324202
     151         -0.197099        1.000000        0.00110688        0.19395856        0.40003842        0.39255609
     152         -0.196670        1.000000        0.00138255        0.31996863        0.38748204        0.26671191
     153         -0.196390        1.000000        0.00080143        0.35530929        0.30156334        0.32761573
     154         -0.195438        1.000000        0.00084971        0.39695425        0.27347526        0.31434040
     155         -0.194728        1.000000        0.00076890        0.25924185        0.39385712        0.33698461
     156         -0.194638        1.000000        0.00045079        0.26887488        0.39496089        0.32610817
     157         -0.194165        1.000000        0.00097112        0.40923120        0.27923088        0.29352654
     158         -0.193597        1.000000        0.00167182        0.40108802        0.31266074        0.27312744
     159         -0.192693        1.000000        0.00062081        0.39038001        0.28707388        0.30161112
     160         -0.191697        1.000000        0.00069355        0.35304495        0.44207518        0.18428350
     161         -0.191352        1.000000        0.00119186        0.52400181        0.12765700        0.32665514
     162         -0.191149        1.000000        0.00085255        0.42342345        0.24369248        0.31673046
     163         -0.190877        1.000000        0.00092779        0.47153467        0.26388689        0.24808123
     164         -0.190357        1.000000        0.00119243        0.35271153        0.24416699        0.38343946
     165         -0.190038        1.000000        0.00067928        0.37472366        0.21748936        0.39388761
     166         -0.189781        1.000000        0.00088276        0.37913836        0.24610173        0.36133225
     167         -0.189602        1.000000        0.00086008        0.33741861        0.18918757        0.45733331
     168         -0.189259        1.000000        0.00074627        0.30421388        0.26078876        0.41376595
     169         -0.188840        1.000000        0.00036255        0.38930657        0.16524740        0.43561363
     170         -0.188594        1.000000        0.00090439        0.30619802        0.22247631        0.45212370
     171         -0.187728        1.000000        0.00048332        0.17665018        0.16466342        0.64846943
     172         -0.187023        1.000000        0.00048390        0.10993464        0.29285460        0.58622663
     173         -0.186822        1.000000        0.00057754        0.19591674        0.22516406        0.56745451
     174         -0.186565        1.000000        0.00059815        0.20992196        0.38517377        0.38806613
     175         -0.186110        1.000000        0.00060444        0.27716419        0.32576558        0.38820942
     176         -0.185995        1.000000        0.00095268        0.28462168        0.20593301        0.49681230
     177         -0.185471        1.000000        0.00055382        0.13434557        0.34952638        0.50438590
     178         -0.185402        1.000000        0.00060085        0.38243346        0.29165098        0.30561964
     179         -0.184964        1.000000        0.00052742        0.12523585        0.31570783        0.53958410
     180         -0.184722        1.000000        0.00068051        0.23636388        0.28689762        0.46661015
     181         -0.183908        1.000000        0.00036773        0.21238880        0.25035611        0.52243006
     182         -0.183833        1.000000        0.00049395        0.40795942        0.33559119        0.24562415
     183         -0.183427        1.000000        0.00039061        0.24488063        0.56181659        0.18498485
     184         -0.183381        1.000000        0.00047962        0.23040532        0.59357652        0.16935367
     185         -0.183112        1.000000        0.00058828        0.34127661        0.56907499        0.08226194
     186         -0.182956        1.000000        0.00044833        0.38947456        0.36428359        0.23830446
     187         -0.182774        1.000000        0.00046402        0.51737639        0.23050989        0.23132382
     188         -0.182577        1.000000        0.00038758        0.36284735        0.35031607        0.27315310
     189         -0.182482        1.000000        0.00055353        0.36066784        0.37264728        0.25724722
     190         -0.182164        1.000000        0.00037642        0.26606393        0.44935789        0.26514188
     191         -0.181982        1.000000        0.00056986        0.32592616        0.37363120        0.28574061
     192         -0.181605        1.000000        0.00103090        0.29763116        0.31649470        0.37281786
     193         -0.181099        1.000000        0.00059706        0.38626368        0.33163867        0.27032609
     194         -0.180627        1.000000        0.00146795        0.20677474        0.54162364        0.23448732
     195         -0.180579        0.000000        0.00058761        0.21572587        0.63160177        0.14548940
     196         -0.180280        0.000000        0.00403755        0.12632020        0.42357623        0.42681450
     197         -0.179455        0.000000        0.00031518        0.30603240        0.31763712        0.27411548
     198         -0.179057        0.000000        0.00053679        0.43206069        0.28788643        0.20784525
     199         -0.178888        0.000000        0.00034941        0.48874460        0.25249198        0.19190693
     200         -0.178402        0.000000        0.00094679        0.38344521        0.26193391        0.26586106
     201         -0.164360        0.000000        0.00560463        0.01509120        0.22383830        0.74943169
     202         -0.072945        0.000000        0.01903903        0.13979054        0.06061609        0.03810836
     203         -0.069350        0.000000        0.02181140        0.03236927        0.05040891        0.15898266
     204         -0.065029        0.000000        0.03155380        0.12224214        0.03209110        0.06362938
     205         -0.062452        0.000000        0.01894334        0.15188266        0.03634090        0.07242855
     206         -0.058243        0.000000        0.02267030        0.14019419        0.05390227        0.05795571
     207         -0.055913        0.000000        0.02280661        0.05213370        0.15617746        0.05278235
     208         -0.055172        0.000000        0.01952610        0.11211007        0.08500961        0.06959018
     209         -0.053249        0.000000        0.02269443        0.06371031        0.11249303        0.08688247
     210         -0.048843        0.000000        0.02312290        0.06839899        0.04929012        0.14541490
     211         -0.046832        0.000000        0.02296555        0.04931879        0.10751552        0.11863417
     212         -0.044702        0.000000        0.02315937        0.06980706        0.08049979        0.11555534
     213         -0.043508        0.000000        0.02306988        0.04267706        0.11252548        0.12085999
     214         -0.043120        0.000000        0.02032188        0.05723043        0.07667454        0.13943965
     215         -0.040756        0.000000        0.01892022        0.14329640        0.09200076        0.04306030
     216         -0.036862        0.000000        0.01853605        0.04166611        0.03449242        0.20459346
     217         -0.031597        0.000000        0.01477365        0.02663262        0.21511968        0.04104308
     218         -0.029232        0.000000        0.01669950        0.04713037        0.18048570        0.06224903
     219         -0.026870        0.000000        0.01352135        0.16743070        0.10249577        0.02356314
     220         -0.023511        0.000000        0.01228916        0.14643729        0.11989230        0.03110093
     221         -0.020374        0.000000        0.01354244        0.26596925        0.00916215        0.02850140
     222         -0.019128        0.000000        0.01105018        0.02700142        0.05353961        0.22404044
     223         -0.017825        0.000000        0.01279745        0.10403191        0.11029103        0.08524760
     224         -0.011030        0.000000        0.01375567        0.10218686        0.06295742        0.13725007
     225         -0.007834        0.000000        0.01441468        0.02809571        0.26378898        0.01364111
     226          0.084797        0.000000        0.00001610        0.00041178        0.00018571        0.00019515
     227          0.090575        0.000000        0.00004373        0.00059873        0.00068757        0.00063145
     228          0.099920        0.000000        0.00010194        0.00108823        0.00159196        0.00027372
     229          0.102980        0.000000        0.00003800        0.00078520        0.00050932        0.00063352
     230          0.104332        0.000000        0.00008322        0.00065989        0.00095454        0.00118993
     231          0.105665        0.000000        0.00006257        0.00044558        0.00069884        0.00112591
     232          0.107867        0.000000        0.00009141        0.00102116        0.00097731        0.00036061
     233          0.166266        0.000000        0.00000271        0.00004340        0.00010046        0.00004442
     234          0.170928        0.000000        0.00000710        0.00021420        0.00004808        0.00009884
     235          0.203916        0.000000        0.00004512        0.00051953        0.00034497        0.00009002
     236          0.233526        0.000000        0.00000376        0.00008189        0.00014449        0.00009310
     237          0.252851        0.000000        0.00008354        0.00008964        0.00329679        0.00080863
     238          0.282350        0.000000        0.00058423        0.00501315        0.00019724        0.00639535
     239          0.283829        0.000000        0.00005217        0.00063648        0.00201293        0.00086318
     240          0.288359        0.000000        0.00063169        0.00518311        0.00368082        0.00371852
     241          0.291556        0.000000        0.00101714        0.00449305        0.00092879        0.00525126
     242          0.292872        0.000000        0.00025500        0.00481027        0.00033216        0.00268923
     243          0.294416        0.000000        0.00085088        0.01216854        0.00077633        0.00191598
     244          0.295123        0.000000        0.00039990        0.00494762        0.00498314        0.00306497
     245          0.299204        0.000000        0.00033428        0.00164699        0.00335655        0.00124070
     246          0.301391        0.000000        0.00078297        0.00133968        0.00857692        0.00511381
     247          0.306877        0.000000        0.00029350        0.00440715        0.00280804        0.00198513
     248          0.323435        0.000000        0.00067626        0.00613661        0.00051326        0.00714883
     249          0.325597        0.000000        0.00040180        0.00621795        0.00036706        0.00416632
     250          0.328161        0.000000        0.00056808        0.00491708        0.00409556        0.00223870
     251          0.336334        0.000000        0.00101244        0.01059639        0.00311730        0.00439875
     252          0.337581        0.000000        0.00106981        0.00244064        0.00901777        0.00543459
     253          0.344807        0.000000        0.00061279        0.00676697        0.00509839        0.00464938
     254          0.442201        0.000000        0.00003245        0.00014876        0.00012507        0.00033787
     255          0.447701        0.000000        0.00003656        0.00027931        0.00019424        0.00034394
     256          0.450361        0.000000        0.00002555        0.00021051        0.00002728        0.00002067
     257          0.451460        0.000000        0.00003906        0.00047629        0.00034322        0.00052375
     258          0.459385        0.000000        0.00005808        0.00037004        0.00085272        0.00042432
     259          0.460392        0.000000        0.00005535        0.00047089        0.00005915        0.00017403