# Projected DOS for atomic kind Pb at iteration step i = 0, E(Fermi) =    -0.180909 a.u.
#     MO Eigenvalue [a.u.]      Occupation                 s                py                pz                px
       1         -0.978171        1.000000        0.00000003        0.00000031        0.00000033        0.00000031
       2         -0.957199        1.000000        0.00000110        0.00001235        0.00001846        0.00001320
       3         -0.951817        1.000000        0.00000027        0.00000215        0.00000141        0.00000184
       4         -0.945466        1.000000        0.00000031        0.00000250        0.00000588        0.00000062
       5         -0.944220        1.000000        0.00000004        0.00000049        0.00000056        0.00000044
       6         -0.943219        1.000000        0.00000046        0.00000578        0.00000549        0.00000419
       7         -0.935816        1.000000        0.00000040        0.00000584        0.00000588        0.00000297
       8         -0.710152        1.000000        0.00001787        0.00001150        0.00003076        0.00001922
       9         -0.703756        1.000000        0.00002265        0.00003156        0.00004178        0.00002136
      10         -0.691390        1.000000        0.00003905        0.00005900        0.00002308        0.00005794
      11         -0.690613        1.000000        0.00004753        0.00005848        0.00004779        0.00001496
      12         -0.689569        1.000000        0.00001454        0.00001573        0.00001345        0.00000797
      13         -0.683193        1.000000        0.00000158        0.00000305        0.00000271        0.00000175
      14         -0.681440        1.000000        0.00003767        0.00004047        0.00002708        0.00001262
      15         -0.638328        1.000000        0.00595266        0.00004906        0.00859280        0.00029627
      16         -0.617553        1.000000        0.01129076        0.00033821        0.00219196        0.00832510
      17         -0.609882        1.000000        0.00034459        0.00003138        0.00006200        0.00009270
      18         -0.601284        1.000000        0.02544979        0.00188262        0.00560274        0.00330808
      19         -0.597325        1.000000        0.06019885        0.01571528        0.00431704        0.00392769
      20         -0.594617        1.000000        0.05760481        0.00631110        0.00938649        0.00136919
      21         -0.593331        1.000000        0.03059749        0.00316458        0.01377156        0.00133636
      22         -0.591493        1.000000        0.02522338        0.00273724        0.00416253        0.00941526
      23         -0.588176        1.000000        0.04878320        0.00501932        0.00556803        0.00216809
      24         -0.587411        1.000000        0.08294010        0.01027270        0.00129889        0.00284292
      25         -0.585996        1.000000        0.01815811        0.00923696        0.00633769        0.00253450
      26         -0.585092        1.000000        0.03535468        0.00220058        0.01935016        0.00114151
      27         -0.584278        1.000000        0.01722995        0.00204130        0.00139855        0.00128178
      28         -0.583241        1.000000        0.02589089        0.00458190        0.00341457        0.00564414
      29         -0.582871        1.000000        0.05180962        0.00669048        0.00383176        0.00331314
      30         -0.581368        1.000000        0.00600489        0.00064254        0.00424884        0.00042289
      31         -0.579703        1.000000        0.00300455        0.00007050        0.00112959        0.00218469
      32         -0.577897        1.000000        0.01647043        0.00738859        0.00269612        0.01546134
      33         -0.576860        1.000000        0.05501925        0.00280011        0.01372323        0.00435976
      34         -0.572525        1.000000        0.04910608        0.01254957        0.00229125        0.00043832
      35         -0.572121        1.000000        0.01229033        0.01274462        0.00086829        0.01780540
      36         -0.571656        1.000000        0.02508903        0.00017776        0.00331038        0.01945747
      37         -0.571003        1.000000        0.02199260        0.00056148        0.00789531        0.00641861
      38         -0.569815        1.000000        0.02639607        0.00023883        0.01058314        0.01684605
      39         -0.569298        1.000000        0.00835279        0.00346996        0.00541573        0.00791835
      40         -0.568154        1.000000        0.00799376        0.00123765        0.00316910        0.00166213
      41         -0.566844        1.000000        0.02019445        0.00079250        0.01436242        0.00724480
      42         -0.566392        1.000000        0.03878221        0.00074558        0.00595185        0.00788920
      43         -0.566148        1.000000        0.01320668        0.00355448        0.02164728        0.00834365
      44         -0.564713        1.000000        0.03191061        0.00288379        0.00810321        0.00745629
      45         -0.563888        1.000000        0.00068066        0.00154096        0.00278713        0.00399848
      46         -0.563474        1.000000        0.00129595        0.00212344        0.00070622        0.00219495
      47         -0.562868        1.000000        0.01024763        0.00321987        0.00779811        0.00639300
      48         -0.561831        1.000000        0.00392852        0.00719752        0.00623375        0.00690654
      49         -0.561543        1.000000        0.00857445        0.00167181        0.00168444        0.01590039
      50         -0.560215        1.000000        0.00972573        0.01170832        0.00295589        0.00604306
      51         -0.559575        1.000000        0.00226571        0.00478500        0.00188026        0.00228489
      52         -0.559180        1.000000        0.00148689        0.00242540        0.01364942        0.01235099
      53         -0.559092        1.000000        0.00360116        0.00921113        0.00886481        0.00436106
      54         -0.558549        1.000000        0.00096759        0.00724022        0.00279416        0.00013579
      55         -0.558208        1.000000        0.00699888        0.01772219        0.00198024        0.00112640
      56         -0.557964        1.000000        0.00355777        0.00613071        0.00197485        0.00352203
      57         -0.556393        1.000000        0.00584375        0.01869826        0.00037854        0.00124133
      58         -0.555617        1.000000        0.00174584        0.00787681        0.00073456        0.00026302
      59         -0.554606        1.000000        0.00091598        0.00059694        0.00516874        0.00169594
      60         -0.554389        1.000000        0.00224562        0.00616390        0.00194869        0.00029902
      61         -0.554093        1.000000        0.00098056        0.00568594        0.00428254        0.00048215
      62         -0.552227        1.000000        0.00042786        0.00061027        0.00314158        0.00018882
      63         -0.549831        1.000000        0.00045262        0.00184650        0.00024453        0.00009791
      64         -0.544966        1.000000        0.00383268        0.00061339        0.00431103        0.00058493
      65         -0.498563        1.000000        0.00037721        0.00001860        0.00001219        0.00001200
      66         -0.485627        1.000000        0.00044772        0.00000959        0.00001811        0.00003062
      67         -0.475526        1.000000        0.00090877        0.00006984        0.00006658        0.00006708
      68         -0.471291        1.000000        0.01190006        0.00009028        0.00008510        0.00001978
      69         -0.469432        1.000000        0.00435748        0.00006085        0.00001036        0.00002765
      70         -0.466235        1.000000        0.00416858        0.00000673        0.00002020        0.00002197
      71         -0.461444        1.000000        0.01353404        0.00000884        0.00003982        0.00001732
      72         -0.459668        1.000000        0.74467262        0.00109294        0.00228185        0.00169520
      73         -0.457070        1.000000        0.76421218        0.00088177        0.00076659        0.00082412
      74         -0.455282        1.000000        0.75924872        0.00088249        0.00076058        0.00148189
      75         -0.454326        1.000000        0.74723711        0.00019133        0.00134660        0.00084473
      76         -0.451416        1.000000        0.75572399        0.00026255        0.00069018        0.00027753
      77         -0.449516        1.000000        0.77873860        0.00045603        0.00041785        0.00035215
      78         -0.448925        1.000000        0.76233571        0.00034977        0.00095337        0.00066470
      79         -0.444676        1.000000        0.77974802        0.00018030        0.00009802        0.00030025
      80         -0.421180        1.000000        0.00090970        0.00002889        0.00009524        0.00004439
      81         -0.419941        1.000000        0.00048294        0.00001004        0.00006048        0.00003734
      82         -0.417419        1.000000        0.00072810        0.00002461        0.00008171        0.00008853
      83         -0.416656        1.000000        0.00012781        0.00010629        0.00001859        0.00007574
      84         -0.409698        1.000000        0.00044076        0.00012227        0.00012396        0.00006092
      85         -0.406593        1.000000        0.00074014        0.00003826        0.00004771        0.00015883
      86         -0.405678        1.000000        0.00047248        0.00007181        0.00009812        0.00011648
      87         -0.405193        1.000000        0.00026394        0.00005475        0.00002628        0.00003065
      88         -0.403930        1.000000        0.00049822        0.00004510        0.00014273        0.00010366
      89         -0.403274        1.000000        0.00069868        0.00001191        0.00021980        0.00001626
      90         -0.399676        1.000000        0.00001515        0.00002711        0.00000357        0.00000449
      91         -0.399123        1.000000        0.00014985        0.00004080        0.00003278        0.00000322
      92         -0.395885        1.000000        0.00026307        0.00004641        0.00011946        0.00002545
      93         -0.395487        1.000000        0.00005646        0.00000374        0.00001276        0.00003924
      94         -0.317963        1.000000        0.00475134        0.00026038        0.02376039        0.00709622
      95         -0.292249        1.000000        0.00179996        0.00225780        0.02620853        0.02210266
      96         -0.277295        1.000000        0.00353217        0.00219921        0.14998493        0.00314037
      97         -0.273123        1.000000        0.01344822        0.09394449        0.12489288        0.05736297
      98         -0.270603        1.000000        0.00400589        0.09344367        0.04241086        0.03679942
      99         -0.269993        1.000000        0.00781700        0.08034139        0.11128563        0.06573321
     100         -0.266877        1.000000        0.00473758        0.05486060        0.03179998        0.17041309
     101         -0.265018        1.000000        0.00178958        0.09633371        0.02773473        0.09574624
     102         -0.263639        1.000000        0.00226190        0.10523015        0.04103604        0.06430216
     103         -0.261867        1.000000        0.00201484        0.03670374        0.04531200        0.11686418
     104         -0.261273        1.000000        0.00149227        0.04861891        0.05565182        0.10075813
     105         -0.257952        1.000000        0.00643467        0.04037490        0.15701792        0.05711056
     106         -0.255926        1.000000        0.00674941        0.04956604        0.13321207        0.07096736
     107         -0.253946        1.000000        0.00483200        0.10122128        0.04092937        0.06297033
     108         -0.251662        1.000000        0.00331601        0.07078971        0.04067893        0.10884594
     109         -0.249824        1.000000        0.00661608        0.13439292        0.04679315        0.04124156
     110         -0.244721        1.000000        0.00242146        0.06175869        0.11291179        0.04326805
     111         -0.244205        1.000000        0.00531901        0.08278883        0.04388714        0.07599142
     112         -0.242649        1.000000        0.00299927        0.05148145        0.11073863        0.05812352
     113         -0.242171        1.000000        0.00510263        0.07138347        0.08114230        0.05557271
     114         -0.240304        1.000000        0.00178998        0.06928612        0.03760205        0.11146577
     115         -0.238081        1.000000        0.00286710        0.03807121        0.02574983        0.04634145
     116         -0.237408        1.000000        0.00184725        0.05835601        0.00768203        0.02792924
     117         -0.236306        1.000000        0.00084485        0.12388412        0.04829169        0.03142411
     118         -0.234850        1.000000        0.01378823        0.02924260        0.08172697        0.08093666
     119         -0.232747        1.000000        0.00198041        0.05795743        0.03851453        0.06737427
     120         -0.230387        1.000000        0.00159748        0.06090322        0.02351666        0.02720905
     121         -0.228205        1.000000        0.00699653        0.02379265        0.03095906        0.02527224
     122         -0.227356        1.000000        0.00388068        0.02073414        0.01094186        0.01682421
     123         -0.225764        1.000000        0.00515055        0.05617303        0.02646488        0.03231046
     124         -0.224677        1.000000        0.01202480        0.01532662        0.06947352        0.03251593
     125         -0.222656        1.000000        0.00815727        0.01898048        0.02530998        0.02756573
     126         -0.219947        1.000000        0.00658981        0.01983776        0.01723418        0.02126918
     127         -0.219243        1.000000        0.00557284        0.02229830        0.01412336        0.01338715
     128         -0.217921        1.000000        0.00324496        0.01882778        0.01589270        0.00797856
     129         -0.216695        1.000000        0.00924199        0.01367600        0.02229674        0.01713676
     130         -0.215074        1.000000        0.00381542        0.00453929        0.00713281        0.00437664
     131         -0.213986        1.000000        0.00572877        0.00718965        0.00144209        0.01695917
     132         -0.213372        1.000000        0.00201410        0.00408751        0.00172676        0.00531370
     133         -0.212640        1.000000        0.00091562        0.00988994        0.00190220        0.00172402
     134         -0.210777        1.000000        0.00383272        0.01122907        0.00538306        0.00262280
     135         -0.209838        1.000000        0.00491644        0.00642346        0.00681574        0.00985953
     136         -0.208791        1.000000        0.00086627        0.00320687        0.00169905        0.00093042
     137         -0.208087        1.000000        0.00366301        0.00376185        0.00187825        0.00708650
     138         -0.207740        1.000000        0.00194942        0.00575415        0.00310662        0.00159697
     139         -0.207178        1.000000        0.00219468        0.00713299        0.00281474        0.00186048
     140         -0.206027        1.000000        0.00488760        0.00527941        0.00302471        0.00319815
     141         -0.205695        1.000000        0.00577888        0.00358608        0.00169319        0.00285232
     142         -0.204755        1.000000        0.00202915        0.00332523        0.00232587        0.00556754
     143         -0.202863        1.000000        0.00366892        0.00196325        0.00167756        0.00334056
     144         -0.202437        1.000000        0.00309346        0.00191180        0.00319307        0.00207680
     145         -0.202330        1.000000        0.00496874        0.00392424        0.00201051        0.00321953
     146         -0.201813        1.000000        0.00184919        0.00112489        0.00125364        0.00192506
     147         -0.200965        1.000000        0.00412318        0.00276186        0.00545941        0.00334325
     148         -0.200683        1.000000        0.00524821        0.00156230        0.00205733        0.00221326
     149         -0.199416        1.000000        0.00776350        0.01031893        0.00314592        0.00340540
     150         -0.198579        1.000000        0.00599303        0.00447248        0.00299560        0.00262688
     151         -0.198306        1.000000        0.00914866        0.00657934        0.00383400        0.00473383
     152         -0.196377        1.000000        0.00902032        0.00330212        0.00392559        0.00462634
     153         -0.196047        1.000000        0.00674412        0.00056049        0.00349888        0.00284356
     154         -0.195470        1.000000        0.00722902        0.00111004        0.00136021        0.00336711
     155         -0.195040        1.000000        0.00158187        0.00075164        0.00048045        0.00021960
     156         -0.194168        1.000000        0.00519092        0.00191721        0.00094832        0.00204873
     157         -0.193544        1.000000        0.00872935        0.00237489        0.00158765        0.00534675
     158         -0.192740        1.000000        0.00768369        0.00117450        0.00160257        0.00612420
     159         -0.192354        1.000000        0.00331379        0.00072331        0.00095733        0.00132490
     160         -0.192078        1.000000        0.01377703        0.00206181        0.00432973        0.00611707
     161         -0.191752        1.000000        0.00584444        0.00067575        0.00271745        0.00443368
     162         -0.191479        1.000000        0.00957683        0.00138354        0.00186880        0.00389238
     163         -0.191002        1.000000        0.01551844        0.00194177        0.00543913        0.00366073
     164         -0.190723        1.000000        0.00622849        0.00053950        0.00136061        0.00217478
     165         -0.190597        1.000000        0.01181133        0.00106960        0.00186051        0.00227601
     166         -0.190386        1.000000        0.01626299        0.00211931        0.00431243        0.00245726
     167         -0.190119        1.000000        0.01687685        0.00151191        0.00312616        0.00556778
     168         -0.189669        1.000000        0.00345929        0.00076274        0.00062718        0.00084240
     169         -0.188615        1.000000        0.01796174        0.00205281        0.00427629        0.00420793
     170         -0.188201        1.000000        0.00790711        0.00082876        0.00152347        0.00043689
     171         -0.187972        1.000000        0.00467546        0.00046911        0.00199434        0.00022959
     172         -0.187312        1.000000        0.00223001        0.00021985        0.00019700        0.00070769
     173         -0.186940        1.000000        0.00702427        0.00033023        0.00164225        0.00078720
     174         -0.186547        1.000000        0.00978150        0.00052775        0.00093904        0.00112944
     175         -0.186195        1.000000        0.01234043        0.00031964        0.00150381        0.00113920
     176         -0.185810        1.000000        0.02599971        0.00116071        0.00336510        0.00210470
     177         -0.185286        1.000000        0.01499105        0.00111535        0.00224058        0.00202398
     178         -0.184973        1.000000        0.02332017        0.00131808        0.00288636        0.00284789
     179         -0.184738        1.000000        0.02333064        0.00066744        0.00309207        0.00173414
     180         -0.184422        1.000000        0.00903028        0.00066406        0.00102205        0.00058176
     181         -0.184248        1.000000        0.02857911        0.00252298        0.00454603        0.00186355
     182         -0.184030        1.000000        0.01284513        0.00015364        0.00169916        0.00171635
     183         -0.183891        1.000000        0.01686080        0.00110272        0.00059542        0.00287848
     184         -0.183711        1.000000        0.01373811        0.00043409        0.00098267        0.00207261
     185         -0.183565        1.000000        0.00841554        0.00050099        0.00100675        0.00110625
     186         -0.183197        1.000000        0.01256266        0.00044262        0.00127940        0.00126965
     187         -0.183185        1.000000        0.01534693        0.00137740        0.00258418        0.00092755
     188         -0.182684        1.000000        0.03782386        0.00150794        0.00234233        0.00169231
     189         -0.182539        1.000000        0.02409328        0.00080022        0.00165893        0.00189000
     190         -0.181817        1.000000        0.00541807        0.00043811        0.00063855        0.00051529
     191         -0.181621        1.000000        0.01036894        0.00053796        0.00077599        0.00028012
     192         -0.181369        1.000000        0.00254356        0.00017451        0.00088247        0.00009463
     193         -0.181174        1.000000        0.01143348        0.00026784        0.00059410        0.00126504
     194         -0.181037        1.000000        0.00956928        0.00036926        0.00069923        0.00032657
     195         -0.180909        1.000000        0.01150547        0.00041253        0.00099490        0.00093525
     196         -0.180875        0.000000        0.01418492        0.00023878        0.00050417        0.00141942
     197         -0.180645        0.000000        0.01369296        0.00046854        0.00032192        0.00159421
     198         -0.180478        0.000000        0.02020806        0.00068093        0.00127261        0.00070336
     199         -0.180075        0.000000        0.01578335        0.00034109        0.00085239        0.00143965
     200         -0.179749        0.000000        0.02479877        0.00056437        0.00075984        0.00165739
     201         -0.164491        0.000000        0.00225060        0.00016018        0.00052382        0.00262183
     202         -0.073434        0.000000        0.00527271        0.31138118        0.31063719        0.11873868
     203         -0.069804        0.000000        0.00885889        0.15282920        0.07284221        0.50279191
     204         -0.065374        0.000000        0.00532282        0.47868438        0.04587472        0.22226658
     205         -0.062727        0.000000        0.00465951        0.21425255        0.02568028        0.47876249
     206         -0.058440        0.000000        0.00320198        0.29767104        0.13766624        0.28869699
     207         -0.056312        0.000000        0.00572986        0.15205592        0.40600472        0.15494460
     208         -0.055536        0.000000        0.00254371        0.42605671        0.15477528        0.13369349
     209         -0.053591        0.000000        0.00710474        0.17784931        0.35616372        0.17568997
     210         -0.049137        0.000000        0.00393986        0.20971421        0.12797158        0.37405440
     211         -0.047345        0.000000        0.00776304        0.09769991        0.33468440        0.26356444
     212         -0.045041        0.000000        0.00232711        0.30620118        0.19043169        0.21405787
     213         -0.044031        0.000000        0.00380731        0.07689175        0.43510733        0.18769183
     214         -0.043545        0.000000        0.00212122        0.31448760        0.08268665        0.30987149
     215         -0.041505        0.000000        0.00199981        0.39116051        0.21882816        0.09787468
     216         -0.037831        0.000000        0.00470379        0.14150108        0.08995400        0.46867546
     217         -0.032079        0.000000        0.00216500        0.04024801        0.53983039        0.12088519
     218         -0.030146        0.000000        0.00133209        0.11459965        0.45793402        0.12532003
     219         -0.027258        0.000000        0.00127084        0.25180592        0.33238786        0.10869026
     220         -0.023899        0.000000        0.00038964        0.38470594        0.16168345        0.14482239
     221         -0.021437        0.000000        0.00016816        0.53974441        0.00758390        0.14342765
     222         -0.019857        0.000000        0.00023626        0.07749232        0.15819157        0.45382375
     223         -0.018492        0.000000        0.00151971        0.26818442        0.23252936        0.18855078
     224         -0.011647        0.000000        0.00052208        0.20501901        0.10915648        0.37239076
     225         -0.008132        0.000000        0.00188593        0.04253127        0.63234626        0.00468679
     226          0.084657        0.000000        0.00000190        0.00005930        0.00007625        0.00005114
     227          0.090423        0.000000        0.00000035        0.00008934        0.00005311        0.00006415
     228          0.099770        0.000000        0.00000511        0.00013090        0.00012991        0.00000397
     229          0.102821        0.000000        0.00000919        0.00034789        0.00020817        0.00021949
     230          0.104148        0.000000        0.00000169        0.00006353        0.00005471        0.00003692
     231          0.105506        0.000000        0.00000148        0.00005568        0.00000487        0.00005438
     232          0.107690        0.000000        0.00000033        0.00004076        0.00003884        0.00000920
     233          0.166114        0.000000        0.00000026        0.00000137        0.00000196        0.00000939
     234          0.170759        0.000000        0.00000103        0.00000300        0.00001657        0.00000127
     235          0.203710        0.000000        0.00000026        0.00000957        0.00000196        0.00000972
     236          0.233361        0.000000        0.00000105        0.00000105        0.00000392        0.00001227
     237          0.252611        0.000000        0.00000094        0.00001122        0.00000296        0.00000393
     238          0.282184        0.000000        0.00000073        0.00001902        0.00000688        0.00003047
     239          0.283651        0.000000        0.00002029        0.00000192        0.00001792        0.00021630
     240          0.288221        0.000000        0.00000676        0.00013914        0.00006827        0.00002125
     241          0.291388        0.000000        0.00000091        0.00016444        0.00006244        0.00004465
     242          0.292701        0.000000        0.00000566        0.00004111        0.00012354        0.00001757
     243          0.294195        0.000000        0.00000445        0.00009255        0.00008992        0.00002713
     244          0.294954        0.000000        0.00001048        0.00001485        0.00011086        0.00003911
     245          0.298972        0.000000        0.00000801        0.00000914        0.00005112        0.00014138
     246          0.301210        0.000000        0.00001643        0.00018559        0.00009618        0.00003343
     247          0.306712        0.000000        0.00000286        0.00002609        0.00003637        0.00001021
     248          0.323268        0.000000        0.00000273        0.00002206        0.00006014        0.00006006
     249          0.325426        0.000000        0.00000765        0.00000758        0.00011742        0.00000615
     250          0.327936        0.000000        0.00001132        0.00002382        0.00005789        0.00018946
     251          0.336170        0.000000        0.00000759        0.00008697        0.00011488        0.00001982
     252          0.337400        0.000000        0.00001791        0.00019192        0.00006769        0.00009951
     253          0.344624        0.000000        0.00000410        0.00004137        0.00004914        0.00002745
     254          0.442053        0.000000        0.00000073        0.00002538        0.00002688        0.00002887
     255          0.447581        0.000000        0.00000042        0.00001052        0.00001129        0.00000940
     256          0.450216        0.000000        0.00000056        0.00000794        0.00003170        0.00001493
     257          0.451349        0.000000        0.00000077        0.00000276        0.00000880        0.00001691
     258          0.459214        0.000000        0.00000123        0.00001620        0.00000471        0.00002263
     259          0.460240        0.000000        0.00000049        0.00000055        0.00001104        0.00000360