# Projected DOS for atomic kind O at iteration step i = 0, E(Fermi) =    -0.116764 a.u.
#     MO Eigenvalue [a.u.]      Occupation                 s                py                pz                px
       1         -0.922699        1.000000        0.70518986        0.00639997        0.02391735        0.01181312
       2         -0.917641        1.000000        0.70087743        0.00234443        0.02857413        0.00096842
       3         -0.906124        1.000000        0.70940677        0.00282920        0.02966215        0.00167803
       4         -0.904902        1.000000        0.71481222        0.00330388        0.02939584        0.00181782
       5         -0.903713        1.000000        0.71234379        0.01045188        0.02435334        0.00432791
       6         -0.899852        1.000000        0.70223606        0.02010810        0.02022823        0.00175699
       7         -0.898242        1.000000        0.71253823        0.01519176        0.00108663        0.02007558
       8         -0.894338        1.000000        0.71410848        0.00671141        0.02231405        0.00072922
       9         -0.893498        1.000000        0.71375216        0.00271662        0.02240201        0.01002219
      10         -0.891588        1.000000        0.70021132        0.00236217        0.01379604        0.00793661
      11         -0.890701        1.000000        0.70374883        0.02112224        0.00992889        0.00231136
      12         -0.889710        1.000000        0.70788332        0.02149141        0.01747961        0.00057678
      13         -0.889305        1.000000        0.72488855        0.00383683        0.02158630        0.00832906
      14         -0.885872        1.000000        0.71842324        0.01827993        0.01454053        0.00546474
      15         -0.883268        1.000000        0.70611271        0.00872997        0.02394116        0.00337024
      16         -0.881401        1.000000        0.71063447        0.00333525        0.00715605        0.01183578
      17         -0.880007        1.000000        0.70198891        0.02276272        0.00291006        0.00358814
      18         -0.879932        1.000000        0.00967047        0.00023227        0.00014775        0.00010634
      19         -0.879195        1.000000        0.67965039        0.00720654        0.01408792        0.00285616
      20         -0.877120        1.000000        0.70487780        0.03485516        0.00117004        0.00062856
      21         -0.876881        1.000000        0.00296227        0.00002322        0.00000624        0.00001512
      22         -0.876777        1.000000        0.71069104        0.00522724        0.01720930        0.01678599
      23         -0.876591        1.000000        0.71375895        0.00308320        0.02009909        0.01089735
      24         -0.875751        1.000000        0.71477492        0.01887526        0.01399421        0.00396577
      25         -0.874593        1.000000        0.70608546        0.01213109        0.00939443        0.00571991
      26         -0.874284        1.000000        0.00000134        0.00000001        0.00000003        0.00000001
      27         -0.872413        1.000000        0.72207860        0.02463737        0.00670378        0.00351645
      28         -0.872372        1.000000        0.70250746        0.03810158        0.00499514        0.00145698
      29         -0.871916        1.000000        0.70552466        0.02764720        0.01199030        0.00484873
      30         -0.871678        1.000000        0.71425233        0.02463355        0.01221122        0.00113732
      31         -0.870522        1.000000        0.00019848        0.00000817        0.00000132        0.00001391
      32         -0.869366        1.000000        0.70164475        0.00889016        0.00163133        0.00728942
      33         -0.868389        1.000000        0.70836102        0.00736435        0.00794952        0.00404525
      34         -0.866452        1.000000        0.71212681        0.01283893        0.01071776        0.00532164
      35         -0.866010        1.000000        0.71539774        0.01283360        0.01117691        0.00461993
      36         -0.863358        1.000000        0.73123387        0.00452561        0.01639699        0.00933423
      37         -0.863143        1.000000        0.69948826        0.01943296        0.02080544        0.00061605
      38         -0.862888        1.000000        0.71085900        0.00157914        0.01027997        0.02415912
      39         -0.860434        1.000000        0.71857710        0.00850608        0.01768997        0.00427122
      40         -0.857996        1.000000        0.72820007        0.01121460        0.01038620        0.00666466
      41         -0.857579        1.000000        0.71018363        0.00454228        0.00544459        0.00975015
      42         -0.857446        1.000000        0.71997169        0.01746890        0.00440076        0.00884250
      43         -0.857346        1.000000        0.74677787        0.00493057        0.01074077        0.00870568
      44         -0.856561        1.000000        0.72081579        0.01573817        0.00457248        0.00566571
      45         -0.854810        1.000000        0.70358527        0.02944131        0.00683977        0.00385909
      46         -0.854427        1.000000        0.69605417        0.02630584        0.01204574        0.01091178
      47         -0.853396        1.000000        0.73331705        0.02064579        0.01324643        0.00227373
      48         -0.852822        1.000000        0.71299111        0.00657849        0.00075037        0.00737640
      49         -0.852666        1.000000        0.67913202        0.00700773        0.00809144        0.00635303
      50         -0.852067        1.000000        0.60276625        0.00958095        0.00774411        0.00697801
      51         -0.850804        1.000000        0.71623701        0.00578127        0.00475361        0.01218019
      52         -0.849750        1.000000        0.68608199        0.00498162        0.00794359        0.01056451
      53         -0.849405        1.000000        0.69807951        0.02510847        0.00138924        0.00080161
      54         -0.849125        1.000000        0.71284047        0.00114437        0.00378622        0.00295853
      55         -0.848775        1.000000        0.69516968        0.01629138        0.01727240        0.00616141
      56         -0.848644        1.000000        0.69957156        0.01495030        0.00890035        0.02107445
      57         -0.847424        1.000000        0.72527052        0.00653276        0.00670371        0.01183355
      58         -0.846387        1.000000        0.44218771        0.00965057        0.00709626        0.00352810
      59         -0.846164        1.000000        0.66318690        0.01215211        0.00177666        0.00977179
      60         -0.845140        1.000000        0.70530924        0.01662770        0.01408364        0.00528916
      61         -0.842213        1.000000        0.72781252        0.00510980        0.00970503        0.00908854
      62         -0.841325        1.000000        0.71910103        0.00286122        0.00162134        0.01489674
      63         -0.840938        1.000000        0.75000857        0.00483032        0.00709570        0.01860603
      64         -0.840316        1.000000        0.70617067        0.00632696        0.00946412        0.02523255
      65         -0.837347        1.000000        0.71991337        0.00667418        0.00964407        0.00533688
      66         -0.836774        1.000000        0.72917559        0.01483024        0.00481789        0.01612939
      67         -0.836618        1.000000        0.73611718        0.01093627        0.01016468        0.00780846
      68         -0.836244        1.000000        0.69521286        0.00927300        0.00436258        0.01011070
      69         -0.836132        1.000000        0.56392416        0.01419062        0.00624002        0.00453880
      70         -0.832962        1.000000        0.72384807        0.00644753        0.00379209        0.01534393
      71         -0.832653        1.000000        0.73037243        0.00976059        0.00583983        0.00837436
      72         -0.832255        1.000000        0.69357144        0.02031484        0.00248495        0.02469592
      73         -0.832159        1.000000        0.72777814        0.01579053        0.00249404        0.01439867
      74         -0.831851        1.000000        0.71923999        0.00660514        0.01619492        0.01473651
      75         -0.831670        1.000000        0.67352313        0.00728492        0.01314116        0.00509147
      76         -0.831196        1.000000        0.74416398        0.00938555        0.00930958        0.01541406
      77         -0.829301        1.000000        0.74364272        0.00873321        0.00720616        0.01054534
      78         -0.828871        1.000000        0.69496968        0.03750766        0.00127394        0.00858853
      79         -0.828664        1.000000        0.71391575        0.00944287        0.00221360        0.00970699
      80         -0.824925        1.000000        0.73201821        0.00969571        0.00472527        0.01388477
      81         -0.824857        1.000000        0.61914701        0.00506734        0.01009883        0.00998455
      82         -0.822222        1.000000        0.73913081        0.00784120        0.00756616        0.01045370
      83         -0.822055        1.000000        0.72291585        0.02203759        0.01199820        0.00963547
      84         -0.821146        1.000000        0.76691612        0.01178764        0.00684468        0.01174392
      85         -0.819650        1.000000        0.74207439        0.00755996        0.01013035        0.01181392
      86         -0.819152        1.000000        0.77372931        0.00481980        0.00549633        0.02460846
      87         -0.818879        1.000000        0.68787618        0.02028197        0.02839612        0.00229198
      88         -0.818088        1.000000        0.69618199        0.03654690        0.00639033        0.00471455
      89         -0.817863        1.000000        0.72684077        0.00552916        0.00836608        0.00874104
      90         -0.816869        1.000000        0.69829006        0.02210665        0.00058879        0.02409074
      91         -0.816614        1.000000        0.73161437        0.00620137        0.00934571        0.00730516
      92         -0.815911        1.000000        0.76847420        0.01573486        0.00454656        0.01428513
      93         -0.814258        1.000000        0.69078500        0.03243213        0.00744827        0.00682891
      94         -0.813940        1.000000        0.70000050        0.02513802        0.00975773        0.01247050
      95         -0.813826        1.000000        0.56288025        0.00797472        0.01348317        0.00805001
      96         -0.813378        1.000000        0.75202759        0.00700481        0.00785653        0.01565432
      97         -0.812915        1.000000        0.76564335        0.01167968        0.01104870        0.01272411
      98         -0.810034        1.000000        0.72364227        0.01194544        0.00594731        0.00611517
      99         -0.808765        1.000000        0.75373197        0.01415711        0.00704534        0.01524981
     100         -0.805820        1.000000        0.75104196        0.01443086        0.00784731        0.01040229
     101         -0.805599        1.000000        0.71559209        0.02298267        0.01050128        0.01281794
     102         -0.804598        1.000000        0.62961444        0.00909064        0.00588441        0.00796801
     103         -0.803423        1.000000        0.75328149        0.02075278        0.00505493        0.01885277
     104         -0.803070        1.000000        0.51606719        0.00790095        0.01267336        0.00468271
     105         -0.802991        1.000000        0.73112672        0.02683829        0.01736876        0.00194578
     106         -0.801788        1.000000        0.77241730        0.01172747        0.01114107        0.01035363
     107         -0.801345        1.000000        0.71616549        0.02193451        0.00256942        0.00862559
     108         -0.800279        1.000000        0.77527928        0.00915808        0.00981707        0.01515316
     109         -0.798102        1.000000        0.77213274        0.01987366        0.00887904        0.00463269
     110         -0.797862        1.000000        0.77392231        0.00534469        0.01463359        0.01367292
     111         -0.797099        1.000000        0.47025676        0.00571982        0.01203101        0.00523605
     112         -0.796561        1.000000        0.79585378        0.00727227        0.00749689        0.02386994
     113         -0.795982        1.000000        0.70671562        0.00464053        0.03541988        0.01023348
     114         -0.794971        1.000000        0.59999934        0.00998897        0.01562926        0.00706033
     115         -0.794373        1.000000        0.70739379        0.01086850        0.01221593        0.01104343
     116         -0.792876        1.000000        0.76735602        0.00789973        0.01561436        0.01165597
     117         -0.790343        1.000000        0.82193726        0.00641843        0.00217208        0.02392854
     118         -0.788945        1.000000        0.75154216        0.00800715        0.00672243        0.01608851
     119         -0.785873        1.000000        0.78207488        0.00560665        0.01340987        0.01519214
     120         -0.776631        1.000000        0.65515541        0.01024346        0.00757596        0.00835677
     121         -0.767026        1.000000        0.70324012        0.00675114        0.01093130        0.01112998
     122         -0.758609        1.000000        0.76900876        0.00058603        0.00792626        0.03532222
     123         -0.723550        1.000000        0.91082878        0.00472040        0.00978137        0.00117358
     124         -0.701849        1.000000        0.89377817        0.01239388        0.00620999        0.00466112
     125         -0.628674        1.000000        0.00001589        0.00008495        0.00000965        0.00002992
     126         -0.626936        1.000000        0.00004814        0.00001475        0.00005634        0.00004167
     127         -0.619795        1.000000        0.00034850        0.00014460        0.00008662        0.00030831
     128         -0.616088        1.000000        0.00000095        0.00000078        0.00000054        0.00000080
     129         -0.604832        1.000000        0.00031606        0.00097719        0.00075057        0.00018575
     130         -0.578200        1.000000        0.00066409        0.00054978        0.00074468        0.00138511
     131         -0.569977        1.000000        0.01752915        0.01223586        0.03065332        0.00305250
     132         -0.563397        1.000000        0.00045491        0.00068739        0.00076845        0.00017886
     133         -0.542976        1.000000        0.00058569        0.00053160        0.00082171        0.00029033
     134         -0.540041        1.000000        0.00166709        0.00041058        0.00614679        0.00094816
     135         -0.538854        1.000000        0.00124456        0.00082398        0.00214052        0.00481584
     136         -0.535177        1.000000        0.00043986        0.00042057        0.00042927        0.00072178
     137         -0.532326        1.000000        0.00035179        0.00064049        0.00054619        0.00096440
     138         -0.531692        1.000000        0.00075590        0.00093336        0.00147544        0.00165454
     139         -0.531348        1.000000        0.00079876        0.00102747        0.00132098        0.00222746
     140         -0.529638        1.000000        0.00042977        0.00101750        0.00065486        0.00146254
     141         -0.527535        1.000000        0.00043497        0.00078040        0.00054564        0.00146723
     142         -0.525232        1.000000        0.00063680        0.00073475        0.00072805        0.00207424
     143         -0.522620        1.000000        0.00123008        0.00102840        0.00211395        0.00626735
     144         -0.522063        1.000000        0.00081027        0.00095209        0.00113486        0.00339620
     145         -0.521571        1.000000        0.00109844        0.00171606        0.00134066        0.00360077
     146         -0.521407        1.000000        0.00052202        0.00552695        0.00149591        0.00421364
     147         -0.519624        1.000000        0.00072372        0.00046288        0.00052304        0.00136474
     148         -0.518940        1.000000        0.00064475        0.00211115        0.00061798        0.00140738
     149         -0.517590        1.000000        0.00034557        0.00072373        0.00045524        0.00175258
     150         -0.517138        1.000000        0.00126702        0.00370372        0.00249220        0.00514473
     151         -0.516841        1.000000        0.00064847        0.00858056        0.00173193        0.00631473
     152         -0.514868        1.000000        0.00099593        0.00256854        0.00144205        0.00419682
     153         -0.513645        1.000000        0.00131233        0.00351358        0.00273881        0.00781780
     154         -0.513369        1.000000        0.00139226        0.00133847        0.00119594        0.00986059
     155         -0.512315        1.000000        0.00061082        0.00125981        0.00071717        0.00307861
     156         -0.512010        1.000000        0.00153155        0.00042559        0.00228849        0.00267144
     157         -0.510582        1.000000        0.00050530        0.00080882        0.00092992        0.00159166
     158         -0.508406        1.000000        0.00055980        0.00210620        0.00064665        0.00562697
     159         -0.507899        1.000000        0.00021138        0.00062454        0.00029180        0.00130867
     160         -0.507096        1.000000        0.00039985        0.00036178        0.00035346        0.00122778
     161         -0.505756        1.000000        0.00116361        0.00177477        0.00143424        0.00486786
     162         -0.504544        1.000000        0.00015573        0.00037067        0.00044415        0.00072186
     163         -0.503456        1.000000        0.00107875        0.00164237        0.00120394        0.01065447
     164         -0.501924        1.000000        0.00109969        0.01397615        0.00331125        0.01451129
     165         -0.501458        1.000000        0.00117463        0.00175563        0.00154467        0.00534890
     166         -0.501052        1.000000        0.00047527        0.00398786        0.00131623        0.00491166
     167         -0.500437        1.000000        0.00058375        0.00430857        0.00170012        0.00667325
     168         -0.498709        1.000000        0.00012388        0.00241325        0.00105119        0.00202176
     169         -0.498006        1.000000        0.00019429        0.00491245        0.00158631        0.00344272
     170         -0.493542        1.000000        0.00007883        0.00164687        0.00062351        0.00096690
     171         -0.490900        1.000000        0.00002677        0.00009592        0.00017705        0.00018383
     172         -0.489613        1.000000        0.00002956        0.00005515        0.00005520        0.00010204
     173         -0.489299        1.000000        0.00031203        0.00718708        0.00324873        0.00394037
     174         -0.485619        1.000000        0.00007014        0.00016399        0.00092303        0.00033014
     175         -0.483291        1.000000        0.00003912        0.00009601        0.00009680        0.00021839
     176         -0.481203        1.000000        0.00227526        0.38776341        0.02526428        0.19628966
     177         -0.481028        1.000000        0.00047905        0.02693172        0.01549684        0.01269221
     178         -0.477279        1.000000        0.00100285        0.28112944        0.02571217        0.32938581
     179         -0.467260        1.000000        0.00041317        0.03004452        0.02756956        0.00267666
     180         -0.465086        1.000000        0.00109942        0.33475466        0.12362327        0.14935157
     181         -0.464208        1.000000        0.00263298        0.29451635        0.05842371        0.29381369
     182         -0.462535        1.000000        0.00488750        0.27770245        0.08731222        0.27510679
     183         -0.462082        1.000000        0.00195726        0.26798845        0.07322446        0.28542543
     184         -0.456549        1.000000        0.00547950        0.16697672        0.38386786        0.10829789
     185         -0.453958        1.000000        0.00014831        0.01477320        0.01674113        0.60828406
     186         -0.453559        1.000000        0.00694097        0.15194506        0.40767326        0.08617729
     187         -0.452925        1.000000        0.00347525        0.36484341        0.07567281        0.20345547
     188         -0.451295        1.000000        0.00012208        0.00516192        0.00088641        0.00545115
     189         -0.450827        1.000000        0.00193439        0.29413722        0.04749299        0.28951607
     190         -0.449471        1.000000        0.00268602        0.17082579        0.06976128        0.38015141
     191         -0.449319        1.000000        0.00227703        0.16267205        0.17121223        0.29979796
     192         -0.448502        1.000000        0.00339962        0.14912696        0.02433783        0.45342355
     193         -0.447004        1.000000        0.00248165        0.10715956        0.15807165        0.38937655
     194         -0.445535        1.000000        0.00096601        0.32406951        0.23671412        0.06338134
     195         -0.445249        1.000000        0.00236443        0.05253522        0.07159101        0.50403910
     196         -0.445015        1.000000        0.00356311        0.13859372        0.13837819        0.33581099
     197         -0.444310        1.000000        0.00266853        0.05152747        0.15996196        0.41071706
     198         -0.443027        1.000000        0.00342882        0.26529217        0.13861899        0.23661352
     199         -0.442179        1.000000        0.00223376        0.02724606        0.05770298        0.54480785
     200         -0.441508        1.000000        0.00008142        0.07359628        0.06379500        0.08813578
     201         -0.441420        1.000000        0.00090808        0.11300459        0.12125031        0.39792730
     202         -0.439313        1.000000        0.00333540        0.22040603        0.17734043        0.23173043
     203         -0.437975        1.000000        0.00208877        0.11512601        0.36365231        0.16042167
     204         -0.435761        1.000000        0.00285914        0.30714299        0.02406545        0.31891051
     205         -0.435046        1.000000        0.00429965        0.30369207        0.17112440        0.17413230
     206         -0.434007        1.000000        0.00251564        0.31686189        0.11046001        0.21892998
     207         -0.432982        1.000000        0.00152741        0.09056870        0.03737157        0.49417993
     208         -0.432814        1.000000        0.00312126        0.16851889        0.23987848        0.23687626
     209         -0.432720        1.000000        0.00323173        0.32433291        0.09478131        0.21893704
     210         -0.431727        1.000000        0.00066071        0.26626419        0.30919956        0.08768891
     211         -0.431595        1.000000        0.00099024        0.13248834        0.03392607        0.46397377
     212         -0.430742        1.000000        0.00027602        0.00807246        0.00168486        0.00816033
     213         -0.430564        1.000000        0.00547272        0.16651938        0.17063190        0.31159933
     214         -0.430404        1.000000        0.00242028        0.26393474        0.06860369        0.32422055
     215         -0.429155        1.000000        0.00265438        0.18598684        0.10022844        0.36235293
     216         -0.428831        1.000000        0.00196316        0.32662449        0.04010485        0.27648418
     217         -0.428331        1.000000        0.00109607        0.04260008        0.04382869        0.54982306
     218         -0.428157        1.000000        0.00027174        0.01313659        0.26698253        0.35746428
     219         -0.427798        1.000000        0.00083529        0.33369925        0.06027421        0.24094764
     220         -0.427419        1.000000        0.00213089        0.47452717        0.02042663        0.16230902
     221         -0.425718        1.000000        0.00120517        0.21671092        0.24315209        0.18884776
     222         -0.425552        1.000000        0.00168785        0.49540198        0.03507611        0.12289894
     223         -0.424168        1.000000        0.00411546        0.12095021        0.27202323        0.24466157
     224         -0.424136        1.000000        0.00363829        0.41816898        0.15680087        0.06436418
     225         -0.423925        1.000000        0.00368194        0.14666325        0.34346056        0.15373813
     226         -0.423712        1.000000        0.00323981        0.13130542        0.21558861        0.27820365
     227         -0.423536        1.000000        0.00113074        0.25504124        0.12586765        0.26291808
     228         -0.423112        1.000000        0.00145782        0.09657440        0.09537281        0.43674875
     229         -0.423069        1.000000        0.00177624        0.10545609        0.28182960        0.25493587
     230         -0.422543        1.000000        0.00258968        0.33156979        0.08422788        0.23844944
     231         -0.422259        1.000000        0.00212762        0.25698829        0.26513531        0.12301874
     232         -0.421830        1.000000        0.00254856        0.12647970        0.33143820        0.19086758
     233         -0.421705        1.000000        0.00145122        0.06775817        0.54378439        0.03740534
     234         -0.420988        1.000000        0.00321264        0.25943286        0.03493152        0.35004259
     235         -0.419480        1.000000        0.00381017        0.27089258        0.11876287        0.25896898
     236         -0.419282        1.000000        0.00415755        0.27115624        0.16081750        0.21488252
     237         -0.419058        1.000000        0.00247979        0.26235186        0.16732124        0.22210703
     238         -0.418417        1.000000        0.00402079        0.04169256        0.28355200        0.32413526
     239         -0.417533        1.000000        0.00292138        0.08999770        0.39519266        0.14810006
     240         -0.416798        1.000000        0.00057971        0.31835776        0.01053511        0.29213661
     241         -0.416443        1.000000        0.00877452        0.08596079        0.16929135        0.39174581
     242         -0.416067        1.000000        0.00178432        0.38515057        0.08659182        0.17647498
     243         -0.413800        1.000000        0.00272252        0.16320352        0.27144065        0.16277111
     244         -0.413723        1.000000        0.00172963        0.10941583        0.17278781        0.33786146
     245         -0.413484        1.000000        0.00109767        0.02899560        0.08659079        0.20885096
     246         -0.412383        1.000000        0.00719554        0.28008419        0.11022142        0.26399097
     247         -0.412359        1.000000        0.00426786        0.00646054        0.50341270        0.13338836
     248         -0.411962        1.000000        0.00253677        0.02960073        0.36900456        0.19121155
     249         -0.409583        1.000000        0.00645199        0.36270785        0.07421267        0.16957605
     250         -0.409526        1.000000        0.00493551        0.18809908        0.23956523        0.20634654
     251         -0.409195        1.000000        0.00360066        0.10017638        0.33989072        0.18221413
     252         -0.408624        1.000000        0.00177946        0.12201375        0.25533541        0.17841655
     253         -0.408515        1.000000        0.00875809        0.22014038        0.29962067        0.11071705
     254         -0.408265        1.000000        0.00329072        0.20700271        0.09982888        0.30545352
     255         -0.408098        1.000000        0.00335489        0.19055318        0.22498048        0.11619792
     256         -0.407731        1.000000        0.00128894        0.06336824        0.07745541        0.05855734
     257         -0.407659        1.000000        0.00231144        0.24148999        0.02906386        0.38603095
     258         -0.407521        1.000000        0.00593191        0.11992601        0.28393800        0.17010787
     259         -0.406818        1.000000        0.00197224        0.06747236        0.10818932        0.12447470