# Projected DOS for atomic kind H at iteration step i = 0, E(Fermi) =    -0.114860 a.u.
#     MO Eigenvalue [a.u.]      Occupation                 s
       1         -0.922692        1.000000        0.25253353
       2         -0.917627        1.000000        0.26706001
       3         -0.906110        1.000000        0.25619809
       4         -0.904885        1.000000        0.25036266
       5         -0.903702        1.000000        0.24818863
       6         -0.899845        1.000000        0.25539605
       7         -0.898240        1.000000        0.25081832
       8         -0.894362        1.000000        0.25531147
       9         -0.893486        1.000000        0.25047312
      10         -0.891576        1.000000        0.27535322
      11         -0.890703        1.000000        0.26232561
      12         -0.889763        1.000000        0.25212943
      13         -0.889291        1.000000        0.23883722
      14         -0.885852        1.000000        0.24309220
      15         -0.883197        1.000000        0.25757786
      16         -0.881382        1.000000        0.26425648
      17         -0.880015        1.000000        0.25508520
      18         -0.879951        1.000000        0.27974052
      19         -0.879170        1.000000        0.26862901
      20         -0.877105        1.000000        0.25805412
      21         -0.876787        1.000000        0.28073604
      22         -0.876736        1.000000        0.24997999
      23         -0.876579        1.000000        0.25168951
      24         -0.875725        1.000000        0.24790267
      25         -0.874600        1.000000        0.26655046
      26         -0.874304        1.000000        0.28346961
      27         -0.872525        1.000000        0.24261658
      28         -0.872333        1.000000        0.25287577
      29         -0.871832        1.000000        0.24981047
      30         -0.871670        1.000000        0.24759442
      31         -0.870538        1.000000        0.27978654
      32         -0.869242        1.000000        0.27848170
      33         -0.868352        1.000000        0.26916737
      34         -0.866436        1.000000        0.25836979
      35         -0.865981        1.000000        0.25587234
      36         -0.863345        1.000000        0.23821881
      37         -0.863131        1.000000        0.25730298
      38         -0.862703        1.000000        0.25181179
      39         -0.860572        1.000000        0.25090757
      40         -0.857948        1.000000        0.24273025
      41         -0.857428        1.000000        0.24908163
      42         -0.857332        1.000000        0.22846281
      43         -0.856784        1.000000        0.26946404
      44         -0.856457        1.000000        0.25269732
      45         -0.854811        1.000000        0.25623736
      46         -0.854408        1.000000        0.25463690
      47         -0.853512        1.000000        0.23123343
      48         -0.852822        1.000000        0.27196115
      49         -0.852658        1.000000        0.26320411
      50         -0.852013        1.000000        0.24703765
      51         -0.850802        1.000000        0.26046579
      52         -0.849745        1.000000        0.26007591
      53         -0.849365        1.000000        0.27448563
      54         -0.849170        1.000000        0.27910274
      55         -0.848746        1.000000        0.26161483
      56         -0.848558        1.000000        0.25506865
      57         -0.846749        1.000000        0.24962389
      58         -0.846357        1.000000        0.24679661
      59         -0.846152        1.000000        0.27187105
      60         -0.845081        1.000000        0.25805557
      61         -0.842237        1.000000        0.24558285
      62         -0.841297        1.000000        0.26129619
      63         -0.840918        1.000000        0.21739785
      64         -0.840429        1.000000        0.25303725
      65         -0.837764        1.000000        0.23029319
      66         -0.837395        1.000000        0.25826197
      67         -0.836470        1.000000        0.23531225
      68         -0.836239        1.000000        0.26164534
      69         -0.836027        1.000000        0.21669819
      70         -0.835796        1.000000        0.23589366
      71         -0.832959        1.000000        0.25006340
      72         -0.832479        1.000000        0.24632207
      73         -0.832190        1.000000        0.25738779
      74         -0.831662        1.000000        0.25652872
      75         -0.831483        1.000000        0.24106453
      76         -0.830608        1.000000        0.21941246
      77         -0.829334        1.000000        0.22982060
      78         -0.828869        1.000000        0.25655301
      79         -0.828449        1.000000        0.26511557
      80         -0.824982        1.000000        0.23961450
      81         -0.824847        1.000000        0.24879042
      82         -0.822145        1.000000        0.23506720
      83         -0.821096        1.000000        0.20017348
      84         -0.820676        1.000000        0.23296808
      85         -0.819619        1.000000        0.22854285
      86         -0.819126        1.000000        0.18620496
      87         -0.818832        1.000000        0.26084579
      88         -0.818312        1.000000        0.25544777
      89         -0.818100        1.000000        0.24646071
      90         -0.817049        1.000000        0.24027164
      91         -0.816740        1.000000        0.23434071
      92         -0.815505        1.000000        0.25101123
      93         -0.814243        1.000000        0.24752190
      94         -0.813825        1.000000        0.20248382
      95         -0.813810        1.000000        0.23874740
      96         -0.813556        1.000000        0.21683499
      97         -0.811908        1.000000        0.19370024
      98         -0.811863        1.000000        0.19275189
      99         -0.810282        1.000000        0.23497710
     100         -0.810265        1.000000        0.24831873
     101         -0.808751        1.000000        0.20893242
     102         -0.805813        1.000000        0.21591161
     103         -0.805112        1.000000        0.24478924
     104         -0.803053        1.000000        0.21755308
     105         -0.801879        1.000000        0.19747358
     106         -0.801484        1.000000        0.23200800
     107         -0.800129        1.000000        0.19020294
     108         -0.799646        1.000000        0.24025568
     109         -0.798090        1.000000        0.19390169
     110         -0.797914        1.000000        0.19044646
     111         -0.797215        1.000000        0.24662335
     112         -0.795764        1.000000        0.22377846
     113         -0.794971        1.000000        0.22986813
     114         -0.794355        1.000000        0.19119220
     115         -0.792865        1.000000        0.19718907
     116         -0.790275        1.000000        0.10111354
     117         -0.789304        1.000000        0.20941884
     118         -0.785858        1.000000        0.18357106
     119         -0.782760        1.000000        0.17043186
     120         -0.777688        1.000000        0.21341811
     121         -0.768388        1.000000        0.18959041
     122         -0.760073        1.000000        0.18498838
     123         -0.702595        1.000000        0.08242543
     124         -0.679695        1.000000        0.09087415
     125         -0.628691        1.000000        0.34976986
     126         -0.626815        1.000000        0.34904533
     127         -0.619785        1.000000        0.34947191
     128         -0.616088        1.000000        0.34420279
     129         -0.604808        1.000000        0.36112469
     130         -0.578209        1.000000        0.36444067
     131         -0.569905        1.000000        0.01111223
     132         -0.563380        1.000000        0.37097998
     133         -0.540437        1.000000        0.02593589
     134         -0.537544        1.000000        0.02362814
     135         -0.535460        1.000000        0.00949169
     136         -0.533739        1.000000        0.03400351
     137         -0.531954        1.000000        0.03527241
     138         -0.530429        1.000000        0.03359146
     139         -0.529255        1.000000        0.01842993
     140         -0.527954        1.000000        0.01532800
     141         -0.526260        1.000000        0.02264850
     142         -0.525529        1.000000        0.01654416
     143         -0.523245        1.000000        0.01049837
     144         -0.522509        1.000000        0.05087984
     145         -0.521454        1.000000        0.09014564
     146         -0.520555        1.000000        0.01580346
     147         -0.520411        1.000000        0.01931692
     148         -0.517517        1.000000        0.02395906
     149         -0.517357        1.000000        0.03686556
     150         -0.517247        1.000000        0.01419944
     151         -0.516849        1.000000        0.02979852
     152         -0.515704        1.000000        0.05022153
     153         -0.514020        1.000000        0.01978430
     154         -0.513486        1.000000        0.03441276
     155         -0.511815        1.000000        0.03497807
     156         -0.511161        1.000000        0.02356731
     157         -0.510440        1.000000        0.00986939
     158         -0.509185        1.000000        0.01789238
     159         -0.508880        1.000000        0.00752792
     160         -0.508761        1.000000        0.00939189
     161         -0.505965        1.000000        0.02316240
     162         -0.505471        1.000000        0.01311468
     163         -0.503344        1.000000        0.01001729
     164         -0.502359        1.000000        0.01865078
     165         -0.501881        1.000000        0.03018530
     166         -0.501385        1.000000        0.00931309
     167         -0.500635        1.000000        0.01955621
     168         -0.498611        1.000000        0.26483098
     169         -0.497881        1.000000        0.25202023
     170         -0.493579        1.000000        0.27667823
     171         -0.491025        1.000000        0.26539741
     172         -0.489569        1.000000        0.27190219
     173         -0.489364        1.000000        0.22098212
     174         -0.485712        1.000000        0.24563897
     175         -0.483446        1.000000        0.25403338
     176         -0.481184        1.000000        0.33643280
     177         -0.480985        1.000000        0.33402240
     178         -0.477269        1.000000        0.35634848
     179         -0.467215        1.000000        0.32305627
     180         -0.465089        1.000000        0.34788284
     181         -0.464182        1.000000        0.34480658
     182         -0.462507        1.000000        0.33492452
     183         -0.462054        1.000000        0.34389283
     184         -0.456528        1.000000        0.33360947
     185         -0.453941        1.000000        0.35703227
     186         -0.453537        1.000000        0.34512151
     187         -0.452823        1.000000        0.34588891
     188         -0.451283        1.000000        0.34155721
     189         -0.450812        1.000000        0.34322339
     190         -0.449472        1.000000        0.35014778
     191         -0.449298        1.000000        0.34870712
     192         -0.448501        1.000000        0.33277342
     193         -0.446973        1.000000        0.34114208
     194         -0.445508        1.000000        0.34503039
     195         -0.445180        1.000000        0.34973113
     196         -0.444978        1.000000        0.34874706
     197         -0.444287        1.000000        0.35258622
     198         -0.442981        1.000000        0.34491303
     199         -0.442213        1.000000        0.34724741
     200         -0.441490        1.000000        0.32960714
     201         -0.441248        1.000000        0.34342676
     202         -0.439229        1.000000        0.34554969
     203         -0.437944        1.000000        0.34169519
     204         -0.435496        1.000000        0.34622755
     205         -0.435021        1.000000        0.34161728
     206         -0.433989        1.000000        0.34333737
     207         -0.433000        1.000000        0.33884538
     208         -0.432794        1.000000        0.34517172
     209         -0.432706        1.000000        0.33977245
     210         -0.431698        1.000000        0.33510002
     211         -0.431468        1.000000        0.35519116
     212         -0.430642        1.000000        0.33910254
     213         -0.430493        1.000000        0.33907837
     214         -0.430366        1.000000        0.33408462
     215         -0.429117        1.000000        0.34112115
     216         -0.428776        1.000000        0.34277973
     217         -0.428317        1.000000        0.35181028
     218         -0.428077        1.000000        0.36203772
     219         -0.427788        1.000000        0.34195770
     220         -0.427272        1.000000        0.34029704
     221         -0.425700        1.000000        0.34751900
     222         -0.425540        1.000000        0.34301823
     223         -0.424108        1.000000        0.35604610
     224         -0.424097        1.000000        0.34160985
     225         -0.423919        1.000000        0.34980200
     226         -0.423695        1.000000        0.34473916
     227         -0.423505        1.000000        0.34663686
     228         -0.423100        1.000000        0.35384705
     229         -0.423051        1.000000        0.35291874
     230         -0.422611        1.000000        0.34239635
     231         -0.422245        1.000000        0.34421206
     232         -0.421917        1.000000        0.34272948
     233         -0.421762        1.000000        0.34050640
     234         -0.420969        1.000000        0.33320651
     235         -0.419445        1.000000        0.34520863
     236         -0.419212        1.000000        0.34255954
     237         -0.419081        1.000000        0.34456426
     238         -0.418421        1.000000        0.34346289
     239         -0.417458        1.000000        0.35795494
     240         -0.416771        1.000000        0.35667613
     241         -0.416414        1.000000        0.33538740
     242         -0.416042        1.000000        0.34465359
     243         -0.413749        1.000000        0.34842356
     244         -0.413677        1.000000        0.34817911
     245         -0.413585        1.000000        0.32668568
     246         -0.412338        1.000000        0.32059202
     247         -0.412252        1.000000        0.35216079
     248         -0.412013        1.000000        0.34077332
     249         -0.409644        1.000000        0.32727943
     250         -0.409545        1.000000        0.33901515
     251         -0.409124        1.000000        0.33501271
     252         -0.408735        1.000000        0.33406108
     253         -0.408574        1.000000        0.32058672
     254         -0.408396        1.000000        0.33533142
     255         -0.408087        1.000000        0.30595925
     256         -0.407736        1.000000        0.23285470
     257         -0.407632        1.000000        0.33695658
     258         -0.407523        1.000000        0.30940187
     259         -0.406730        1.000000        0.24752441
     260         -0.406082        1.000000        0.34587615
     261         -0.405955        1.000000        0.34139612
     262         -0.405154        1.000000        0.29384511
     263         -0.404236        1.000000        0.30843490
     264         -0.404178        1.000000        0.16517233
     265         -0.403948        1.000000        0.32235402
     266         -0.403707        1.000000        0.27031725
     267         -0.403369        1.000000        0.33683815
     268         -0.402871        1.000000        0.29504980
     269         -0.402482        1.000000        0.21679182
     270         -0.401591        1.000000        0.20680576
     271         -0.401405        1.000000        0.08670623
     272         -0.401095        1.000000        0.33757096
     273         -0.400235        1.000000        0.27457299
     274         -0.399583        1.000000        0.15359905
     275         -0.399454        1.000000        0.25979471
     276         -0.399013        1.000000        0.33022958
     277         -0.398329        1.000000        0.18861577
     278         -0.397888        1.000000        0.29613375
     279         -0.397733        1.000000        0.28917452
     280         -0.397327        1.000000        0.15759340
     281         -0.396590        1.000000        0.29969894
     282         -0.396299        1.000000        0.18625437
     283         -0.396028        1.000000        0.33699658
     284         -0.395087        1.000000        0.29734907
     285         -0.394380        1.000000        0.36452271
     286         -0.393837        1.000000        0.30795890
     287         -0.393763        1.000000        0.33836751
     288         -0.393083        1.000000        0.09602508
     289         -0.392453        1.000000        0.32322995
     290         -0.391516        1.000000        0.34468238
     291         -0.390672        1.000000        0.27985370
     292         -0.389967        1.000000        0.30525383
     293         -0.389864        1.000000        0.22507954
     294         -0.389629        1.000000        0.10597828
     295         -0.387550        1.000000        0.04025536
     296         -0.387251        1.000000        0.36048490
     297         -0.383679        1.000000        0.34224302
     298         -0.383456        1.000000        0.35454034
     299         -0.382963        1.000000        0.34475687
     300         -0.382738        1.000000        0.33840395
     301         -0.382669        1.000000        0.21990371
     302         -0.382620        1.000000        0.27751019
     303         -0.380122        1.000000        0.35707668
     304         -0.379942        1.000000        0.35044236
     305         -0.379903        1.000000        0.36303003
     306         -0.376364        1.000000        0.36538112
     307         -0.375381        1.000000        0.33613145
     308         -0.372507        1.000000        0.36044127
     309         -0.371640        1.000000        0.35063822
     310         -0.369007        1.000000        0.35620821
     311         -0.366110        1.000000        0.34833076
     312         -0.363557        1.000000        0.28677255
     313         -0.361988        1.000000        0.33935867
     314         -0.357172        1.000000        0.18668032
     315         -0.348508        1.000000        0.42408717
     316         -0.344354        1.000000        0.42586124
     317         -0.343861        1.000000        0.40353109
     318         -0.343759        1.000000        0.24471503
     319         -0.341971        1.000000        0.42046610
     320         -0.341695        1.000000        0.15934122
     321         -0.337766        1.000000        0.42339924
     322         -0.336971        1.000000        0.17573004
     323         -0.336313        1.000000        0.42156186
     324         -0.333683        1.000000        0.42116561
     325         -0.331873        1.000000        0.29789223
     326         -0.331836        1.000000        0.29383787
     327         -0.328528        1.000000        0.15774080
     328         -0.328456        1.000000        0.40148938
     329         -0.325384        1.000000        0.39097481
     330         -0.321266        1.000000        0.17319301
     331         -0.320554        1.000000        0.12925823
     332         -0.318023        1.000000        0.11626073
     333         -0.317721        1.000000        0.30532601
     334         -0.317112        1.000000        0.17433244
     335         -0.315309        1.000000        0.12187664
     336         -0.313763        1.000000        0.14941083
     337         -0.313137        1.000000        0.13949546
     338         -0.308398        1.000000        0.13672337
     339         -0.306785        1.000000        0.14805597
     340         -0.306638        1.000000        0.14467477
     341         -0.304416        1.000000        0.15239604
     342         -0.302907        1.000000        0.13053521
     343         -0.302391        1.000000        0.14610921
     344         -0.299350        1.000000        0.29701277
     345         -0.298854        1.000000        0.14508301
     346         -0.298466        1.000000        0.16256969
     347         -0.298373        1.000000        0.18512947
     348         -0.297309        1.000000        0.30915624
     349         -0.295417        1.000000        0.12801039
     350         -0.292354        1.000000        0.17024592
     351         -0.292150        1.000000        0.10944668
     352         -0.289534        1.000000        0.13557291
     353         -0.288352        1.000000        0.10365420
     354         -0.288080        1.000000        0.13534376
     355         -0.287704        1.000000        0.21638836
     356         -0.287573        1.000000        0.41791079
     357         -0.285698        1.000000        0.10756989
     358         -0.284265        1.000000        0.20503469
     359         -0.283314        1.000000        0.10542648
     360         -0.282589        1.000000        0.10856255
     361         -0.281923        1.000000        0.12136415
     362         -0.280707        1.000000        0.13478043
     363         -0.278252        1.000000        0.10947418
     364         -0.278121        1.000000        0.12220328
     365         -0.276756        1.000000        0.13089215
     366         -0.274996        1.000000        0.09302264
     367         -0.274359        1.000000        0.07853795
     368         -0.270771        1.000000        0.10091152
     369         -0.270590        1.000000        0.10790441
     370         -0.269059        1.000000        0.06780682
     371         -0.266915        1.000000        0.10031510
     372         -0.266761        1.000000        0.10372418
     373         -0.265252        1.000000        0.12262658
     374         -0.263277        1.000000        0.09628734
     375         -0.262717        1.000000        0.12582405
     376         -0.262150        1.000000        0.09508002
     377         -0.261501        1.000000        0.09592576
     378         -0.260700        1.000000        0.09232222
     379         -0.258982        1.000000        0.10023429
     380         -0.255964        1.000000        0.09735399
     381         -0.255476        1.000000        0.10145409
     382         -0.253969        1.000000        0.09782183
     383         -0.251000        1.000000        0.09343613
     384         -0.250663        1.000000        0.10233268
     385         -0.249479        1.000000        0.06472747
     386         -0.249150        1.000000        0.07554477
     387         -0.248234        1.000000        0.07148230
     388         -0.247821        1.000000        0.09847144
     389         -0.246742        1.000000        0.06082194
     390         -0.244963        1.000000        0.12272397
     391         -0.243851        1.000000        0.08406629
     392         -0.243410        1.000000        0.08209688
     393         -0.242464        1.000000        0.07785176
     394         -0.239444        1.000000        0.06679994
     395         -0.239283        1.000000        0.07298530
     396         -0.236729        1.000000        0.05249542
     397         -0.236564        1.000000        0.07809104
     398         -0.234747        1.000000        0.08203927
     399         -0.234531        1.000000        0.06492714
     400         -0.234028        1.000000        0.00952355
     401         -0.232724        1.000000        0.03093247
     402         -0.231947        1.000000        0.05389059
     403         -0.230959        1.000000        0.04707653
     404         -0.230362        1.000000        0.06349884
     405         -0.229919        1.000000        0.07580249
     406         -0.229362        1.000000        0.06981642
     407         -0.228823        1.000000        0.04833348
     408         -0.228551        1.000000        0.05712398
     409         -0.228163        1.000000        0.03694790
     410         -0.227868        1.000000        0.02735571
     411         -0.223762        1.000000        0.04588049
     412         -0.223577        1.000000        0.04880550
     413         -0.222919        1.000000        0.05099515
     414         -0.222809        1.000000        0.02003427
     415         -0.222651        1.000000        0.01993172
     416         -0.221568        1.000000        0.04277339
     417         -0.220770        1.000000        0.02416292
     418         -0.220403        1.000000        0.01177078
     419         -0.219998        1.000000        0.04616116
     420         -0.218413        1.000000        0.02747174
     421         -0.217500        1.000000        0.03483985
     422         -0.217068        1.000000        0.03818182
     423         -0.216241        1.000000        0.03483177
     424         -0.215782        1.000000        0.02266851
     425         -0.215296        1.000000        0.01393505
     426         -0.215010        1.000000        0.00428838
     427         -0.214811        1.000000        0.03092356
     428         -0.214624        1.000000        0.02789920
     429         -0.214503        1.000000        0.03067650
     430         -0.213665        1.000000        0.02833664
     431         -0.212853        1.000000        0.04029072
     432         -0.211774        1.000000        0.03008641
     433         -0.211483        1.000000        0.01345058
     434         -0.211138        1.000000        0.01423915
     435         -0.210431        1.000000        0.01549767
     436         -0.209446        1.000000        0.03821705
     437         -0.209269        1.000000        0.06096805
     438         -0.208537        1.000000        0.03291861
     439         -0.207373        1.000000        0.03516836
     440         -0.207160        1.000000        0.02474700
     441         -0.206553        1.000000        0.02891385
     442         -0.206083        1.000000        0.01792955
     443         -0.205709        1.000000        0.01802046
     444         -0.205596        1.000000        0.01650419
     445         -0.205122        1.000000        0.00857518
     446         -0.204858        1.000000        0.01306895
     447         -0.203894        1.000000        0.00872744
     448         -0.203139        1.000000        0.01879574
     449         -0.202851        1.000000        0.01465201
     450         -0.202264        1.000000        0.01144679
     451         -0.201966        1.000000        0.01383913
     452         -0.201569        1.000000        0.03173273
     453         -0.200762        1.000000        0.03527081
     454         -0.200545        1.000000        0.01633181
     455         -0.200152        1.000000        0.02306497
     456         -0.199673        1.000000        0.00329102
     457         -0.199366        1.000000        0.01013607
     458         -0.199003        1.000000        0.00714655
     459         -0.198804        1.000000        0.01023846
     460         -0.198180        1.000000        0.00832493
     461         -0.197443        1.000000        0.03299636
     462         -0.196815        1.000000        0.01230248
     463         -0.196751        1.000000        0.01987598
     464         -0.196536        1.000000        0.01071310
     465         -0.195980        1.000000        0.01388107
     466         -0.195368        1.000000        0.01413974
     467         -0.194922        1.000000        0.00838238
     468         -0.194501        1.000000        0.00714072
     469         -0.194104        1.000000        0.01022729
     470         -0.193856        1.000000        0.01822016
     471         -0.193632        1.000000        0.01204770
     472         -0.192670        1.000000        0.05349682
     473         -0.192197        1.000000        0.01595820
     474         -0.192011        1.000000        0.03614303
     475         -0.191751        1.000000        0.04487864
     476         -0.191312        1.000000        0.02025059
     477         -0.190637        1.000000        0.00532915
     478         -0.190444        1.000000        0.01332790
     479         -0.189812        1.000000        0.01448454
     480         -0.189483        1.000000        0.02782653
     481         -0.189424        1.000000        0.02449370
     482         -0.189119        1.000000        0.01357832
     483         -0.188621        1.000000        0.00552210
     484         -0.188336        1.000000        0.00885048
     485         -0.188020        1.000000        0.00803024
     486         -0.187733        1.000000        0.01017742
     487         -0.186516        1.000000        0.01374894
     488         -0.185997        1.000000        0.00723842
     489         -0.185671        1.000000        0.01515090