# Projected DOS for atomic kind C at iteration step i = 0, E(Fermi) =    -0.114860 a.u.
#     MO Eigenvalue [a.u.]      Occupation                 s                py                pz                px
       1         -0.922692        1.000000        0.00000002        0.00000000        0.00000000        0.00000003
       2         -0.917627        1.000000        0.00000085        0.00000011        0.00000003        0.00000091
       3         -0.906110        1.000000        0.00001240        0.00000325        0.00000054        0.00000697
       4         -0.904885        1.000000        0.00000648        0.00001481        0.00000037        0.00000004
       5         -0.903702        1.000000        0.00000000        0.00000000        0.00000000        0.00000000
       6         -0.899845        1.000000        0.00000018        0.00000005        0.00000028        0.00000018
       7         -0.898240        1.000000        0.00000000        0.00000000        0.00000001        0.00000000
       8         -0.894362        1.000000        0.00000002        0.00000002        0.00000004        0.00000002
       9         -0.893486        1.000000        0.00004578        0.00000270        0.00000083        0.00004189
      10         -0.891576        1.000000        0.00000001        0.00000000        0.00000000        0.00000000
      11         -0.890703        1.000000        0.00000011        0.00000000        0.00000000        0.00000010
      12         -0.889763        1.000000        0.00000137        0.00000003        0.00000000        0.00000128
      13         -0.889291        1.000000        0.00019998        0.00000238        0.00000588        0.00015594
      14         -0.885852        1.000000        0.00000000        0.00000000        0.00000000        0.00000000
      15         -0.883197        1.000000        0.00000000        0.00000000        0.00000000        0.00000000
      16         -0.881382        1.000000        0.00000001        0.00000002        0.00000002        0.00000001
      17         -0.880015        1.000000        0.00117023        0.00000255        0.00002818        0.00087094
      18         -0.879951        1.000000        0.06135035        0.00000719        0.00227394        0.04113703
      19         -0.879170        1.000000        0.00212495        0.00001944        0.00000256        0.00181546
      20         -0.877105        1.000000        0.00000467        0.00000002        0.00000236        0.00000003
      21         -0.876787        1.000000        0.06211710        0.00006761        0.00081268        0.04282962
      22         -0.876736        1.000000        0.00000083        0.00000000        0.00000002        0.00000058
      23         -0.876579        1.000000        0.00000009        0.00000000        0.00000001        0.00000007
      24         -0.875725        1.000000        0.00000272        0.00000000        0.00000037        0.00000184
      25         -0.874600        1.000000        0.00000302        0.00000001        0.00000005        0.00000203
      26         -0.874304        1.000000        0.05750430        0.00000015        0.00555901        0.03716313
      27         -0.872525        1.000000        0.00000098        0.00000006        0.00000009        0.00000083
      28         -0.872333        1.000000        0.00000000        0.00000000        0.00000000        0.00000001
      29         -0.871832        1.000000        0.00000000        0.00000010        0.00000002        0.00000000
      30         -0.871670        1.000000        0.00000011        0.00000001        0.00000003        0.00000004
      31         -0.870538        1.000000        0.06440023        0.00039033        0.00061411        0.04392731
      32         -0.869242        1.000000        0.00013199        0.00000036        0.00000461        0.00008076
      33         -0.868352        1.000000        0.00025009        0.00000404        0.00000008        0.00020910
      34         -0.866436        1.000000        0.00000342        0.00000167        0.00000170        0.00000230
      35         -0.865981        1.000000        0.00001118        0.00000357        0.00000194        0.00000987
      36         -0.863345        1.000000        0.00000000        0.00000000        0.00000000        0.00000000
      37         -0.863131        1.000000        0.00014638        0.00001845        0.00009463        0.00002446
      38         -0.862703        1.000000        0.00000414        0.00000005        0.00000030        0.00000217
      39         -0.860572        1.000000        0.00003514        0.00000256        0.00000799        0.00002590
      40         -0.857948        1.000000        0.00003563        0.00000670        0.00000292        0.00002183
      41         -0.857428        1.000000        0.00000046        0.00000035        0.00001649        0.00005770
      42         -0.857332        1.000000        0.00000000        0.00000000        0.00000000        0.00000003
      43         -0.856784        1.000000        0.00008755        0.00000017        0.00000952        0.00004414
      44         -0.856457        1.000000        0.00000085        0.00000014        0.00001054        0.00001629
      45         -0.854811        1.000000        0.00000130        0.00000001        0.00000001        0.00000091
      46         -0.854408        1.000000        0.00000003        0.00000000        0.00000001        0.00000001
      47         -0.853512        1.000000        0.00000034        0.00000001        0.00000002        0.00000024
      48         -0.852822        1.000000        0.00000001        0.00000016        0.00000019        0.00000010
      49         -0.852658        1.000000        0.00298593        0.00000788        0.00001647        0.00203995
      50         -0.852013        1.000000        0.01189510        0.00002072        0.00004753        0.00809245
      51         -0.850802        1.000000        0.00000028        0.00000275        0.00000071        0.00000868
      52         -0.849745        1.000000        0.00264567        0.00001261        0.00002157        0.00175421
      53         -0.849365        1.000000        0.00000036        0.00000065        0.00000017        0.00000062
      54         -0.849170        1.000000        0.00000000        0.00000001        0.00000001        0.00000003
      55         -0.848746        1.000000        0.00029325        0.00000042        0.00000118        0.00019449
      56         -0.848558        1.000000        0.00000126        0.00000005        0.00000023        0.00000051
      57         -0.846749        1.000000        0.00002572        0.00000140        0.00000534        0.00000993
      58         -0.846357        1.000000        0.02793464        0.00004964        0.00014692        0.01811497
      59         -0.846152        1.000000        0.00335362        0.00030565        0.00187160        0.00055029
      60         -0.845081        1.000000        0.00003517        0.00000006        0.00000021        0.00002252
      61         -0.842237        1.000000        0.00027975        0.00000038        0.00000343        0.00017826
      62         -0.841297        1.000000        0.00000186        0.00000215        0.00000002        0.00003433
      63         -0.840918        1.000000        0.00000000        0.00000001        0.00000002        0.00000001
      64         -0.840429        1.000000        0.00000430        0.00000001        0.00000003        0.00000265
      65         -0.837764        1.000000        0.00000584        0.00000006        0.00000009        0.00000349
      66         -0.837395        1.000000        0.00000180        0.00000026        0.00000081        0.00000067
      67         -0.836470        1.000000        0.00000039        0.00000095        0.00000072        0.00000208
      68         -0.836239        1.000000        0.00167137        0.00017515        0.00074756        0.00030453
      69         -0.836027        1.000000        0.01937646        0.00006233        0.00019397        0.01146759
      70         -0.835796        1.000000        0.00000318        0.00000029        0.00000229        0.00000094
      71         -0.832959        1.000000        0.00001088        0.00001572        0.00000754        0.00008723
      72         -0.832479        1.000000        0.00000213        0.00000012        0.00000050        0.00000111
      73         -0.832190        1.000000        0.00024672        0.00000106        0.00000294        0.00014114
      74         -0.831662        1.000000        0.00397411        0.00035482        0.00176462        0.00072468
      75         -0.831483        1.000000        0.00000187        0.00000015        0.00000073        0.00000045
      76         -0.830608        1.000000        0.00000059        0.00000005        0.00000097        0.00000009
      77         -0.829334        1.000000        0.00001154        0.00000075        0.00000251        0.00000548
      78         -0.828869        1.000000        0.00004891        0.00000448        0.00001981        0.00000910
      79         -0.828449        1.000000        0.00002584        0.00001363        0.00000193        0.00000430
      80         -0.824982        1.000000        0.00000627        0.00000202        0.00000065        0.00000208
      81         -0.824847        1.000000        0.01006485        0.00080602        0.00419732        0.00185038
      82         -0.822145        1.000000        0.00002399        0.00000504        0.00000206        0.00005706
      83         -0.821096        1.000000        0.00023921        0.00000298        0.00000561        0.00012350
      84         -0.820676        1.000000        0.00000015        0.00000001        0.00000001        0.00000008
      85         -0.819619        1.000000        0.00007649        0.00000782        0.00001118        0.00009526
      86         -0.819126        1.000000        0.00000008        0.00000003        0.00000004        0.00000005
      87         -0.818832        1.000000        0.00000025        0.00000002        0.00000003        0.00000009
      88         -0.818312        1.000000        0.00002530        0.00000172        0.00000948        0.00000483
      89         -0.818100        1.000000        0.00127019        0.00008032        0.00022169        0.00053498
      90         -0.817049        1.000000        0.00144273        0.00010499        0.00054327        0.00027207
      91         -0.816740        1.000000        0.00032124        0.00003373        0.00003320        0.00012624
      92         -0.815505        1.000000        0.00000152        0.00000004        0.00000004        0.00000073
      93         -0.814243        1.000000        0.00151065        0.00010503        0.00056364        0.00028080
      94         -0.813825        1.000000        0.00000038        0.00000009        0.00000036        0.00000018
      95         -0.813810        1.000000        0.01728057        0.00119494        0.00641779        0.00321214
      96         -0.813556        1.000000        0.00005850        0.00000412        0.00002151        0.00001212
      97         -0.811908        1.000000        0.00000054        0.00000001        0.00000002        0.00000027
      98         -0.811863        1.000000        0.00000098        0.00000037        0.00000032        0.00000041
      99         -0.810282        1.000000        0.00000959        0.00000090        0.00000209        0.00000287
     100         -0.810265        1.000000        0.00053823        0.00006316        0.00011724        0.00015241
     101         -0.808751        1.000000        0.00009927        0.00000048        0.00002243        0.00004462
     102         -0.805813        1.000000        0.00007259        0.00005212        0.00003683        0.00002925
     103         -0.805112        1.000000        0.01038731        0.00010642        0.00263937        0.00425508
     104         -0.803053        1.000000        0.02735262        0.00165474        0.00903193        0.00508837
     105         -0.801879        1.000000        0.00003978        0.00000014        0.00000510        0.00001599
     106         -0.801484        1.000000        0.00138295        0.00001692        0.00036181        0.00052589
     107         -0.800129        1.000000        0.00000769        0.00000008        0.00000010        0.00000310
     108         -0.799646        1.000000        0.00000000        0.00000000        0.00000000        0.00000000
     109         -0.798090        1.000000        0.00005789        0.00000136        0.00000828        0.00002058
     110         -0.797914        1.000000        0.00025794        0.00000169        0.00006768        0.00009386
     111         -0.797215        1.000000        0.02623673        0.00023436        0.00688503        0.00912237
     112         -0.795764        1.000000        0.00000003        0.00000000        0.00000001        0.00000001
     113         -0.794971        1.000000        0.01240439        0.00008338        0.00325976        0.00422214
     114         -0.794355        1.000000        0.00789131        0.00042874        0.00236303        0.00145805
     115         -0.792865        1.000000        0.00000700        0.00000363        0.00000270        0.00000351
     116         -0.790275        1.000000        0.00000004        0.00000018        0.00000031        0.00000007
     117         -0.789304        1.000000        0.00135476        0.00006862        0.00033239        0.00030980
     118         -0.785858        1.000000        0.00000360        0.00000036        0.00000332        0.00000593
     119         -0.782760        1.000000        0.00000686        0.00000006        0.00000317        0.00000197
     120         -0.777688        1.000000        0.01602066        0.00004846        0.00390944        0.00430454
     121         -0.768388        1.000000        0.00917017        0.00000957        0.00219136        0.00226443
     122         -0.760073        1.000000        0.00001695        0.00000039        0.00002846        0.00000463
     123         -0.702595        1.000000        0.00000000        0.00000000        0.00000000        0.00000001
     124         -0.679695        1.000000        0.00000106        0.00000004        0.00000021        0.00000003
     125         -0.628691        1.000000        0.43927472        0.00007985        0.00003805        0.00175099
     126         -0.626815        1.000000        0.44075924        0.00000164        0.00011718        0.00189244
     127         -0.619785        1.000000        0.43637255        0.00000707        0.00012483        0.00186669
     128         -0.616088        1.000000        0.44141655        0.00000757        0.00007063        0.00105519
     129         -0.604808        1.000000        0.43820967        0.00002127        0.00020913        0.00454787
     130         -0.578209        1.000000        0.43074518        0.00098466        0.00320443        0.00156694
     131         -0.569905        1.000000        0.00011528        0.00005637        0.00009526        0.00000758
     132         -0.563380        1.000000        0.42773840        0.00002177        0.00352290        0.00408182
     133         -0.540437        1.000000        0.00032640        0.00298983        0.00050241        0.00009922
     134         -0.537544        1.000000        0.00054359        0.00202571        0.00038660        0.00023177
     135         -0.535460        1.000000        0.00090526        0.00098058        0.00070193        0.00018089
     136         -0.533739        1.000000        0.00035163        0.00506394        0.00029869        0.00048939
     137         -0.531954        1.000000        0.00075776        0.00205199        0.00228689        0.00032195
     138         -0.530429        1.000000        0.00022290        0.00271076        0.00079008        0.00000636
     139         -0.529255        1.000000        0.00037259        0.00108761        0.00133043        0.00017688
     140         -0.527954        1.000000        0.00049177        0.00035207        0.00119113        0.00012245
     141         -0.526260        1.000000        0.00012984        0.00111824        0.00054713        0.00003784
     142         -0.525529        1.000000        0.00032115        0.00137245        0.00081727        0.00028682
     143         -0.523245        1.000000        0.00009605        0.00010981        0.00029546        0.00006197
     144         -0.522509        1.000000        0.00026976        0.00066259        0.00602741        0.00063258
     145         -0.521454        1.000000        0.00020119        0.00249252        0.01010589        0.00066906
     146         -0.520555        1.000000        0.00006759        0.00115469        0.00150325        0.00018200
     147         -0.520411        1.000000        0.00004211        0.00048679        0.00141303        0.00013480
     148         -0.517517        1.000000        0.00033185        0.00059085        0.00132848        0.00003742
     149         -0.517357        1.000000        0.00028331        0.00116317        0.00209751        0.00033034
     150         -0.517247        1.000000        0.00051301        0.00061041        0.00028592        0.00010157
     151         -0.516849        1.000000        0.00026907        0.00037500        0.00230075        0.00036385
     152         -0.515704        1.000000        0.00016735        0.00082444        0.00353494        0.00099824
     153         -0.514020        1.000000        0.00006952        0.00029544        0.00059248        0.00010944
     154         -0.513486        1.000000        0.00045346        0.00072187        0.00284196        0.00026549
     155         -0.511815        1.000000        0.00084446        0.00002983        0.00352873        0.00099631
     156         -0.511161        1.000000        0.00012431        0.00095054        0.00066653        0.00005576
     157         -0.510440        1.000000        0.00010888        0.00022409        0.00011748        0.00020341
     158         -0.509185        1.000000        0.00014572        0.00030739        0.00156489        0.00067053
     159         -0.508880        1.000000        0.00028625        0.00035848        0.00032494        0.00016063
     160         -0.508761        1.000000        0.00043326        0.00017258        0.00059818        0.00008385
     161         -0.505965        1.000000        0.00067602        0.00029592        0.00214005        0.00121630
     162         -0.505471        1.000000        0.00012464        0.00022767        0.00046471        0.00033317
     163         -0.503344        1.000000        0.00005286        0.00003917        0.00028793        0.00010453
     164         -0.502359        1.000000        0.00024183        0.00048894        0.00145232        0.00066878
     165         -0.501881        1.000000        0.00013828        0.00046403        0.00029972        0.00017091
     166         -0.501385        1.000000        0.00002657        0.00046789        0.00034593        0.00003768
     167         -0.500635        1.000000        0.00018627        0.00028349        0.00026206        0.00009312
     168         -0.498611        1.000000        0.00013807        0.03865255        0.01553173        0.00021357
     169         -0.497881        1.000000        0.00018920        0.03846271        0.01374821        0.00018888
     170         -0.493579        1.000000        0.00012924        0.03821371        0.01334533        0.00100158
     171         -0.491025        1.000000        0.00005462        0.01706202        0.03144719        0.00501290
     172         -0.489569        1.000000        0.00002846        0.05634854        0.00298607        0.00012836
     173         -0.489364        1.000000        0.00006805        0.03192879        0.02275254        0.00108823
     174         -0.485712        1.000000        0.00004696        0.01175656        0.04806848        0.00137625
     175         -0.483446        1.000000        0.00005294        0.00336600        0.05953291        0.00149586
     176         -0.481184        1.000000        0.00000061        0.00010009        0.00055328        0.00001717
     177         -0.480985        1.000000        0.00018215        0.00111786        0.05818479        0.00125319
     178         -0.477269        1.000000        0.00000039        0.00001842        0.00002281        0.00000399
     179         -0.467215        1.000000        0.00018677        0.07212346        0.00087247        0.00163402
     180         -0.465089        1.000000        0.00002638        0.00008978        0.00067543        0.00000821
     181         -0.464182        1.000000        0.00000070        0.00005780        0.00002567        0.00000255
     182         -0.462507        1.000000        0.00000099        0.00000036        0.00000284        0.00000456
     183         -0.462054        1.000000        0.00000174        0.00006174        0.00000127        0.00012431
     184         -0.456528        1.000000        0.00000003        0.00000021        0.00000016        0.00000070
     185         -0.453941        1.000000        0.00000001        0.00000004        0.00000018        0.00000011
     186         -0.453537        1.000000        0.00000354        0.00001662        0.00000737        0.00000092
     187         -0.452823        1.000000        0.00000101        0.00001318        0.00000042        0.00000287
     188         -0.451283        1.000000        0.00005324        0.05813727        0.01250047        0.00000325
     189         -0.450812        1.000000        0.00000436        0.00002005        0.00000205        0.00002183
     190         -0.449472        1.000000        0.00003888        0.00069038        0.00004522        0.00016544
     191         -0.449298        1.000000        0.00003087        0.00016019        0.00000180        0.00012460
     192         -0.448501        1.000000        0.00000065        0.00000444        0.00000065        0.00001345
     193         -0.446973        1.000000        0.00000138        0.00003277        0.00001334        0.00006554
     194         -0.445508        1.000000        0.00000076        0.00000977        0.00000147        0.00000970
     195         -0.445180        1.000000        0.00000045        0.00000092        0.00000431        0.00000484
     196         -0.444978        1.000000        0.00067856        0.00133979        0.00309847        0.00284545
     197         -0.444287        1.000000        0.00000430        0.00000307        0.00001019        0.00001344
     198         -0.442981        1.000000        0.00009783        0.00014635        0.00117925        0.00045485
     199         -0.442213        1.000000        0.00001088        0.00003150        0.00005318        0.00008305
     200         -0.441490        1.000000        0.00000072        0.00286374        0.01483018        0.04049301
     201         -0.441248        1.000000        0.00001007        0.00001310        0.00000103        0.00006186
     202         -0.439229        1.000000        0.00028914        0.00221309        0.00001555        0.00124951
     203         -0.437944        1.000000        0.00000241        0.00001218        0.00000549        0.00000194
     204         -0.435496        1.000000        0.00000275        0.00007830        0.00002770        0.00005012
     205         -0.435021        1.000000        0.00000965        0.00003213        0.00015316        0.00006352
     206         -0.433989        1.000000        0.00000018        0.00000025        0.00000256        0.00000698
     207         -0.433000        1.000000        0.00000388        0.00006436        0.00005126        0.00004264
     208         -0.432794        1.000000        0.00000082        0.00001090        0.00000522        0.00001930
     209         -0.432706        1.000000        0.00000041        0.00000309        0.00000923        0.00000767
     210         -0.431698        1.000000        0.00000001        0.00001114        0.00002698        0.00002662
     211         -0.431468        1.000000        0.00000358        0.00001109        0.00002361        0.00001833
     212         -0.430642        1.000000        0.00000470        0.01531557        0.03248317        0.03205723
     213         -0.430493        1.000000        0.00000411        0.00009294        0.00041164        0.00008214
     214         -0.430366        1.000000        0.00000018        0.00001701        0.00003742        0.00004550
     215         -0.429117        1.000000        0.00000218        0.00017129        0.00006386        0.00004175
     216         -0.428776        1.000000        0.00001128        0.00167801        0.00063947        0.00026614
     217         -0.428317        1.000000        0.00000072        0.00000602        0.00001937        0.00003307
     218         -0.428077        1.000000        0.00000010        0.00000080        0.00000112        0.00000011
     219         -0.427788        1.000000        0.00000186        0.00000097        0.00001508        0.00005940
     220         -0.427272        1.000000        0.00000370        0.00002809        0.00003665        0.00003507
     221         -0.425700        1.000000        0.00000095        0.00000356        0.00000549        0.00003634
     222         -0.425540        1.000000        0.00000025        0.00000048        0.00000119        0.00000339
     223         -0.424108        1.000000        0.00000105        0.00000563        0.00000395        0.00000685
     224         -0.424097        1.000000        0.00010183        0.00000057        0.00085404        0.00572571
     225         -0.423919        1.000000        0.00000683        0.00002645        0.00000617        0.00003998
     226         -0.423695        1.000000        0.00000430        0.00006405        0.00013726        0.00015403
     227         -0.423505        1.000000        0.00000017        0.00000518        0.00011520        0.00036163
     228         -0.423100        1.000000        0.00000577        0.00004888        0.00028894        0.00035749
     229         -0.423051        1.000000        0.00000153        0.00000311        0.00000605        0.00004792
     230         -0.422611        1.000000        0.00000860        0.00012588        0.00002781        0.00005640
     231         -0.422245        1.000000        0.00001697        0.00034304        0.00003283        0.00010920
     232         -0.421917        1.000000        0.00002415        0.00048469        0.00003010        0.00012894
     233         -0.421762        1.000000        0.00000005        0.00000079        0.00000017        0.00000217
     234         -0.420969        1.000000        0.00000905        0.00000474        0.00005606        0.00030329
     235         -0.419445        1.000000        0.00000134        0.00003216        0.00000328        0.00000138
     236         -0.419212        1.000000        0.00001570        0.00000168        0.00001056        0.00020032
     237         -0.419081        1.000000        0.00001155        0.00004191        0.00001544        0.00008454
     238         -0.418421        1.000000        0.00000054        0.00000197        0.00000171        0.00001605
     239         -0.417458        1.000000        0.00000145        0.00001492        0.00000207        0.00000916
     240         -0.416771        1.000000        0.00001652        0.00051034        0.00100899        0.00156728
     241         -0.416414        1.000000        0.00000962        0.00000144        0.00002284        0.00023957
     242         -0.416042        1.000000        0.00000008        0.00001084        0.00000560        0.00000839
     243         -0.413749        1.000000        0.00065378        0.00024835        0.00082052        0.01483215
     244         -0.413677        1.000000        0.00060477        0.00064545        0.00079817        0.01358470
     245         -0.413585        1.000000        0.00071898        0.05025375        0.00368503        0.00560364
     246         -0.412338        1.000000        0.00000530        0.00000269        0.00002966        0.00011275
     247         -0.412252        1.000000        0.00000088        0.00000012        0.00000023        0.00001049
     248         -0.412013        1.000000        0.00009384        0.00951820        0.00070350        0.00086540
     249         -0.409644        1.000000        0.00006708        0.00002402        0.00006450        0.00113013
     250         -0.409545        1.000000        0.00122056        0.00000320        0.00139389        0.01734002
     251         -0.409124        1.000000        0.00091425        0.00033602        0.00043561        0.01533131
     252         -0.408735        1.000000        0.00002628        0.00002514        0.00000819        0.00050486
     253         -0.408574        1.000000        0.00210258        0.00004629        0.00129007        0.03158436
     254         -0.408396        1.000000        0.00008223        0.00694552        0.00057279        0.00133490
     255         -0.408087        1.000000        0.00297048        0.00047947        0.00347321        0.05054909
     256         -0.407736        1.000000        0.01382586        0.00031791        0.01097595        0.21086504
     257         -0.407632        1.000000        0.00001923        0.00000080        0.00001772        0.00029198
     258         -0.407523        1.000000        0.00152608        0.00079122        0.00122656        0.02262113
     259         -0.406730        1.000000        0.01187577        0.00059925        0.00253629        0.16947824