# Projected DOS for atomic kind C at iteration step i = 0, E(Fermi) =    -0.116764 a.u.
#     MO Eigenvalue [a.u.]      Occupation                 s                py                pz                px
       1         -0.922699        1.000000        0.00000002        0.00000000        0.00000000        0.00000003
       2         -0.917641        1.000000        0.00000085        0.00000011        0.00000003        0.00000091
       3         -0.906124        1.000000        0.00001238        0.00000326        0.00000054        0.00000695
       4         -0.904902        1.000000        0.00000644        0.00001479        0.00000037        0.00000004
       5         -0.903713        1.000000        0.00000000        0.00000000        0.00000000        0.00000000
       6         -0.899852        1.000000        0.00000018        0.00000005        0.00000028        0.00000018
       7         -0.898242        1.000000        0.00000000        0.00000000        0.00000001        0.00000000
       8         -0.894338        1.000000        0.00000002        0.00000002        0.00000004        0.00000002
       9         -0.893498        1.000000        0.00004551        0.00000269        0.00000082        0.00004167
      10         -0.891588        1.000000        0.00000001        0.00000000        0.00000000        0.00000000
      11         -0.890701        1.000000        0.00000010        0.00000000        0.00000000        0.00000009
      12         -0.889710        1.000000        0.00000142        0.00000003        0.00000000        0.00000134
      13         -0.889305        1.000000        0.00019866        0.00000238        0.00000584        0.00015499
      14         -0.885872        1.000000        0.00000000        0.00000000        0.00000000        0.00000000
      15         -0.883268        1.000000        0.00000000        0.00000000        0.00000000        0.00000000
      16         -0.881401        1.000000        0.00000001        0.00000002        0.00000002        0.00000001
      17         -0.880007        1.000000        0.00103867        0.00000285        0.00002151        0.00079232
      18         -0.879932        1.000000        0.06152987        0.00000717        0.00228102        0.04125732
      19         -0.879195        1.000000        0.00207973        0.00001897        0.00000248        0.00177675
      20         -0.877120        1.000000        0.00000464        0.00000002        0.00000236        0.00000003
      21         -0.876881        1.000000        0.06213791        0.00006744        0.00081243        0.04283191
      22         -0.876777        1.000000        0.00000056        0.00000000        0.00000001        0.00000040
      23         -0.876591        1.000000        0.00000005        0.00000000        0.00000001        0.00000004
      24         -0.875751        1.000000        0.00000264        0.00000000        0.00000037        0.00000178
      25         -0.874593        1.000000        0.00000457        0.00000001        0.00000009        0.00000303
      26         -0.874284        1.000000        0.05750755        0.00000015        0.00555888        0.03716244
      27         -0.872413        1.000000        0.00000096        0.00000006        0.00000009        0.00000080
      28         -0.872372        1.000000        0.00000000        0.00000000        0.00000000        0.00000001
      29         -0.871916        1.000000        0.00000001        0.00000010        0.00000002        0.00000000
      30         -0.871678        1.000000        0.00000011        0.00000001        0.00000003        0.00000004
      31         -0.870522        1.000000        0.06440491        0.00038877        0.00061426        0.04392689
      32         -0.869366        1.000000        0.00015109        0.00000032        0.00000525        0.00009241
      33         -0.868389        1.000000        0.00024858        0.00000425        0.00000006        0.00020802
      34         -0.866452        1.000000        0.00000419        0.00000170        0.00000178        0.00000286
      35         -0.866010        1.000000        0.00000967        0.00000348        0.00000193        0.00000857
      36         -0.863358        1.000000        0.00000000        0.00000000        0.00000000        0.00000000
      37         -0.863143        1.000000        0.00014658        0.00001848        0.00009477        0.00002450
      38         -0.862888        1.000000        0.00000825        0.00000009        0.00000059        0.00000434
      39         -0.860434        1.000000        0.00003319        0.00000239        0.00000752        0.00002447
      40         -0.857996        1.000000        0.00003543        0.00000670        0.00000292        0.00002172
      41         -0.857579        1.000000        0.00009860        0.00000026        0.00000967        0.00004873
      42         -0.857446        1.000000        0.00000047        0.00000035        0.00001648        0.00005783
      43         -0.857346        1.000000        0.00000001        0.00000000        0.00000001        0.00000005
      44         -0.856561        1.000000        0.00000052        0.00000013        0.00001091        0.00001732
      45         -0.854810        1.000000        0.00000128        0.00000001        0.00000001        0.00000090
      46         -0.854427        1.000000        0.00000002        0.00000000        0.00000000        0.00000001
      47         -0.853396        1.000000        0.00000045        0.00000000        0.00000002        0.00000031
      48         -0.852822        1.000000        0.00000001        0.00000016        0.00000019        0.00000010
      49         -0.852666        1.000000        0.00327377        0.00000843        0.00001772        0.00223655
      50         -0.852067        1.000000        0.01154942        0.00002001        0.00004582        0.00785923
      51         -0.850804        1.000000        0.00000028        0.00000274        0.00000071        0.00000869
      52         -0.849750        1.000000        0.00274559        0.00001291        0.00002218        0.00182047
      53         -0.849405        1.000000        0.00000039        0.00000068        0.00000016        0.00000059
      54         -0.849125        1.000000        0.00000000        0.00000001        0.00000000        0.00000003
      55         -0.848775        1.000000        0.00028511        0.00000040        0.00000114        0.00018910
      56         -0.848644        1.000000        0.00000234        0.00000012        0.00000043        0.00000094
      57         -0.847424        1.000000        0.00002104        0.00000132        0.00000443        0.00000821
      58         -0.846387        1.000000        0.02769547        0.00004905        0.00014539        0.01796131
      59         -0.846164        1.000000        0.00335926        0.00030628        0.00187487        0.00055138
      60         -0.845140        1.000000        0.00004060        0.00000007        0.00000025        0.00002601
      61         -0.842213        1.000000        0.00026617        0.00000033        0.00000320        0.00016964
      62         -0.841325        1.000000        0.00000185        0.00000216        0.00000002        0.00003425
      63         -0.840938        1.000000        0.00000000        0.00000001        0.00000002        0.00000001
      64         -0.840316        1.000000        0.00000439        0.00000001        0.00000003        0.00000270
      65         -0.837347        1.000000        0.00000194        0.00000028        0.00000088        0.00000070
      66         -0.836774        1.000000        0.00000060        0.00000104        0.00000052        0.00000190
      67         -0.836618        1.000000        0.00000198        0.00000015        0.00000223        0.00000093
      68         -0.836244        1.000000        0.00165529        0.00017359        0.00074014        0.00030173
      69         -0.836132        1.000000        0.01959838        0.00006266        0.00019518        0.01160813
      70         -0.832962        1.000000        0.00001089        0.00001568        0.00000753        0.00008739
      71         -0.832653        1.000000        0.00000202        0.00000010        0.00000040        0.00000115
      72         -0.832255        1.000000        0.00022162        0.00000095        0.00000266        0.00012688
      73         -0.832159        1.000000        0.00001944        0.00000008        0.00000020        0.00001109
      74         -0.831851        1.000000        0.00000170        0.00000011        0.00000061        0.00000043
      75         -0.831670        1.000000        0.00398123        0.00035557        0.00176778        0.00072623
      76         -0.831196        1.000000        0.00000013        0.00000004        0.00000056        0.00000001
      77         -0.829301        1.000000        0.00001140        0.00000078        0.00000244        0.00000532
      78         -0.828871        1.000000        0.00004571        0.00000450        0.00001830        0.00000849
      79         -0.828664        1.000000        0.00002197        0.00001193        0.00000207        0.00000333
      80         -0.824925        1.000000        0.00000554        0.00000173        0.00000075        0.00000187
      81         -0.824857        1.000000        0.01009639        0.00080870        0.00421090        0.00185671
      82         -0.822222        1.000000        0.00001903        0.00000438        0.00000140        0.00005314
      83         -0.822055        1.000000        0.00000008        0.00000001        0.00000001        0.00000004
      84         -0.821146        1.000000        0.00023700        0.00000294        0.00000550        0.00012242
      85         -0.819650        1.000000        0.00004696        0.00000491        0.00000646        0.00008630
      86         -0.819152        1.000000        0.00000004        0.00000003        0.00000004        0.00000003
      87         -0.818879        1.000000        0.00000011        0.00000001        0.00000001        0.00000004
      88         -0.818088        1.000000        0.00002705        0.00000184        0.00001022        0.00000504
      89         -0.817863        1.000000        0.00104922        0.00006567        0.00017960        0.00044042
      90         -0.816869        1.000000        0.00141099        0.00010238        0.00053039        0.00026619
      91         -0.816614        1.000000        0.00047183        0.00004966        0.00005684        0.00018178
      92         -0.815911        1.000000        0.00000175        0.00000023        0.00000006        0.00000063
      93         -0.814258        1.000000        0.00152886        0.00010632        0.00057055        0.00028425
      94         -0.813940        1.000000        0.00000062        0.00000001        0.00000003        0.00000029
      95         -0.813826        1.000000        0.01728111        0.00119528        0.00641952        0.00321316
      96         -0.813378        1.000000        0.00001982        0.00000137        0.00000709        0.00000478
      97         -0.812915        1.000000        0.00000026        0.00000007        0.00000027        0.00000009
      98         -0.810034        1.000000        0.00044103        0.00005875        0.00009447        0.00011820
      99         -0.808765        1.000000        0.00008107        0.00000037        0.00001751        0.00003660
     100         -0.805820        1.000000        0.00002181        0.00005175        0.00002410        0.00000848
     101         -0.805599        1.000000        0.00000153        0.00000002        0.00000042        0.00000063
     102         -0.804598        1.000000        0.01027103        0.00010875        0.00259340        0.00416685
     103         -0.803423        1.000000        0.00019321        0.00000217        0.00004783        0.00007611
     104         -0.803070        1.000000        0.02663379        0.00161189        0.00879680        0.00495632
     105         -0.802991        1.000000        0.00072273        0.00004341        0.00023854        0.00013391
     106         -0.801788        1.000000        0.00002742        0.00000001        0.00000055        0.00001215
     107         -0.801345        1.000000        0.00141057        0.00001730        0.00036989        0.00053528
     108         -0.800279        1.000000        0.00001206        0.00000013        0.00000071        0.00000495
     109         -0.798102        1.000000        0.00005442        0.00000134        0.00000740        0.00001935
     110         -0.797862        1.000000        0.00020320        0.00000129        0.00005316        0.00007430
     111         -0.797099        1.000000        0.02729816        0.00024452        0.00714724        0.00948381
     112         -0.796561        1.000000        0.00012489        0.00000120        0.00003514        0.00004316
     113         -0.795982        1.000000        0.00000024        0.00000000        0.00000007        0.00000008
     114         -0.794971        1.000000        0.01443402        0.00009854        0.00378990        0.00491034
     115         -0.794373        1.000000        0.00788954        0.00042876        0.00236316        0.00145809
     116         -0.792876        1.000000        0.00000634        0.00000363        0.00000252        0.00000332
     117         -0.790343        1.000000        0.00000004        0.00000018        0.00000031        0.00000007
     118         -0.788945        1.000000        0.00108214        0.00006491        0.00026249        0.00023361
     119         -0.785873        1.000000        0.00000360        0.00000036        0.00000331        0.00000593
     120         -0.776631        1.000000        0.01273050        0.00003605        0.00309630        0.00335343
     121         -0.767026        1.000000        0.00972140        0.00000818        0.00232500        0.00234755
     122         -0.758609        1.000000        0.00001302        0.00000026        0.00002591        0.00000324
     123         -0.723550        1.000000        0.00000593        0.00000004        0.00000136        0.00000065
     124         -0.701849        1.000000        0.00000000        0.00000000        0.00000000        0.00000001
     125         -0.628674        1.000000        0.43927011        0.00007861        0.00003759        0.00175236
     126         -0.626936        1.000000        0.44067182        0.00000179        0.00011944        0.00189486
     127         -0.619795        1.000000        0.43639708        0.00000741        0.00012543        0.00186685
     128         -0.616088        1.000000        0.44141790        0.00000724        0.00007044        0.00105701
     129         -0.604832        1.000000        0.43819709        0.00002168        0.00020967        0.00454663
     130         -0.578200        1.000000        0.43075995        0.00098335        0.00320086        0.00156410
     131         -0.569977        1.000000        0.00011476        0.00006149        0.00009833        0.00000807
     132         -0.563397        1.000000        0.42769643        0.00002129        0.00351161        0.00406198
     133         -0.542976        1.000000        0.00036008        0.00264143        0.00050634        0.00009443
     134         -0.540041        1.000000        0.00054313        0.00243070        0.00014673        0.00022922
     135         -0.538854        1.000000        0.00013799        0.00036267        0.00012667        0.00004489
     136         -0.535177        1.000000        0.00087540        0.00095440        0.00050383        0.00015672
     137         -0.532326        1.000000        0.00038618        0.00450030        0.00035441        0.00039863
     138         -0.531692        1.000000        0.00013889        0.00279729        0.00065504        0.00010012
     139         -0.531348        1.000000        0.00062800        0.00159990        0.00152889        0.00010015
     140         -0.529638        1.000000        0.00038331        0.00038787        0.00337720        0.00035273
     141         -0.527535        1.000000        0.00076392        0.00128143        0.00041467        0.00013029
     142         -0.525232        1.000000        0.00026814        0.00180258        0.00062194        0.00026969
     143         -0.522620        1.000000        0.00022790        0.00018898        0.00090795        0.00029858
     144         -0.522063        1.000000        0.00013337        0.00088548        0.00377701        0.00032745
     145         -0.521571        1.000000        0.00008224        0.00007019        0.00115674        0.00007196
     146         -0.521407        1.000000        0.00014672        0.00250029        0.01079809        0.00073224
     147         -0.519624        1.000000        0.00004520        0.00135688        0.00212896        0.00023162
     148         -0.518940        1.000000        0.00071897        0.00017643        0.00074586        0.00017830
     149         -0.517590        1.000000        0.00044819        0.00068816        0.00439741        0.00045103
     150         -0.517138        1.000000        0.00006532        0.00017899        0.00151589        0.00022655
     151         -0.516841        1.000000        0.00020189        0.00102807        0.00286419        0.00055437
     152         -0.514868        1.000000        0.00011429        0.00078119        0.00185321        0.00058536
     153         -0.513645        1.000000        0.00007109        0.00027771        0.00085479        0.00012824
     154         -0.513369        1.000000        0.00015201        0.00082107        0.00117741        0.00011118
     155         -0.512315        1.000000        0.00046700        0.00121766        0.00296128        0.00036063
     156         -0.512010        1.000000        0.00017922        0.00027469        0.00127298        0.00017515
     157         -0.510582        1.000000        0.00088623        0.00004641        0.00290444        0.00105090
     158         -0.508406        1.000000        0.00013449        0.00027839        0.00068653        0.00018440
     159         -0.507899        1.000000        0.00017718        0.00035428        0.00157930        0.00061326
     160         -0.507096        1.000000        0.00038255        0.00046267        0.00020610        0.00005421
     161         -0.505756        1.000000        0.00003700        0.00016430        0.00022768        0.00035393
     162         -0.504544        1.000000        0.00074641        0.00044060        0.00278800        0.00129633
     163         -0.503456        1.000000        0.00004468        0.00002140        0.00026910        0.00014361
     164         -0.501924        1.000000        0.00005983        0.00038365        0.00024065        0.00008110
     165         -0.501458        1.000000        0.00003362        0.00068117        0.00029348        0.00010294
     166         -0.501052        1.000000        0.00022300        0.00049199        0.00173860        0.00062661
     167         -0.500437        1.000000        0.00029474        0.00060671        0.00074929        0.00022346
     168         -0.498709        1.000000        0.00017310        0.04122325        0.01401419        0.00020184
     169         -0.498006        1.000000        0.00017916        0.03867088        0.01259357        0.00017015
     170         -0.493542        1.000000        0.00013150        0.03801561        0.01334805        0.00090964
     171         -0.490900        1.000000        0.00005253        0.01664329        0.03152489        0.00479533
     172         -0.489613        1.000000        0.00002338        0.05584127        0.00353936        0.00014854
     173         -0.489299        1.000000        0.00007054        0.03177599        0.02266162        0.00106247
     174         -0.485619        1.000000        0.00006055        0.01048085        0.04813188        0.00139039
     175         -0.483291        1.000000        0.00005165        0.00378057        0.05861979        0.00148577
     176         -0.481203        1.000000        0.00000049        0.00009863        0.00048982        0.00001566
     177         -0.481028        1.000000        0.00018226        0.00109997        0.05819519        0.00124647
     178         -0.477279        1.000000        0.00000038        0.00001860        0.00002217        0.00000393
     179         -0.467260        1.000000        0.00018514        0.07207919        0.00084183        0.00161649
     180         -0.465086        1.000000        0.00002674        0.00009095        0.00068105        0.00000826
     181         -0.464208        1.000000        0.00000065        0.00005575        0.00002709        0.00000244
     182         -0.462535        1.000000        0.00000100        0.00000028        0.00000281        0.00000438
     183         -0.462082        1.000000        0.00000176        0.00006178        0.00000129        0.00012429
     184         -0.456549        1.000000        0.00000003        0.00000021        0.00000016        0.00000071
     185         -0.453958        1.000000        0.00000001        0.00000005        0.00000019        0.00000012
     186         -0.453559        1.000000        0.00000356        0.00001647        0.00000744        0.00000091
     187         -0.452925        1.000000        0.00000080        0.00001128        0.00000046        0.00000231
     188         -0.451295        1.000000        0.00005316        0.05811370        0.01250742        0.00000353
     189         -0.450827        1.000000        0.00000439        0.00002012        0.00000205        0.00002185
     190         -0.449471        1.000000        0.00003930        0.00067301        0.00004259        0.00016855
     191         -0.449319        1.000000        0.00003135        0.00016924        0.00000228        0.00012391
     192         -0.448502        1.000000        0.00000067        0.00000457        0.00000068        0.00001306
     193         -0.447004        1.000000        0.00000136        0.00003286        0.00001335        0.00006565
     194         -0.445535        1.000000        0.00000077        0.00000980        0.00000149        0.00000974
     195         -0.445249        1.000000        0.00000044        0.00000086        0.00000428        0.00000471
     196         -0.445015        1.000000        0.00068407        0.00131279        0.00313813        0.00287180
     197         -0.444310        1.000000        0.00000437        0.00000326        0.00001013        0.00001326
     198         -0.443027        1.000000        0.00010175        0.00016863        0.00118942        0.00047333
     199         -0.442179        1.000000        0.00000976        0.00002984        0.00004472        0.00007659
     200         -0.441508        1.000000        0.00000073        0.00287193        0.01480415        0.04046319
     201         -0.441420        1.000000        0.00000810        0.00001063        0.00000191        0.00005222
     202         -0.439313        1.000000        0.00028501        0.00224464        0.00001429        0.00123124
     203         -0.437975        1.000000        0.00000241        0.00001214        0.00000546        0.00000198
     204         -0.435761        1.000000        0.00000264        0.00007777        0.00002878        0.00004874
     205         -0.435046        1.000000        0.00000971        0.00003264        0.00015358        0.00006403
     206         -0.434007        1.000000        0.00000018        0.00000027        0.00000255        0.00000692
     207         -0.432982        1.000000        0.00000413        0.00007087        0.00006061        0.00005143
     208         -0.432814        1.000000        0.00000086        0.00001120        0.00000572        0.00001916
     209         -0.432720        1.000000        0.00000045        0.00000347        0.00000940        0.00000867
     210         -0.431727        1.000000        0.00000001        0.00001324        0.00003150        0.00003112
     211         -0.431595        1.000000        0.00000328        0.00001296        0.00001403        0.00001756
     212         -0.430742        1.000000        0.00000464        0.01540611        0.03237805        0.03199463
     213         -0.430564        1.000000        0.00000357        0.00009120        0.00041943        0.00006850
     214         -0.430404        1.000000        0.00000017        0.00001216        0.00002654        0.00003403
     215         -0.429155        1.000000        0.00000209        0.00018418        0.00006644        0.00004181
     216         -0.428831        1.000000        0.00001050        0.00165757        0.00061896        0.00025434
     217         -0.428331        1.000000        0.00000072        0.00000606        0.00001937        0.00003299
     218         -0.428157        1.000000        0.00000010        0.00000081        0.00000112        0.00000010
     219         -0.427798        1.000000        0.00000189        0.00000095        0.00001508        0.00005960
     220         -0.427419        1.000000        0.00000350        0.00002529        0.00003746        0.00003322
     221         -0.425718        1.000000        0.00000113        0.00000410        0.00000554        0.00003928
     222         -0.425552        1.000000        0.00000026        0.00000041        0.00000110        0.00000360
     223         -0.424168        1.000000        0.00000076        0.00000434        0.00000269        0.00000411
     224         -0.424136        1.000000        0.00010255        0.00000064        0.00085539        0.00573745
     225         -0.423925        1.000000        0.00000684        0.00002066        0.00000685        0.00004052
     226         -0.423712        1.000000        0.00000400        0.00006228        0.00012794        0.00014324
     227         -0.423536        1.000000        0.00000016        0.00000517        0.00011506        0.00036104
     228         -0.423112        1.000000        0.00000594        0.00005019        0.00029714        0.00036642
     229         -0.423069        1.000000        0.00000160        0.00000332        0.00000648        0.00004901
     230         -0.422543        1.000000        0.00000543        0.00004860        0.00001702        0.00003742
     231         -0.422259        1.000000        0.00000943        0.00016574        0.00002098        0.00007545
     232         -0.421830        1.000000        0.00003263        0.00071747        0.00004849        0.00016917
     233         -0.421705        1.000000        0.00000005        0.00000120        0.00000021        0.00000234
     234         -0.420988        1.000000        0.00000890        0.00000486        0.00005546        0.00029932
     235         -0.419480        1.000000        0.00000133        0.00003234        0.00000333        0.00000149
     236         -0.419282        1.000000        0.00001393        0.00000072        0.00001129        0.00018266
     237         -0.419058        1.000000        0.00001191        0.00004317        0.00001493        0.00008407
     238         -0.418417        1.000000        0.00000054        0.00000204        0.00000164        0.00001623
     239         -0.417533        1.000000        0.00000141        0.00001359        0.00000192        0.00000848
     240         -0.416798        1.000000        0.00001662        0.00051058        0.00100833        0.00156770
     241         -0.416443        1.000000        0.00000950        0.00000150        0.00002283        0.00023546
     242         -0.416067        1.000000        0.00000007        0.00001028        0.00000544        0.00000823
     243         -0.413800        1.000000        0.00096188        0.00015576        0.00119764        0.02187720
     244         -0.413723        1.000000        0.00030871        0.00008263        0.00039634        0.00701468
     245         -0.413484        1.000000        0.00073167        0.05163410        0.00386003        0.00570925
     246         -0.412383        1.000000        0.00000653        0.00000245        0.00003229        0.00012964
     247         -0.412359        1.000000        0.00000065        0.00000009        0.00000028        0.00000794
     248         -0.411962        1.000000        0.00009767        0.00980581        0.00073978        0.00091557
     249         -0.409583        1.000000        0.00113942        0.00000373        0.00131845        0.01617628
     250         -0.409526        1.000000        0.00019779        0.00005469        0.00013173        0.00329299
     251         -0.409195        1.000000        0.00083857        0.00019656        0.00038521        0.01411128
     252         -0.408624        1.000000        0.00170600        0.00004589        0.00103060        0.02552342
     253         -0.408515        1.000000        0.00009545        0.00003619        0.00005498        0.00152603
     254         -0.408265        1.000000        0.00009412        0.00624517        0.00054590        0.00152047
     255         -0.408098        1.000000        0.00258786        0.00047712        0.00320070        0.04477247
     256         -0.407731        1.000000        0.01450586        0.00035318        0.01143925        0.22113798
     257         -0.407659        1.000000        0.00008100        0.00000173        0.00006828        0.00123144
     258         -0.407521        1.000000        0.00156348        0.00092505        0.00125262        0.02317066
     259         -0.406818        1.000000        0.01167219        0.00063238        0.00251798        0.16646384