# Projected DOS for atomic kind H at iteration step i = 0, E(Fermi) =    -0.116764 a.u.
#     MO Eigenvalue [a.u.]      Occupation                 s
       1         -0.922699        1.000000        0.25253634
       2         -0.917641        1.000000        0.26706619
       3         -0.906124        1.000000        0.25620260
       4         -0.904902        1.000000        0.25037871
       5         -0.903713        1.000000        0.24819488
       6         -0.899852        1.000000        0.25540566
       7         -0.898242        1.000000        0.25082751
       8         -0.894338        1.000000        0.25539825
       9         -0.893498        1.000000        0.25048469
      10         -0.891588        1.000000        0.27535366
      11         -0.890701        1.000000        0.26235041
      12         -0.889710        1.000000        0.25205835
      13         -0.889305        1.000000        0.23885662
      14         -0.885872        1.000000        0.24310282
      15         -0.883268        1.000000        0.25752577
      16         -0.881401        1.000000        0.26423326
      17         -0.880007        1.000000        0.25556142
      18         -0.879932        1.000000        0.27982408
      19         -0.879195        1.000000        0.26815536
      20         -0.877120        1.000000        0.25806572
      21         -0.876881        1.000000        0.28065246
      22         -0.876777        1.000000        0.24994950
      23         -0.876591        1.000000        0.25170179
      24         -0.875751        1.000000        0.24790058
      25         -0.874593        1.000000        0.26641618
      26         -0.874284        1.000000        0.28349863
      27         -0.872413        1.000000        0.24238982
      28         -0.872372        1.000000        0.25287110
      29         -0.871916        1.000000        0.24972976
      30         -0.871678        1.000000        0.24760394
      31         -0.870522        1.000000        0.27982495
      32         -0.869366        1.000000        0.27863538
      33         -0.868389        1.000000        0.26893820
      34         -0.866452        1.000000        0.25873938
      35         -0.866010        1.000000        0.25560097
      36         -0.863358        1.000000        0.23822233
      37         -0.863143        1.000000        0.25731745
      38         -0.862888        1.000000        0.25253336
      39         -0.860434        1.000000        0.25026983
      40         -0.857996        1.000000        0.24274943
      41         -0.857579        1.000000        0.26863124
      42         -0.857446        1.000000        0.24909348
      43         -0.857346        1.000000        0.22845977
      44         -0.856561        1.000000        0.25293042
      45         -0.854810        1.000000        0.25606044
      46         -0.854427        1.000000        0.25465005
      47         -0.853396        1.000000        0.23022616
      48         -0.852822        1.000000        0.27201029
      49         -0.852666        1.000000        0.26290328
      50         -0.852067        1.000000        0.24721260
      51         -0.850804        1.000000        0.26047620
      52         -0.849750        1.000000        0.26021643
      53         -0.849405        1.000000        0.27436193
      54         -0.849125        1.000000        0.27918440
      55         -0.848775        1.000000        0.26183689
      56         -0.848644        1.000000        0.25518830
      57         -0.847424        1.000000        0.24897815
      58         -0.846387        1.000000        0.24665214
      59         -0.846164        1.000000        0.27187653
      60         -0.845140        1.000000        0.25811442
      61         -0.842213        1.000000        0.24542675
      62         -0.841325        1.000000        0.26132091
      63         -0.840938        1.000000        0.21739882
      64         -0.840316        1.000000        0.25274576
      65         -0.837347        1.000000        0.25828450
      66         -0.836774        1.000000        0.23472672
      67         -0.836618        1.000000        0.23424348
      68         -0.836244        1.000000        0.26161974
      69         -0.836132        1.000000        0.21668098
      70         -0.832962        1.000000        0.25008668
      71         -0.832653        1.000000        0.24533973
      72         -0.832255        1.000000        0.25670881
      73         -0.832159        1.000000        0.23847357
      74         -0.831851        1.000000        0.24286213
      75         -0.831670        1.000000        0.25649912
      76         -0.831196        1.000000        0.22134764
      77         -0.829301        1.000000        0.22962365
      78         -0.828871        1.000000        0.25685929
      79         -0.828664        1.000000        0.26451007
      80         -0.824925        1.000000        0.23948346
      81         -0.824857        1.000000        0.24879204
      82         -0.822222        1.000000        0.23462934
      83         -0.822055        1.000000        0.23304924
      84         -0.821146        1.000000        0.20012827
      85         -0.819650        1.000000        0.22778596
      86         -0.819152        1.000000        0.18620700
      87         -0.818879        1.000000        0.26083416
      88         -0.818088        1.000000        0.25562984
      89         -0.817863        1.000000        0.24020575
      90         -0.816869        1.000000        0.24051765
      91         -0.816614        1.000000        0.24123021
      92         -0.815911        1.000000        0.19546431
      93         -0.814258        1.000000        0.24752062
      94         -0.813940        1.000000        0.25245201
      95         -0.813826        1.000000        0.23879529
      96         -0.813378        1.000000        0.21714567
      97         -0.812915        1.000000        0.19851800
      98         -0.810034        1.000000        0.24851022
      99         -0.808765        1.000000        0.20893690
     100         -0.805820        1.000000        0.21575577
     101         -0.805599        1.000000        0.23785605
     102         -0.804598        1.000000        0.24429784
     103         -0.803423        1.000000        0.19882918
     104         -0.803070        1.000000        0.21753421
     105         -0.802991        1.000000        0.21588245
     106         -0.801788        1.000000        0.19396654
     107         -0.801345        1.000000        0.23637048
     108         -0.800279        1.000000        0.19041263
     109         -0.798102        1.000000        0.19395729
     110         -0.797862        1.000000        0.19040382
     111         -0.797099        1.000000        0.24751834
     112         -0.796561        1.000000        0.15970785
     113         -0.795982        1.000000        0.24275494
     114         -0.794971        1.000000        0.23126569
     115         -0.794373        1.000000        0.19119920
     116         -0.792876        1.000000        0.19719087
     117         -0.790343        1.000000        0.10111989
     118         -0.788945        1.000000        0.20916517
     119         -0.785873        1.000000        0.18358301
     120         -0.776631        1.000000        0.21260561
     121         -0.767026        1.000000        0.19060206
     122         -0.758609        1.000000        0.18677853
     123         -0.723550        1.000000        0.07309735
     124         -0.701849        1.000000        0.08280849
     125         -0.628674        1.000000        0.34980019
     126         -0.626936        1.000000        0.34906494
     127         -0.619795        1.000000        0.34949503
     128         -0.616088        1.000000        0.34427648
     129         -0.604832        1.000000        0.36114292
     130         -0.578200        1.000000        0.36443414
     131         -0.569977        1.000000        0.01112162
     132         -0.563397        1.000000        0.37088213
     133         -0.542976        1.000000        0.02423623
     134         -0.540041        1.000000        0.02573061
     135         -0.538854        1.000000        0.01251660
     136         -0.535177        1.000000        0.00866739
     137         -0.532326        1.000000        0.03293018
     138         -0.531692        1.000000        0.02834254
     139         -0.531348        1.000000        0.02729075
     140         -0.529638        1.000000        0.02982007
     141         -0.527535        1.000000        0.01607352
     142         -0.525232        1.000000        0.01848399
     143         -0.522620        1.000000        0.01711810
     144         -0.522063        1.000000        0.03747029
     145         -0.521571        1.000000        0.01497419
     146         -0.521407        1.000000        0.09751975
     147         -0.519624        1.000000        0.02188942
     148         -0.518940        1.000000        0.01082023
     149         -0.517590        1.000000        0.04437869
     150         -0.517138        1.000000        0.02459529
     151         -0.516841        1.000000        0.04302239
     152         -0.514868        1.000000        0.03410663
     153         -0.513645        1.000000        0.02139093
     154         -0.513369        1.000000        0.02372624
     155         -0.512315        1.000000        0.03746788
     156         -0.512010        1.000000        0.01976479
     157         -0.510582        1.000000        0.03019536
     158         -0.508406        1.000000        0.01392319
     159         -0.507899        1.000000        0.01315433
     160         -0.507096        1.000000        0.00484274
     161         -0.505756        1.000000        0.00945830
     162         -0.504544        1.000000        0.02749229
     163         -0.503456        1.000000        0.01297145
     164         -0.501924        1.000000        0.03020599
     165         -0.501458        1.000000        0.01019379
     166         -0.501052        1.000000        0.02484743
     167         -0.500437        1.000000        0.01957852
     168         -0.498709        1.000000        0.26988108
     169         -0.498006        1.000000        0.24745041
     170         -0.493542        1.000000        0.27502895
     171         -0.490900        1.000000        0.25996220
     172         -0.489613        1.000000        0.27162863
     173         -0.489299        1.000000        0.22019373
     174         -0.485619        1.000000        0.24119868
     175         -0.483291        1.000000        0.25106463
     176         -0.481203        1.000000        0.33647377
     177         -0.481028        1.000000        0.33404104
     178         -0.477279        1.000000        0.35635983
     179         -0.467260        1.000000        0.32311459
     180         -0.465086        1.000000        0.34774791
     181         -0.464208        1.000000        0.34480784
     182         -0.462535        1.000000        0.33499008
     183         -0.462082        1.000000        0.34388389
     184         -0.456549        1.000000        0.33361556
     185         -0.453958        1.000000        0.35703981
     186         -0.453559        1.000000        0.34512990
     187         -0.452925        1.000000        0.34652607
     188         -0.451295        1.000000        0.34159737
     189         -0.450827        1.000000        0.34325729
     190         -0.449471        1.000000        0.35011188
     191         -0.449319        1.000000        0.34873581
     192         -0.448502        1.000000        0.33272338
     193         -0.447004        1.000000        0.34118040
     194         -0.445535        1.000000        0.34501206
     195         -0.445249        1.000000        0.34986532
     196         -0.445015        1.000000        0.34872796
     197         -0.444310        1.000000        0.35256213
     198         -0.443027        1.000000        0.34505109
     199         -0.442179        1.000000        0.34668817
     200         -0.441508        1.000000        0.32961333
     201         -0.441420        1.000000        0.34571206
     202         -0.439313        1.000000        0.34563466
     203         -0.437975        1.000000        0.34168926
     204         -0.435761        1.000000        0.34559790
     205         -0.435046        1.000000        0.34159526
     206         -0.434007        1.000000        0.34335538
     207         -0.432982        1.000000        0.33851017
     208         -0.432814        1.000000        0.34557683
     209         -0.432720        1.000000        0.33939810
     210         -0.431727        1.000000        0.33519081
     211         -0.431595        1.000000        0.35635980
     212         -0.430742        1.000000        0.33919116
     213         -0.430564        1.000000        0.33867514
     214         -0.430404        1.000000        0.33409410
     215         -0.429155        1.000000        0.34152114
     216         -0.428831        1.000000        0.34276712
     217         -0.428331        1.000000        0.35182108
     218         -0.428157        1.000000        0.36208008
     219         -0.427798        1.000000        0.34194554
     220         -0.427419        1.000000        0.33812303
     221         -0.425718        1.000000        0.34749698
     222         -0.425552        1.000000        0.34298925
     223         -0.424168        1.000000        0.35645255
     224         -0.424136        1.000000        0.34150368
     225         -0.423925        1.000000        0.34969559
     226         -0.423712        1.000000        0.34462882
     227         -0.423536        1.000000        0.34663742
     228         -0.423112        1.000000        0.35417127
     229         -0.423069        1.000000        0.35292510
     230         -0.422543        1.000000        0.34231873
     231         -0.422259        1.000000        0.34777939
     232         -0.421830        1.000000        0.33940646
     233         -0.421705        1.000000        0.34044765
     234         -0.420988        1.000000        0.33316971
     235         -0.419480        1.000000        0.34523520
     236         -0.419282        1.000000        0.34289376
     237         -0.419058        1.000000        0.34462398
     238         -0.418417        1.000000        0.34340648
     239         -0.417533        1.000000        0.35798687
     240         -0.416798        1.000000        0.35670984
     241         -0.416443        1.000000        0.33518126
     242         -0.416067        1.000000        0.34467180
     243         -0.413800        1.000000        0.34026529
     244         -0.413723        1.000000        0.35596768
     245         -0.413484        1.000000        0.32636791
     246         -0.412383        1.000000        0.31969935
     247         -0.412359        1.000000        0.35215388
     248         -0.411962        1.000000        0.34067020
     249         -0.409583        1.000000        0.33960280
     250         -0.409526        1.000000        0.32757225
     251         -0.409195        1.000000        0.33488880
     252         -0.408624        1.000000        0.32410531
     253         -0.408515        1.000000        0.33182810
     254         -0.408265        1.000000        0.33491752
     255         -0.408098        1.000000        0.30815334
     256         -0.407731        1.000000        0.22714850
     257         -0.407659        1.000000        0.33684857
     258         -0.407521        1.000000        0.30971664
     259         -0.406818        1.000000        0.24726446
     260         -0.406105        1.000000        0.34588067
     261         -0.405888        1.000000        0.34120932
     262         -0.405267        1.000000        0.29143847
     263         -0.404948        1.000000        0.05580553
     264         -0.404152        1.000000        0.33960954
     265         -0.403972        1.000000        0.33900500
     266         -0.403698        1.000000        0.32415064
     267         -0.403401        1.000000        0.34244780
     268         -0.402892        1.000000        0.29453456
     269         -0.402619        1.000000        0.20118092
     270         -0.401681        1.000000        0.21862237
     271         -0.401266        1.000000        0.09273352
     272         -0.400953        1.000000        0.33560408
     273         -0.400288        1.000000        0.27583796
     274         -0.399615        1.000000        0.14539667
     275         -0.399453        1.000000        0.26496451
     276         -0.398975        1.000000        0.32988796
     277         -0.398286        1.000000        0.18939317
     278         -0.397894        1.000000        0.30716131
     279         -0.397789        1.000000        0.29861678
     280         -0.397282        1.000000        0.14041421
     281         -0.396397        1.000000        0.23229136
     282         -0.396200        1.000000        0.25927425
     283         -0.395932        1.000000        0.33565467
     284         -0.395098        1.000000        0.29648845
     285         -0.394434        1.000000        0.36451427
     286         -0.393824        1.000000        0.32051924
     287         -0.393461        1.000000        0.30400868
     288         -0.393095        1.000000        0.11622909
     289         -0.392349        1.000000        0.32654066
     290         -0.390573        1.000000        0.34718096
     291         -0.390444        1.000000        0.32048742
     292         -0.389962        1.000000        0.32668143
     293         -0.389932        1.000000        0.22233986
     294         -0.389025        1.000000        0.04735432
     295         -0.387584        1.000000        0.04012434
     296         -0.387272        1.000000        0.36044658
     297         -0.383610        1.000000        0.34300843
     298         -0.383211        1.000000        0.35478899
     299         -0.383010        1.000000        0.34461216
     300         -0.382704        1.000000        0.24095550
     301         -0.382653        1.000000        0.25197041
     302         -0.382370        1.000000        0.34405674
     303         -0.380127        1.000000        0.35707763
     304         -0.379924        1.000000        0.36304449
     305         -0.379873        1.000000        0.35064932
     306         -0.376428        1.000000        0.36575374
     307         -0.375168        1.000000        0.33665504
     308         -0.372376        1.000000        0.36239801
     309         -0.371015        1.000000        0.35075434
     310         -0.370215        1.000000        0.35238203
     311         -0.365530        1.000000        0.34938099
     312         -0.363530        1.000000        0.28647813
     313         -0.361951        1.000000        0.33954119
     314         -0.357173        1.000000        0.18668751
     315         -0.348489        1.000000        0.42408397
     316         -0.344911        1.000000        0.25270744
     317         -0.344519        1.000000        0.42585278
     318         -0.343870        1.000000        0.40357969
     319         -0.342096        1.000000        0.42049486
     320         -0.341715        1.000000        0.15941975
     321         -0.337783        1.000000        0.42340818
     322         -0.337048        1.000000        0.17507500
     323         -0.336305        1.000000        0.42155991
     324         -0.333687        1.000000        0.42125094
     325         -0.331899        1.000000        0.27294891
     326         -0.331862        1.000000        0.31915182
     327         -0.328545        1.000000        0.15777111
     328         -0.328486        1.000000        0.40150742
     329         -0.325433        1.000000        0.39054472
     330         -0.322421        1.000000        0.18034905
     331         -0.320635        1.000000        0.12421982
     332         -0.318031        1.000000        0.11637013
     333         -0.317725        1.000000        0.30500944
     334         -0.317138        1.000000        0.17450036
     335         -0.315318        1.000000        0.12187986
     336         -0.313786        1.000000        0.14938621
     337         -0.313143        1.000000        0.13846031
     338         -0.308406        1.000000        0.13693165
     339         -0.306862        1.000000        0.14523720
     340         -0.306802        1.000000        0.14785635
     341         -0.305055        1.000000        0.15374554
     342         -0.302967        1.000000        0.13035277
     343         -0.302421        1.000000        0.14632691
     344         -0.299236        1.000000        0.29389748
     345         -0.298813        1.000000        0.14540777
     346         -0.298482        1.000000        0.14696396
     347         -0.298385        1.000000        0.19734662
     348         -0.297305        1.000000        0.31257574
     349         -0.294693        1.000000        0.12812923
     350         -0.292456        1.000000        0.17084207
     351         -0.292152        1.000000        0.10943944
     352         -0.289714        1.000000        0.13627043
     353         -0.288375        1.000000        0.10374250
     354         -0.288088        1.000000        0.13533339
     355         -0.287716        1.000000        0.21648449
     356         -0.287572        1.000000        0.41851424
     357         -0.285799        1.000000        0.10988976
     358         -0.284215        1.000000        0.20193834
     359         -0.283487        1.000000        0.10649220
     360         -0.282622        1.000000        0.10851711
     361         -0.282231        1.000000        0.12204673
     362         -0.280710        1.000000        0.13488637
     363         -0.278595        1.000000        0.10804783
     364         -0.277985        1.000000        0.12275209
     365         -0.276756        1.000000        0.13113796
     366         -0.275109        1.000000        0.09292377
     367         -0.274385        1.000000        0.07820944
     368         -0.270731        1.000000        0.10337661
     369         -0.270673        1.000000        0.10641152
     370         -0.269109        1.000000        0.06804450
     371         -0.267040        1.000000        0.10967351
     372         -0.266890        1.000000        0.09190708
     373         -0.265343        1.000000        0.12560541
     374         -0.263507        1.000000        0.09464286
     375         -0.262735        1.000000        0.12584221
     376         -0.262115        1.000000        0.09510297
     377         -0.261426        1.000000        0.09070131
     378         -0.260788        1.000000        0.09535505
     379         -0.258968        1.000000        0.09787151
     380         -0.256051        1.000000        0.09228910
     381         -0.255695        1.000000        0.10620244
     382         -0.254001        1.000000        0.09874792
     383         -0.251183        1.000000        0.09389721
     384         -0.250659        1.000000        0.10227981
     385         -0.249556        1.000000        0.06478366
     386         -0.249263        1.000000        0.07554662
     387         -0.248285        1.000000        0.07406180
     388         -0.247531        1.000000        0.09866481
     389         -0.246842        1.000000        0.05538820
     390         -0.244804        1.000000        0.09790709
     391         -0.244007        1.000000        0.04327433
     392         -0.243855        1.000000        0.08072144
     393         -0.243248        1.000000        0.09065470
     394         -0.242665        1.000000        0.07275239
     395         -0.239586        1.000000        0.07338462
     396         -0.239427        1.000000        0.06417258
     397         -0.236665        1.000000        0.07953889
     398         -0.235852        1.000000        0.04355654
     399         -0.234655        1.000000        0.06427111
     400         -0.234538        1.000000        0.08177780
     401         -0.234019        1.000000        0.00883795
     402         -0.232495        1.000000        0.03518653
     403         -0.231718        1.000000        0.05639114
     404         -0.230972        1.000000        0.04718264
     405         -0.230668        1.000000        0.06733499
     406         -0.229913        1.000000        0.07660196
     407         -0.229478        1.000000        0.06725715
     408         -0.229024        1.000000        0.05115415
     409         -0.228609        1.000000        0.06873943
     410         -0.227932        1.000000        0.02685879
     411         -0.224729        1.000000        0.01831888
     412         -0.224392        1.000000        0.04880747
     413         -0.224069        1.000000        0.05185635
     414         -0.223254        1.000000        0.04910883
     415         -0.222722        1.000000        0.02196582
     416         -0.222092        1.000000        0.04561441
     417         -0.221523        1.000000        0.02466730
     418         -0.220561        1.000000        0.04209190
     419         -0.220246        1.000000        0.02383289
     420         -0.218304        1.000000        0.03543181
     421         -0.217628        1.000000        0.03222200
     422         -0.216705        1.000000        0.01519441
     423         -0.216258        1.000000        0.04561158
     424         -0.216170        1.000000        0.02385267
     425         -0.215463        1.000000        0.01558009
     426         -0.215127        1.000000        0.00415600
     427         -0.214921        1.000000        0.02368515
     428         -0.214622        1.000000        0.02967822
     429         -0.214513        1.000000        0.03481148
     430         -0.214080        1.000000        0.02252868
     431         -0.213415        1.000000        0.02742412
     432         -0.212608        1.000000        0.04192465
     433         -0.211953        1.000000        0.01346619
     434         -0.211071        1.000000        0.01401330
     435         -0.209944        1.000000        0.02520733
     436         -0.209302        1.000000        0.04125477
     437         -0.209088        1.000000        0.05837588
     438         -0.208293        1.000000        0.01938359
     439         -0.208252        1.000000        0.02736498
     440         -0.207876        1.000000        0.04537760
     441         -0.206672        1.000000        0.02282760
     442         -0.206356        1.000000        0.02223942
     443         -0.205861        1.000000        0.01963976
     444         -0.205571        1.000000        0.01077910
     445         -0.205065        1.000000        0.01325126
     446         -0.204783        1.000000        0.01575430
     447         -0.203990        1.000000        0.00889018
     448         -0.203226        1.000000        0.02006650
     449         -0.202572        1.000000        0.01272350
     450         -0.202241        1.000000        0.01119455
     451         -0.202097        1.000000        0.01518774
     452         -0.201846        1.000000        0.01898773
     453         -0.200681        1.000000        0.02819476
     454         -0.200561        1.000000        0.02499934
     455         -0.200088        1.000000        0.01247783
     456         -0.199826        1.000000        0.01047369
     457         -0.199641        1.000000        0.01183883
     458         -0.199431        1.000000        0.00373690
     459         -0.198987        1.000000        0.01161441
     460         -0.198448        1.000000        0.01567277
     461         -0.198069        1.000000        0.01472273
     462         -0.197181        1.000000        0.02551388
     463         -0.196815        1.000000        0.01574223
     464         -0.196443        1.000000        0.01664647
     465         -0.196343        1.000000        0.01620968
     466         -0.195956        1.000000        0.01208448
     467         -0.195075        1.000000        0.01204811
     468         -0.194901        1.000000        0.01082820
     469         -0.194235        1.000000        0.01191077
     470         -0.194118        1.000000        0.01130312
     471         -0.193825        1.000000        0.01045957
     472         -0.193387        1.000000        0.00906210
     473         -0.192757        1.000000        0.03490523
     474         -0.192295        1.000000        0.03705640
     475         -0.191898        1.000000        0.03072545
     476         -0.191618        1.000000        0.04401911
     477         -0.191396        1.000000        0.02270858
     478         -0.190680        1.000000        0.00525100
     479         -0.190157        1.000000        0.00900062
     480         -0.189899        1.000000        0.02098621
     481         -0.189500        1.000000        0.01466998
     482         -0.189362        1.000000        0.03451810
     483         -0.189045        1.000000        0.01224709
     484         -0.188553        1.000000        0.00511711
     485         -0.188113        1.000000        0.00914650
     486         -0.187375        1.000000        0.00705596
     487         -0.187159        1.000000        0.00990083
     488         -0.186456        1.000000        0.00605718
     489         -0.185796        1.000000        0.00968773