# Projected DOS for atomic kind N at iteration step i = 0, E(Fermi) =    -0.116764 a.u.
#     MO Eigenvalue [a.u.]      Occupation                 s                py                pz                px
       1         -0.922699        1.000000        0.00000020        0.00000001        0.00000000        0.00000003
       2         -0.917641        1.000000        0.00001006        0.00000048        0.00000001        0.00000079
       3         -0.906124        1.000000        0.00011197        0.00000254        0.00000000        0.00000222
       4         -0.904902        1.000000        0.00002008        0.00000080        0.00000012        0.00000111
       5         -0.903713        1.000000        0.00000000        0.00000000        0.00000000        0.00000000
       6         -0.899852        1.000000        0.00000027        0.00000000        0.00000000        0.00000000
       7         -0.898242        1.000000        0.00000000        0.00000000        0.00000000        0.00000000
       8         -0.894338        1.000000        0.00000001        0.00000000        0.00000000        0.00000000
       9         -0.893498        1.000000        0.00042775        0.00000910        0.00000106        0.00000034
      10         -0.891588        1.000000        0.00000002        0.00000000        0.00000000        0.00000000
      11         -0.890701        1.000000        0.00000108        0.00000001        0.00000001        0.00000001
      12         -0.889710        1.000000        0.00001709        0.00000019        0.00000012        0.00000019
      13         -0.889305        1.000000        0.00199942        0.00000849        0.00000087        0.00000353
      14         -0.885872        1.000000        0.00000000        0.00000000        0.00000000        0.00000000
      15         -0.883268        1.000000        0.00000000        0.00000000        0.00000000        0.00000000
      16         -0.881401        1.000000        0.00000004        0.00000000        0.00000000        0.00000000
      17         -0.880007        1.000000        0.01096522        0.00001251        0.00000953        0.00003870
      18         -0.879932        1.000000        0.60355055        0.00001471        0.00007987        0.00009720
      19         -0.879195        1.000000        0.02354658        0.00013604        0.00007254        0.00011825
      20         -0.877120        1.000000        0.00002260        0.00000000        0.00000000        0.00000005
      21         -0.876881        1.000000        0.60925076        0.00000064        0.00004401        0.00010488
      22         -0.876777        1.000000        0.00000556        0.00000003        0.00000000        0.00000001
      23         -0.876591        1.000000        0.00000047        0.00000000        0.00000000        0.00000000
      24         -0.875751        1.000000        0.00002654        0.00000000        0.00000000        0.00000001
      25         -0.874593        1.000000        0.00004509        0.00000002        0.00000001        0.00000002
      26         -0.874284        1.000000        0.61485206        0.00000356        0.00001965        0.00023279
      27         -0.872413        1.000000        0.00001097        0.00000035        0.00000006        0.00000046
      28         -0.872372        1.000000        0.00000002        0.00000000        0.00000001        0.00000002
      29         -0.871916        1.000000        0.00000015        0.00000211        0.00000008        0.00000000
      30         -0.871678        1.000000        0.00000093        0.00000000        0.00000001        0.00000000
      31         -0.870522        1.000000        0.60912002        0.00000800        0.00000145        0.00001859
      32         -0.869366        1.000000        0.00146922        0.00000100        0.00000183        0.00000003
      33         -0.868389        1.000000        0.00254217        0.00019766        0.00000027        0.00002145
      34         -0.866452        1.000000        0.00006557        0.00002703        0.00004638        0.00000579
      35         -0.866010        1.000000        0.00006727        0.00008865        0.00006194        0.00000192
      36         -0.863358        1.000000        0.00000001        0.00000000        0.00000000        0.00000000
      37         -0.863143        1.000000        0.00173520        0.00001324        0.00004019        0.00000786
      38         -0.862888        1.000000        0.00007720        0.00000009        0.00000056        0.00000006
      39         -0.860434        1.000000        0.00038538        0.00000769        0.00000244        0.00002104
      40         -0.857996        1.000000        0.00036222        0.00016694        0.00002635        0.00000234
      41         -0.857579        1.000000        0.00089946        0.00000001        0.00001557        0.00000192
      42         -0.857446        1.000000        0.00011064        0.00000001        0.00000004        0.00000137
      43         -0.857346        1.000000        0.00000022        0.00000000        0.00000000        0.00000000
      44         -0.856561        1.000000        0.00001316        0.00000000        0.00000000        0.00000047
      45         -0.854810        1.000000        0.00001243        0.00000000        0.00000005        0.00000001
      46         -0.854427        1.000000        0.00000016        0.00000000        0.00000000        0.00000000
      47         -0.853396        1.000000        0.00000439        0.00000001        0.00000001        0.00000001
      48         -0.852822        1.000000        0.00000003        0.00000000        0.00000000        0.00000000
      49         -0.852666        1.000000        0.03058529        0.00000023        0.00001848        0.00000160
      50         -0.852067        1.000000        0.10603900        0.00004036        0.00000079        0.00000141
      51         -0.850804        1.000000        0.00000565        0.00000001        0.00000000        0.00000016
      52         -0.849750        1.000000        0.02535345        0.00001896        0.00005229        0.00000090
      53         -0.849405        1.000000        0.00000307        0.00000002        0.00000002        0.00000002
      54         -0.849125        1.000000        0.00000002        0.00000000        0.00000000        0.00000000
      55         -0.848775        1.000000        0.00255597        0.00000222        0.00000007        0.00000022
      56         -0.848644        1.000000        0.00002048        0.00000013        0.00000093        0.00000011
      57         -0.847424        1.000000        0.00018576        0.00000167        0.00000964        0.00000101
      58         -0.846387        1.000000        0.24476829        0.00008530        0.00007483        0.00004197
      59         -0.846164        1.000000        0.03469364        0.00001850        0.00025317        0.00004111
      60         -0.845140        1.000000        0.00035540        0.00000007        0.00000018        0.00000009
      61         -0.842213        1.000000        0.00232946        0.00002419        0.00001005        0.00000173
      62         -0.841325        1.000000        0.00001386        0.00000000        0.00000001        0.00000073
      63         -0.840938        1.000000        0.00000001        0.00000000        0.00000000        0.00000000
      64         -0.840316        1.000000        0.00003733        0.00000000        0.00000007        0.00000002
      65         -0.837347        1.000000        0.00001975        0.00000003        0.00000003        0.00000001
      66         -0.836774        1.000000        0.00000037        0.00000003        0.00000004        0.00000009
      67         -0.836618        1.000000        0.00002714        0.00000141        0.00000226        0.00000000
      68         -0.836244        1.000000        0.01623639        0.00002061        0.00002172        0.00000001
      69         -0.836132        1.000000        0.16191787        0.00000212        0.00057238        0.00017703
      70         -0.832962        1.000000        0.00002117        0.00000005        0.00000005        0.00000243
      71         -0.832653        1.000000        0.00001955        0.00000068        0.00000061        0.00000036
      72         -0.832255        1.000000        0.00178140        0.00000088        0.00001166        0.00000322
      73         -0.832159        1.000000        0.00015444        0.00000003        0.00000059        0.00000039
      74         -0.831851        1.000000        0.00001559        0.00000000        0.00000003        0.00000000
      75         -0.831670        1.000000        0.03744359        0.00000835        0.00001939        0.00000443
      76         -0.831196        1.000000        0.00000293        0.00000044        0.00000026        0.00000006
      77         -0.829301        1.000000        0.00010353        0.00000207        0.00000225        0.00000167
      78         -0.828871        1.000000        0.00042049        0.00000038        0.00000002        0.00000020
      79         -0.828664        1.000000        0.00012538        0.00000071        0.00000033        0.00000008
      80         -0.824925        1.000000        0.00003656        0.00000010        0.00000007        0.00000002
      81         -0.824857        1.000000        0.08967778        0.00000045        0.00000101        0.00008270
      82         -0.822222        1.000000        0.00009046        0.00000017        0.00000014        0.00000152
      83         -0.822055        1.000000        0.00000064        0.00000000        0.00000001        0.00000001
      84         -0.821146        1.000000        0.00180227        0.00000265        0.00003227        0.00000622
      85         -0.819650        1.000000        0.00027192        0.00000027        0.00000033        0.00000228
      86         -0.819152        1.000000        0.00000025        0.00000000        0.00000000        0.00000000
      87         -0.818879        1.000000        0.00000081        0.00000000        0.00000000        0.00000000
      88         -0.818088        1.000000        0.00022673        0.00000001        0.00000026        0.00000060
      89         -0.817863        1.000000        0.00843337        0.00000734        0.00000858        0.00001007
      90         -0.816869        1.000000        0.01174452        0.00000112        0.00001788        0.00003605
      91         -0.816614        1.000000        0.00342515        0.00000549        0.00000497        0.00000169
      92         -0.815911        1.000000        0.00000716        0.00000240        0.00000100        0.00000109
      93         -0.814258        1.000000        0.01239921        0.00000808        0.00002700        0.00004705
      94         -0.813940        1.000000        0.00000436        0.00000000        0.00000000        0.00000006
      95         -0.813826        1.000000        0.13961348        0.00009816        0.00032789        0.00055198
      96         -0.813378        1.000000        0.00016258        0.00000011        0.00000036        0.00000063
      97         -0.812915        1.000000        0.00000127        0.00000036        0.00000019        0.00000012
      98         -0.810034        1.000000        0.00302690        0.00000002        0.00000006        0.00000229
      99         -0.808765        1.000000        0.00067961        0.00000105        0.00000001        0.00000396
     100         -0.805820        1.000000        0.00017454        0.00000023        0.00000002        0.00000001
     101         -0.805599        1.000000        0.00001291        0.00000002        0.00000001        0.00000001
     102         -0.804598        1.000000        0.08565782        0.00011330        0.00000080        0.00000104
     103         -0.803423        1.000000        0.00158226        0.00000280        0.00000018        0.00000032
     104         -0.803070        1.000000        0.19501179        0.00049593        0.00174765        0.00176932
     105         -0.802991        1.000000        0.00528935        0.00001368        0.00004710        0.00004741
     106         -0.801788        1.000000        0.00016173        0.00000345        0.00000148        0.00000259
     107         -0.801345        1.000000        0.01135652        0.00002578        0.00000144        0.00000227
     108         -0.800279        1.000000        0.00007589        0.00000044        0.00000029        0.00000141
     109         -0.798102        1.000000        0.00037445        0.00002118        0.00000288        0.00000478
     110         -0.797862        1.000000        0.00162750        0.00000637        0.00000058        0.00000070
     111         -0.797099        1.000000        0.21365295        0.00088234        0.00010117        0.00016114
     112         -0.796561        1.000000        0.00097666        0.00000493        0.00000455        0.00000109
     113         -0.795982        1.000000        0.00000185        0.00000001        0.00000001        0.00000000
     114         -0.794971        1.000000        0.11186479        0.00059888        0.00007927        0.00012783
     115         -0.794373        1.000000        0.05308190        0.00026121        0.00095064        0.00078903
     116         -0.792876        1.000000        0.00002726        0.00000015        0.00000004        0.00000080
     117         -0.790343        1.000000        0.00000006        0.00000000        0.00000001        0.00000002
     118         -0.788945        1.000000        0.00662689        0.00004158        0.00001914        0.00007455
     119         -0.785873        1.000000        0.00000283        0.00000000        0.00000000        0.00000088
     120         -0.776631        1.000000        0.08342090        0.00181198        0.00039428        0.00095835
     121         -0.767026        1.000000        0.05898720        0.00216491        0.00042818        0.00116280
     122         -0.758609        1.000000        0.00011310        0.00000005        0.00002785        0.00003194
     123         -0.723550        1.000000        0.00002341        0.00000452        0.00000104        0.00000221
     124         -0.701849        1.000000        0.00000000        0.00000000        0.00000000        0.00000000
     125         -0.628674        1.000000        0.01758250        0.00000013        0.00829114        0.17976848
     126         -0.626936        1.000000        0.01720398        0.00037752        0.00329560        0.18436404
     127         -0.619795        1.000000        0.01851395        0.00131575        0.00377750        0.18456669
     128         -0.616088        1.000000        0.01497335        0.00004370        0.02589649        0.16911512
     129         -0.604832        1.000000        0.02371602        0.00090462        0.00428616        0.16289221
     130         -0.578200        1.000000        0.02428056        0.01728085        0.08422710        0.06496757
     131         -0.569977        1.000000        0.00000202        0.00017314        0.00006000        0.00007355
     132         -0.563397        1.000000        0.02852736        0.00000982        0.08015748        0.07677367
     133         -0.542976        1.000000        0.00048862        0.02356724        0.00477691        0.00016337
     134         -0.540041        1.000000        0.00090955        0.02897097        0.00094163        0.00018687
     135         -0.538854        1.000000        0.00011901        0.00405635        0.00090093        0.00011791
     136         -0.535177        1.000000        0.00018449        0.00524910        0.00419086        0.00030653
     137         -0.532326        1.000000        0.00055027        0.03753528        0.00219389        0.00086511
     138         -0.531692        1.000000        0.00029058        0.02807104        0.00430652        0.00040970
     139         -0.531348        1.000000        0.00024410        0.01572332        0.01316606        0.00115507
     140         -0.529638        1.000000        0.00033293        0.00478473        0.03017830        0.00115380
     141         -0.527535        1.000000        0.00064547        0.01142220        0.00340427        0.00079138
     142         -0.525232        1.000000        0.00034273        0.01645507        0.00449088        0.00014374
     143         -0.522620        1.000000        0.00022186        0.00219292        0.00797487        0.00066190
     144         -0.522063        1.000000        0.00007470        0.01085566        0.03362374        0.00248539
     145         -0.521571        1.000000        0.00001489        0.00075832        0.01024695        0.00043246
     146         -0.521407        1.000000        0.00013426        0.02664553        0.10677347        0.00547591
     147         -0.519624        1.000000        0.00007975        0.01133864        0.01737262        0.00064604
     148         -0.518940        1.000000        0.00007742        0.00098900        0.00817454        0.00052951
     149         -0.517590        1.000000        0.00019614        0.00996500        0.05032244        0.00087076
     150         -0.517138        1.000000        0.00002644        0.00321971        0.01503426        0.00027518
     151         -0.516841        1.000000        0.00040493        0.01264069        0.02958883        0.00116131
     152         -0.514868        1.000000        0.00010539        0.00351630        0.03494563        0.00102687
     153         -0.513645        1.000000        0.00006597        0.00249453        0.00936591        0.00033702
     154         -0.513369        1.000000        0.00007484        0.01004790        0.01242502        0.00064011
     155         -0.512315        1.000000        0.00014812        0.01267176        0.03357007        0.00218037
     156         -0.512010        1.000000        0.00007100        0.00240584        0.01516622        0.00010682
     157         -0.510582        1.000000        0.00095282        0.00043601        0.03656742        0.00103167
     158         -0.508406        1.000000        0.00005512        0.00420766        0.00663782        0.00057279
     159         -0.507899        1.000000        0.00018169        0.00195280        0.01502735        0.00101903
     160         -0.507096        1.000000        0.00011237        0.00384796        0.00087959        0.00004952
     161         -0.505756        1.000000        0.00000866        0.00040878        0.00105579        0.00035341
     162         -0.504544        1.000000        0.00020247        0.00239864        0.03580689        0.00336331
     163         -0.503456        1.000000        0.00000649        0.00052733        0.00089744        0.00021050
     164         -0.501924        1.000000        0.00001153        0.00141459        0.00151732        0.00006104
     165         -0.501458        1.000000        0.00000987        0.00365787        0.00173173        0.00021541
     166         -0.501052        1.000000        0.00012374        0.00240506        0.02269696        0.00219509
     167         -0.500437        1.000000        0.00002914        0.00383515        0.00971637        0.00087887
     168         -0.498709        1.000000        0.00034956        0.37198186        0.11966368        0.00546644
     169         -0.498006        1.000000        0.00048676        0.34164416        0.10836006        0.00568120
     170         -0.493542        1.000000        0.00024222        0.37838060        0.12092421        0.01330307
     171         -0.490900        1.000000        0.00002149        0.15542196        0.30247363        0.03923597
     172         -0.489613        1.000000        0.00001221        0.47752400        0.02994249        0.00229808
     173         -0.489299        1.000000        0.00012541        0.24288332        0.17077069        0.00906295
     174         -0.485619        1.000000        0.00027517        0.07725240        0.37789213        0.01914303
     175         -0.483291        1.000000        0.00002357        0.02884604        0.44786991        0.00867540
     176         -0.481203        1.000000        0.00000190        0.00076182        0.00430200        0.00009053
     177         -0.481028        1.000000        0.00033869        0.00975908        0.52809877        0.00455891
     178         -0.477279        1.000000        0.00000070        0.00012750        0.00018514        0.00000532
     179         -0.467260        1.000000        0.00000262        0.52631290        0.00728619        0.00121299
     180         -0.465086        1.000000        0.00006510        0.00051014        0.00297789        0.00039533
     181         -0.464208        1.000000        0.00000023        0.00038623        0.00022075        0.00001019
     182         -0.462535        1.000000        0.00000014        0.00000506        0.00000070        0.00000518
     183         -0.462082        1.000000        0.00000029        0.00001169        0.00000083        0.00016953
     184         -0.456549        1.000000        0.00000000        0.00000041        0.00000023        0.00000085
     185         -0.453958        1.000000        0.00000000        0.00000018        0.00000025        0.00000013
     186         -0.453559        1.000000        0.00000133        0.00004321        0.00001974        0.00000081
     187         -0.452925        1.000000        0.00000060        0.00004996        0.00000756        0.00000551
     188         -0.451295        1.000000        0.00001472        0.47705387        0.08787891        0.00000213
     189         -0.450827        1.000000        0.00000094        0.00023230        0.00001648        0.00004675
     190         -0.449471        1.000000        0.00003863        0.00466303        0.00036861        0.00010738
     191         -0.449319        1.000000        0.00000596        0.00101814        0.00001819        0.00025791
     192         -0.448502        1.000000        0.00000016        0.00000450        0.00001292        0.00001688
     193         -0.447004        1.000000        0.00001096        0.00043979        0.00002750        0.00013133
     194         -0.445535        1.000000        0.00000083        0.00004270        0.00000378        0.00002053
     195         -0.445249        1.000000        0.00000046        0.00000749        0.00001779        0.00001467
     196         -0.445015        1.000000        0.00099058        0.00427834        0.01898655        0.00134258
     197         -0.444310        1.000000        0.00000016        0.00000976        0.00012335        0.00005379
     198         -0.443027        1.000000        0.00007403        0.00094637        0.00485311        0.00006093
     199         -0.442179        1.000000        0.00001874        0.00013054        0.00042074        0.00007592
     200         -0.441508        1.000000        0.00076207        0.02190257        0.09055398        0.27120562
     201         -0.441420        1.000000        0.00000837        0.00002691        0.00003797        0.00006517
     202         -0.439313        1.000000        0.00019436        0.00926148        0.00000846        0.00058304
     203         -0.437975        1.000000        0.00000072        0.00008294        0.00000708        0.00000813
     204         -0.435761        1.000000        0.00001815        0.00031725        0.00036343        0.00002241
     205         -0.435046        1.000000        0.00001078        0.00018350        0.00049147        0.00009033
     206         -0.434007        1.000000        0.00000014        0.00000154        0.00000229        0.00001051
     207         -0.432982        1.000000        0.00000859        0.00042757        0.00026276        0.00032014
     208         -0.432814        1.000000        0.00000453        0.00005348        0.00005087        0.00001491
     209         -0.432720        1.000000        0.00000083        0.00003680        0.00002725        0.00003014
     210         -0.431727        1.000000        0.00000007        0.00009276        0.00021535        0.00020124
     211         -0.431595        1.000000        0.00000416        0.00006713        0.00003885        0.00002336
     212         -0.430742        1.000000        0.00001841        0.10519897        0.22688800        0.21619645
     213         -0.430564        1.000000        0.00000255        0.00020355        0.00145106        0.00030331
     214         -0.430404        1.000000        0.00000018        0.00008172        0.00018621        0.00017664
     215         -0.429155        1.000000        0.00000879        0.00051371        0.00043915        0.00008989
     216         -0.428831        1.000000        0.00006931        0.00466776        0.00300897        0.00000321
     217         -0.428331        1.000000        0.00000224        0.00000961        0.00008089        0.00020027
     218         -0.428157        1.000000        0.00000014        0.00000838        0.00000118        0.00000076
     219         -0.427798        1.000000        0.00000136        0.00001016        0.00002960        0.00006506
     220         -0.427419        1.000000        0.00000617        0.00011799        0.00018808        0.00002597
     221         -0.425718        1.000000        0.00000384        0.00002737        0.00002427        0.00004261
     222         -0.425552        1.000000        0.00000050        0.00000151        0.00000430        0.00000248
     223         -0.424168        1.000000        0.00000113        0.00000676        0.00000425        0.00002223
     224         -0.424136        1.000000        0.00009496        0.00000087        0.00067609        0.00690962
     225         -0.423925        1.000000        0.00000645        0.00008524        0.00006609        0.00007537
     226         -0.423712        1.000000        0.00002049        0.00009843        0.00019124        0.00104735
     227         -0.423536        1.000000        0.00000797        0.00001188        0.00009747        0.00052395
     228         -0.423112        1.000000        0.00003478        0.00008999        0.00065807        0.00258236
     229         -0.423069        1.000000        0.00000284        0.00001113        0.00002065        0.00006751
     230         -0.422543        1.000000        0.00000436        0.00020700        0.00013893        0.00005261
     231         -0.422259        1.000000        0.00001477        0.00071213        0.00024425        0.00006004
     232         -0.421830        1.000000        0.00004330        0.00313266        0.00072654        0.00008576
     233         -0.421705        1.000000        0.00000018        0.00000359        0.00000433        0.00000320
     234         -0.420988        1.000000        0.00000607        0.00000065        0.00004591        0.00037339
     235         -0.419480        1.000000        0.00000063        0.00000854        0.00001873        0.00000811
     236         -0.419282        1.000000        0.00001397        0.00000691        0.00011425        0.00016609
     237         -0.419058        1.000000        0.00000707        0.00020895        0.00002895        0.00012857
     238         -0.418417        1.000000        0.00000114        0.00000641        0.00000700        0.00002066
     239         -0.417533        1.000000        0.00000282        0.00005879        0.00001982        0.00002895
     240         -0.416798        1.000000        0.00007576        0.00179310        0.00789444        0.00746997
     241         -0.416443        1.000000        0.00000566        0.00000050        0.00002138        0.00029272
     242         -0.416067        1.000000        0.00000112        0.00005283        0.00002673        0.00004263
     243         -0.413800        1.000000        0.00051077        0.00072441        0.00121389        0.02700186
     244         -0.413723        1.000000        0.00016317        0.00036802        0.00042201        0.00866043
     245         -0.413484        1.000000        0.00266586        0.23045575        0.04118115        0.00418226
     246         -0.412383        1.000000        0.00000313        0.00002340        0.00000665        0.00016792
     247         -0.412359        1.000000        0.00000043        0.00000022        0.00000107        0.00000939
     248         -0.411962        1.000000        0.00048480        0.04439228        0.00728493        0.00089139
     249         -0.409583        1.000000        0.00056678        0.00002358        0.00061445        0.02148064
     250         -0.409526        1.000000        0.00009242        0.00020064        0.00016436        0.00409332
     251         -0.409195        1.000000        0.00037360        0.00103507        0.00057874        0.01750523
     252         -0.408624        1.000000        0.00073955        0.00005966        0.00218012        0.03140144
     253         -0.408515        1.000000        0.00004333        0.00008563        0.00013110        0.00189640
     254         -0.408265        1.000000        0.00032824        0.02903416        0.00418988        0.00218369
     255         -0.408098        1.000000        0.00111203        0.00054186        0.00291729        0.05731542
     256         -0.407731        1.000000        0.00577347        0.00076015        0.01612608        0.28130235
     257         -0.407659        1.000000        0.00003245        0.00000308        0.00008804        0.00157138
     258         -0.407521        1.000000        0.00066722        0.00409377        0.00235483        0.02934419
     259         -0.406818        1.000000        0.00521618        0.00130647        0.00597240        0.20788078