# Projected DOS for atomic kind O at iteration step i = 0, E(Fermi) =    -0.114860 a.u.
#     MO Eigenvalue [a.u.]      Occupation                 s                py                pz                px
       1         -0.922692        1.000000        0.70518497        0.00640438        0.02391936        0.01181451
       2         -0.917627        1.000000        0.70088292        0.00234332        0.02857782        0.00096648
       3         -0.906110        1.000000        0.70941063        0.00282951        0.02966395        0.00167647
       4         -0.904885        1.000000        0.71482644        0.00330303        0.02939620        0.00181979
       5         -0.903702        1.000000        0.71235064        0.01045127        0.02435254        0.00432872
       6         -0.899845        1.000000        0.70224614        0.02010826        0.02022825        0.00175635
       7         -0.898240        1.000000        0.71254558        0.01519419        0.00108638        0.02007525
       8         -0.894362        1.000000        0.71416638        0.00672009        0.02234083        0.00072388
       9         -0.893486        1.000000        0.71375163        0.00271430        0.02240896        0.01002661
      10         -0.891576        1.000000        0.70021355        0.00235959        0.01379500        0.00793827
      11         -0.890703        1.000000        0.70369571        0.02114566        0.00998501        0.00231005
      12         -0.889763        1.000000        0.70784301        0.02150195        0.01740211        0.00060936
      13         -0.889291        1.000000        0.72489871        0.00383663        0.02158766        0.00832172
      14         -0.885852        1.000000        0.71843333        0.01827990        0.01454096        0.00546491
      15         -0.883197        1.000000        0.70607575        0.00872582        0.02393321        0.00336885
      16         -0.881382        1.000000        0.71062683        0.00332754        0.00714369        0.01184401
      17         -0.880015        1.000000        0.70089249        0.02314096        0.00266168        0.00360529
      18         -0.879951        1.000000        0.01176419        0.00030563        0.00015377        0.00011753
      19         -0.879170        1.000000        0.67875103        0.00673848        0.01439592        0.00283517
      20         -0.877105        1.000000        0.70488759        0.03485704        0.00116985        0.00062843
      21         -0.876787        1.000000        0.00263584        0.00002132        0.00000672        0.00001363
      22         -0.876736        1.000000        0.71066735        0.00521297        0.01721102        0.01678946
      23         -0.876579        1.000000        0.71377164        0.00308189        0.02009834        0.01089871
      24         -0.875725        1.000000        0.71477387        0.01887604        0.01399114        0.00396618
      25         -0.874600        1.000000        0.70604383        0.01207089        0.00940260        0.00569754
      26         -0.874304        1.000000        0.00000144        0.00000001        0.00000003        0.00000001
      27         -0.872525        1.000000        0.72168906        0.02458084        0.00668809        0.00369063
      28         -0.872333        1.000000        0.70250729        0.03809520        0.00499483        0.00145870
      29         -0.871832        1.000000        0.70546913        0.02763039        0.01198623        0.00484807
      30         -0.871670        1.000000        0.71426111        0.02463460        0.01221124        0.00113693
      31         -0.870538        1.000000        0.00019803        0.00000817        0.00000132        0.00001390
      32         -0.869242        1.000000        0.70177786        0.00904553        0.00165316        0.00735762
      33         -0.868352        1.000000        0.70816065        0.00725465        0.00789629        0.00416730
      34         -0.866436        1.000000        0.71227127        0.01307489        0.01084588        0.00519610
      35         -0.865981        1.000000        0.71534978        0.01269862        0.01107084        0.00461671
      36         -0.863345        1.000000        0.73123633        0.00452568        0.01639737        0.00933526
      37         -0.863131        1.000000        0.69950063        0.01943107        0.02081061        0.00061804
      38         -0.862703        1.000000        0.71116964        0.00146035        0.01044876        0.02468685
      39         -0.860572        1.000000        0.71776661        0.00837632        0.01788524        0.00434264
      40         -0.857948        1.000000        0.72819252        0.01124043        0.01035810        0.00669245
      41         -0.857428        1.000000        0.71998299        0.01746771        0.00440143        0.00884427
      42         -0.857332        1.000000        0.74678370        0.00492984        0.01073335        0.00870490
      43         -0.856784        1.000000        0.70940993        0.00460437        0.00535691        0.00987281
      44         -0.856457        1.000000        0.72097296        0.01593687        0.00462261        0.00550290
      45         -0.854811        1.000000        0.70344737        0.02940015        0.00685574        0.00384269
      46         -0.854408        1.000000        0.69606901        0.02630399        0.01204578        0.01091168
      47         -0.853512        1.000000        0.73248329        0.02054987        0.01293292        0.00247429
      48         -0.852822        1.000000        0.71304921        0.00657585        0.00075239        0.00736918
      49         -0.852658        1.000000        0.68199551        0.00695816        0.00810405        0.00637324
      50         -0.852013        1.000000        0.59916733        0.00962420        0.00775187        0.00695423
      51         -0.850802        1.000000        0.71624511        0.00578034        0.00475218        0.01218457
      52         -0.849745        1.000000        0.68723438        0.00500471        0.00797287        0.01057934
      53         -0.849365        1.000000        0.69798572        0.02510102        0.00138606        0.00078673
      54         -0.849170        1.000000        0.71291324        0.00114769        0.00377967        0.00297038
      55         -0.848746        1.000000        0.69508843        0.01624168        0.01747702        0.00622272
      56         -0.848558        1.000000        0.69972105        0.01434211        0.00882829        0.02176109
      57         -0.846749        1.000000        0.72532838        0.00680699        0.00709627        0.01052395
      58         -0.846357        1.000000        0.43965335        0.00958739        0.00706070        0.00351789
      59         -0.846152        1.000000        0.66325137        0.01216011        0.00177160        0.00978984
      60         -0.845081        1.000000        0.70568266        0.01673300        0.01381323        0.00520166
      61         -0.842237        1.000000        0.72750129        0.00510944        0.00965235        0.00914119
      62         -0.841297        1.000000        0.71913074        0.00285533        0.00162298        0.01489607
      63         -0.840918        1.000000        0.75001606        0.00482737        0.00709410        0.01861055
      64         -0.840429        1.000000        0.70599771        0.00628229        0.00966746        0.02495501
      65         -0.837764        1.000000        0.73236463        0.01729615        0.00238340        0.01608843
      66         -0.837395        1.000000        0.71996230        0.00663357        0.00967086        0.00532575
      67         -0.836470        1.000000        0.72851168        0.01471355        0.00468255        0.01646029
      68         -0.836239        1.000000        0.69501664        0.00928912        0.00435126        0.01009455
      69         -0.836027        1.000000        0.56612817        0.01423791        0.00622460        0.00457407
      70         -0.835796        1.000000        0.73444531        0.01088327        0.01138177        0.00696414
      71         -0.832959        1.000000        0.72386858        0.00644984        0.00378960        0.01534685
      72         -0.832479        1.000000        0.73131091        0.00871367        0.00650031        0.00701347
      73         -0.832190        1.000000        0.69214906        0.02048749        0.00250042        0.02504432
      74         -0.831662        1.000000        0.67357996        0.00729577        0.01314274        0.00508083
      75         -0.831483        1.000000        0.72103300        0.00601549        0.01636614        0.01518476
      76         -0.830608        1.000000        0.74654355        0.00968755        0.00932240        0.01475731
      77         -0.829334        1.000000        0.74354555        0.00872622        0.00715974        0.01049703
      78         -0.828869        1.000000        0.69430617        0.03850921        0.00124546        0.00853861
      79         -0.828449        1.000000        0.71444241        0.00840877        0.00225640        0.00954757
      80         -0.824982        1.000000        0.73198848        0.00966994        0.00464563        0.01388599
      81         -0.824847        1.000000        0.61948244        0.00508724        0.01010019        0.00999021
      82         -0.822145        1.000000        0.73872999        0.00778061        0.00764886        0.01035404
      83         -0.821096        1.000000        0.76686064        0.01179126        0.00683650        0.01174040
      84         -0.820676        1.000000        0.72302983        0.02049905        0.01407634        0.00911876
      85         -0.819619        1.000000        0.74133079        0.00744285        0.01007282        0.01169488
      86         -0.819126        1.000000        0.77375602        0.00482038        0.00549591        0.02460034
      87         -0.818832        1.000000        0.68786727        0.02027939        0.02839623        0.00229036
      88         -0.818312        1.000000        0.69662612        0.03582049        0.00652992        0.00505648
      89         -0.818100        1.000000        0.71965909        0.00521578        0.00781712        0.00828623
      90         -0.817049        1.000000        0.69824592        0.02203240        0.00058693        0.02412264
      91         -0.816740        1.000000        0.73814942        0.00674845        0.00977549        0.00808613
      92         -0.815505        1.000000        0.70175548        0.02492895        0.00974598        0.01237516
      93         -0.814243        1.000000        0.69094609        0.03246336        0.00744118        0.00682507
      94         -0.813825        1.000000        0.76260047        0.01295025        0.00941155        0.01208840
      95         -0.813810        1.000000        0.56301210        0.00794230        0.01347447        0.00806407
      96         -0.813556        1.000000        0.75186179        0.00702182        0.00787827        0.01571418
      97         -0.811908        1.000000        0.76337401        0.02105740        0.00427560        0.01684848
      98         -0.811863        1.000000        0.77108564        0.01305646        0.00717283        0.01520318
      99         -0.810282        1.000000        0.71889923        0.02346910        0.01013013        0.01221348
     100         -0.810265        1.000000        0.72262665        0.01212223        0.00595335        0.00622006
     101         -0.808751        1.000000        0.75352044        0.01426097        0.00697294        0.01524634
     102         -0.805813        1.000000        0.75043343        0.01440621        0.00783488        0.01038155
     103         -0.805112        1.000000        0.62842218        0.00848130        0.00562270        0.00775919
     104         -0.803053        1.000000        0.51020482        0.00737353        0.01254825        0.00475510
     105         -0.801879        1.000000        0.76936321        0.01197024        0.01094238        0.00977771
     106         -0.801484        1.000000        0.72113764        0.02066010        0.00360177        0.00858351
     107         -0.800129        1.000000        0.77551908        0.00898110        0.00981568        0.01534187
     108         -0.799646        1.000000        0.70949359        0.00461483        0.03501061        0.01040701
     109         -0.798090        1.000000        0.77214784        0.01982188        0.00887908        0.00469194
     110         -0.797914        1.000000        0.77338364        0.00541057        0.01464035        0.01356846
     111         -0.797215        1.000000        0.48076015        0.00602099        0.01178177        0.00538350
     112         -0.795764        1.000000        0.72807732        0.03016044        0.01543492        0.00213256
     113         -0.794971        1.000000        0.61935697        0.01011504        0.01634147        0.00733658
     114         -0.794355        1.000000        0.70740873        0.01086877        0.01221301        0.01104458
     115         -0.792865        1.000000        0.76736608        0.00789294        0.01561633        0.01164794
     116         -0.790275        1.000000        0.82191638        0.00642012        0.00217064        0.02392557
     117         -0.789304        1.000000        0.74864899        0.00811611        0.00663696        0.01636126
     118         -0.785858        1.000000        0.78209313        0.00560846        0.01341154        0.01518240
     119         -0.782760        1.000000        0.78178491        0.00959726        0.00509730        0.02636104
     120         -0.777688        1.000000        0.62730365        0.00957354        0.00735301        0.00798022
     121         -0.768388        1.000000        0.70717972        0.00749578        0.01084513        0.01142112
     122         -0.760073        1.000000        0.77124591        0.00067755        0.00807676        0.03459381
     123         -0.702595        1.000000        0.89435828        0.01225880        0.00616414        0.00464653
     124         -0.679695        1.000000        0.88776093        0.00577811        0.01370781        0.00136606
     125         -0.628691        1.000000        0.00001590        0.00008494        0.00000965        0.00002992
     126         -0.626815        1.000000        0.00004850        0.00001476        0.00005534        0.00004164
     127         -0.619785        1.000000        0.00034850        0.00014458        0.00008661        0.00030831
     128         -0.616088        1.000000        0.00000098        0.00000079        0.00000055        0.00000082
     129         -0.604808        1.000000        0.00031630        0.00097641        0.00074916        0.00018549
     130         -0.578209        1.000000        0.00066438        0.00054971        0.00074459        0.00138442
     131         -0.569905        1.000000        0.01757250        0.01226812        0.03072144        0.00305370
     132         -0.563380        1.000000        0.00044481        0.00068896        0.00077001        0.00017861
     133         -0.540437        1.000000        0.00056686        0.00053879        0.00074404        0.00035357
     134         -0.537544        1.000000        0.00139054        0.00059386        0.00355943        0.00186255
     135         -0.535460        1.000000        0.00040413        0.00033998        0.00043821        0.00057096
     136         -0.533739        1.000000        0.00020627        0.00035077        0.00035826        0.00063201
     137         -0.531954        1.000000        0.00038099        0.00066001        0.00074159        0.00105850
     138         -0.530429        1.000000        0.00134336        0.00060131        0.00351185        0.00186770
     139         -0.529255        1.000000        0.00066843        0.00156128        0.00067368        0.00168413
     140         -0.527954        1.000000        0.00054047        0.00104985        0.00066026        0.00168060
     141         -0.526260        1.000000        0.00120989        0.00099701        0.00269156        0.00611878
     142         -0.525529        1.000000        0.00064081        0.00064229        0.00069869        0.00185223
     143         -0.523245        1.000000        0.00143340        0.00102208        0.00124382        0.00873852
     144         -0.522509        1.000000        0.00059066        0.00073330        0.00064880        0.00245595
     145         -0.521454        1.000000        0.00049596        0.00499498        0.00136444        0.00394355
     146         -0.520555        1.000000        0.00072548        0.00054894        0.00062590        0.00157867
     147         -0.520411        1.000000        0.00113693        0.00168326        0.00140097        0.00391686
     148         -0.517517        1.000000        0.00084733        0.00409137        0.00153818        0.00430354
     149         -0.517357        1.000000        0.00074697        0.00390694        0.00160975        0.00377811
     150         -0.517247        1.000000        0.00074533        0.00385839        0.00092296        0.00276609
     151         -0.516849        1.000000        0.00047117        0.00292014        0.00096622        0.00294210
     152         -0.515704        1.000000        0.00084454        0.00334874        0.00160033        0.00372504
     153         -0.514020        1.000000        0.00126343        0.00332720        0.00263785        0.00724247
     154         -0.513486        1.000000        0.00089611        0.00227718        0.00107501        0.00453134
     155         -0.511815        1.000000        0.00048957        0.00077335        0.00078033        0.00145443
     156         -0.511161        1.000000        0.00136115        0.00126329        0.00324059        0.00953262
     157         -0.510440        1.000000        0.00149751        0.00046108        0.00237813        0.00281174
     158         -0.509185        1.000000        0.00033105        0.00096489        0.00053956        0.00225273
     159         -0.508880        1.000000        0.00051695        0.00114329        0.00058762        0.00324441
     160         -0.508761        1.000000        0.00049472        0.00121703        0.00052579        0.00340600
     161         -0.505965        1.000000        0.00028733        0.00054236        0.00055378        0.00136493
     162         -0.505471        1.000000        0.00138818        0.00210316        0.00175863        0.00666622
     163         -0.503344        1.000000        0.00086990        0.00110580        0.00084469        0.00826307
     164         -0.502359        1.000000        0.00031553        0.00166652        0.00094811        0.00219589
     165         -0.501881        1.000000        0.00102024        0.01300732        0.00306402        0.01340698
     166         -0.501385        1.000000        0.00110149        0.00218709        0.00154701        0.00511919
     167         -0.500635        1.000000        0.00078087        0.00721627        0.00224296        0.00994970
     168         -0.498611        1.000000        0.00016083        0.00377018        0.00130971        0.00290364
     169         -0.497881        1.000000        0.00018953        0.00366223        0.00140049        0.00302666
     170         -0.493579        1.000000        0.00007983        0.00160187        0.00061194        0.00095147
     171         -0.491025        1.000000        0.00002468        0.00008679        0.00015790        0.00015635
     172         -0.489569        1.000000        0.00003108        0.00005545        0.00005886        0.00010590
     173         -0.489364        1.000000        0.00030828        0.00705082        0.00319833        0.00387481
     174         -0.485712        1.000000        0.00008511        0.00016208        0.00094464        0.00031136
     175         -0.483446        1.000000        0.00003847        0.00009343        0.00009389        0.00021353
     176         -0.481184        1.000000        0.00227427        0.38735421        0.02525449        0.19607066
     177         -0.480985        1.000000        0.00049034        0.02731829        0.01527910        0.01286972
     178         -0.477269        1.000000        0.00100243        0.28104368        0.02570971        0.32941567
     179         -0.467215        1.000000        0.00041700        0.03001769        0.02731493        0.00260103
     180         -0.465089        1.000000        0.00109750        0.33494093        0.12375395        0.14925801
     181         -0.464182        1.000000        0.00263521        0.29455878        0.05834420        0.29392909
     182         -0.462507        1.000000        0.00488706        0.27722292        0.08726439        0.27555771
     183         -0.462054        1.000000        0.00195379        0.26786421        0.07331433        0.28549765
     184         -0.456528        1.000000        0.00548025        0.16695556        0.38386343        0.10833481
     185         -0.453941        1.000000        0.00014843        0.01477801        0.01675268        0.60828177
     186         -0.453537        1.000000        0.00694130        0.15198759        0.40768075        0.08614635
     187         -0.452823        1.000000        0.00346279        0.36705441        0.07478178        0.20140719
     188         -0.451283        1.000000        0.00012261        0.00518028        0.00089951        0.00553359
     189         -0.450812        1.000000        0.00193521        0.29435744        0.04732635        0.28944832
     190         -0.449472        1.000000        0.00270817        0.17117698        0.06717227        0.38204453
     191         -0.449298        1.000000        0.00225831        0.16230787        0.17359285        0.29811015
     192         -0.448501        1.000000        0.00338799        0.14868977        0.02435858        0.45404126
     193         -0.446973        1.000000        0.00248173        0.10713930        0.15786732        0.38965896
     194         -0.445508        1.000000        0.00096335        0.32410995        0.23681837        0.06327719
     195         -0.445180        1.000000        0.00237276        0.05261934        0.07140718        0.50380560
     196         -0.444978        1.000000        0.00356168        0.13885086        0.13818322        0.33589693
     197         -0.444287        1.000000        0.00266774        0.05150100        0.15998843        0.41077210
     198         -0.442981        1.000000        0.00344285        0.26798518        0.13752684        0.23507316
     199         -0.442213        1.000000        0.00223408        0.02777292        0.05662722        0.54640565
     200         -0.441490        1.000000        0.00008146        0.07358045        0.06378339        0.08811970
     201         -0.441248        1.000000        0.00093588        0.11098310        0.12326737        0.39496172
     202         -0.439229        1.000000        0.00327310        0.21851747        0.17696456        0.23329508
     203         -0.437944        1.000000        0.00209010        0.11506729        0.36376442        0.16037883
     204         -0.435496        1.000000        0.00282616        0.31041256        0.02470232        0.31439271
     205         -0.435021        1.000000        0.00429546        0.30324188        0.17141381        0.17429375
     206         -0.433989        1.000000        0.00251620        0.31693479        0.11047320        0.21885514
     207         -0.433000        1.000000        0.00151889        0.09062228        0.03866465        0.49412238
     208         -0.432794        1.000000        0.00313656        0.17930551        0.23003410        0.23551730
     209         -0.432706        1.000000        0.00323247        0.31442512        0.10478603        0.21942516
     210         -0.431698        1.000000        0.00065910        0.26644494        0.30948842        0.08739693
     211         -0.431468        1.000000        0.00120974        0.13539950        0.04072494        0.45445906
     212         -0.430642        1.000000        0.00027187        0.00837048        0.00167985        0.00846919
     213         -0.430493        1.000000        0.00527286        0.16189111        0.16546219        0.31973994
     214         -0.430366        1.000000        0.00242026        0.26379461        0.06862761        0.32415378
     215         -0.429117        1.000000        0.00259815        0.18383261        0.10254957        0.36287719
     216         -0.428776        1.000000        0.00193167        0.32812265        0.03894652        0.27601410
     217         -0.428317        1.000000        0.00109505        0.04272724        0.04384424        0.54970491
     218         -0.428077        1.000000        0.00027229        0.01316324        0.26698258        0.35747946
     219         -0.427788        1.000000        0.00083398        0.33350273        0.06030113        0.24116171
     220         -0.427272        1.000000        0.00217745        0.47356107        0.02026954        0.16118647
     221         -0.425700        1.000000        0.00120678        0.21680183        0.24286338        0.18898774
     222         -0.425540        1.000000        0.00167729        0.49548401        0.03513326        0.12273801
     223         -0.424108        1.000000        0.00408933        0.12276650        0.27235730        0.24249540
     224         -0.424097        1.000000        0.00363444        0.41696351        0.15811596        0.06418770
     225         -0.423919        1.000000        0.00370472        0.14411226        0.34605962        0.15411644
     226         -0.423695        1.000000        0.00313756        0.12875238        0.20771369        0.28787336
     227         -0.423505        1.000000        0.00112576        0.25490357        0.12571506        0.26323855
     228         -0.423100        1.000000        0.00154397        0.09916115        0.10141747        0.42851460
     229         -0.423051        1.000000        0.00177412        0.10548834        0.28223352        0.25452745
     230         -0.422611        1.000000        0.00262857        0.32046721        0.09177042        0.24113569
     231         -0.422245        1.000000        0.00233019        0.21229688        0.29418729        0.14145438
     232         -0.421917        1.000000        0.00247781        0.18632730        0.28614245        0.17455684
     233         -0.421762        1.000000        0.00144938        0.06837504        0.54372321        0.03701155
     234         -0.420969        1.000000        0.00321173        0.25953343        0.03471351        0.35028858
     235         -0.419445        1.000000        0.00381405        0.27152687        0.11847490        0.25866088
     236         -0.419212        1.000000        0.00415260        0.26932303        0.16260593        0.21499370
     237         -0.419081        1.000000        0.00261738        0.26051846        0.16638203        0.22472665
     238         -0.418421        1.000000        0.00402676        0.04305510        0.28235565        0.32386453
     239         -0.417458        1.000000        0.00292083        0.08953866        0.39529176        0.14837998
     240         -0.416771        1.000000        0.00057928        0.31833659        0.01067308        0.29202680
     241         -0.416414        1.000000        0.00877056        0.08557865        0.16921665        0.39257426
     242         -0.416042        1.000000        0.00178417        0.38518184        0.08655976        0.17640290
     243         -0.413749        1.000000        0.00220731        0.13587008        0.22202937        0.24945107
     244         -0.413677        1.000000        0.00224308        0.13625692        0.21841822        0.25271557
     245         -0.413585        1.000000        0.00116503        0.03121957        0.09195012        0.21151436
     246         -0.412338        1.000000        0.00722610        0.28302608        0.10986850        0.26380955
     247         -0.412252        1.000000        0.00426784        0.00576719        0.50441157        0.13308683
     248         -0.412013        1.000000        0.00258196        0.02964441        0.37089187        0.19145999
     249         -0.409644        1.000000        0.00726453        0.25624842        0.17623841        0.20713613
     250         -0.409545        1.000000        0.00643496        0.36193112        0.07321738        0.16896052
     251         -0.409124        1.000000        0.00364077        0.09452302        0.34557983        0.17742303
     252         -0.408735        1.000000        0.00685570        0.16581493        0.35777401        0.11312634
     253         -0.408574        1.000000        0.00170872        0.11626160        0.25145857        0.17567272
     254         -0.408396        1.000000        0.00321325        0.21298037        0.09060436        0.30582872
     255         -0.408087        1.000000        0.00325591        0.18979236        0.21970353        0.11269452
     256         -0.407736        1.000000        0.00138117        0.06882291        0.08817486        0.06272975
     257         -0.407632        1.000000        0.00226019        0.24150354        0.02795974        0.38929452
     258         -0.407523        1.000000        0.00597162        0.12112476        0.28743370        0.16574807
     259         -0.406730        1.000000        0.00199780        0.06556602        0.10749557        0.12254465