# Projected DOS for atomic kind Pb at iteration step i = 0, E(Fermi) =    -0.116764 a.u.
#     MO Eigenvalue [a.u.]      Occupation                 s                py                pz                px
       1         -0.922699        1.000000        0.00000005        0.00000035        0.00000000        0.00000004
       2         -0.917641        1.000000        0.00000006        0.00000036        0.00000011        0.00000003
       3         -0.906124        1.000000        0.00000004        0.00000046        0.00000038        0.00000018
       4         -0.904902        1.000000        0.00000003        0.00000023        0.00000005        0.00000005
       5         -0.903713        1.000000        0.00000005        0.00000056        0.00000009        0.00000039
       6         -0.899852        1.000000        0.00000017        0.00000000        0.00000061        0.00000000
       7         -0.898242        1.000000        0.00000007        0.00000043        0.00000010        0.00000007
       8         -0.894338        1.000000        0.00000031        0.00000003        0.00000002        0.00000174
       9         -0.893498        1.000000        0.00000000        0.00000009        0.00000021        0.00000033
      10         -0.891588        1.000000        0.00000038        0.00000591        0.00000109        0.00000414
      11         -0.890701        1.000000        0.00000016        0.00000004        0.00000041        0.00000107
      12         -0.889710        1.000000        0.00000023        0.00000022        0.00000001        0.00000139
      13         -0.889305        1.000000        0.00000017        0.00000106        0.00000105        0.00000019
      14         -0.885872        1.000000        0.00000028        0.00000489        0.00000331        0.00000114
      15         -0.883268        1.000000        0.00000009        0.00000000        0.00000000        0.00000067
      16         -0.881401        1.000000        0.00000027        0.00000086        0.00000223        0.00000185
      17         -0.880007        1.000000        0.00000012        0.00000015        0.00000035        0.00000098
      18         -0.879932        1.000000        0.00000254        0.00001684        0.00004722        0.00001093
      19         -0.879195        1.000000        0.00000016        0.00000008        0.00000001        0.00000068
      20         -0.877120        1.000000        0.00000022        0.00000009        0.00000000        0.00000075
      21         -0.876881        1.000000        0.00000052        0.00000514        0.00000454        0.00000251
      22         -0.876777        1.000000        0.00000014        0.00000147        0.00000046        0.00000359
      23         -0.876591        1.000000        0.00000003        0.00000007        0.00000120        0.00000021
      24         -0.875751        1.000000        0.00000023        0.00000097        0.00000006        0.00000002
      25         -0.874593        1.000000        0.00000019        0.00000002        0.00000160        0.00000100
      26         -0.874284        1.000000        0.00000043        0.00000471        0.00000489        0.00000231
      27         -0.872413        1.000000        0.00000010        0.00000308        0.00000000        0.00000044
      28         -0.872372        1.000000        0.00000006        0.00000000        0.00000023        0.00000000
      29         -0.871916        1.000000        0.00000004        0.00000012        0.00000000        0.00000011
      30         -0.871678        1.000000        0.00000006        0.00000025        0.00000048        0.00000014
      31         -0.870522        1.000000        0.00000030        0.00000247        0.00000319        0.00000071
      32         -0.869366        1.000000        0.00000109        0.00000301        0.00001585        0.00000333
      33         -0.868389        1.000000        0.00000003        0.00000001        0.00000004        0.00000033
      34         -0.866452        1.000000        0.00000011        0.00000039        0.00000006        0.00000048
      35         -0.866010        1.000000        0.00000006        0.00000040        0.00000002        0.00000028
      36         -0.863358        1.000000        0.00000005        0.00000209        0.00000080        0.00000021
      37         -0.863143        1.000000        0.00000013        0.00000001        0.00000069        0.00000000
      38         -0.862888        1.000000        0.00000017        0.00000010        0.00000086        0.00000028
      39         -0.860434        1.000000        0.00000003        0.00000021        0.00000003        0.00000003
      40         -0.857996        1.000000        0.00000008        0.00000016        0.00000025        0.00000041
      41         -0.857579        1.000000        0.00000062        0.00000515        0.00000649        0.00000153
      42         -0.857446        1.000000        0.00000001        0.00000001        0.00000000        0.00000004
      43         -0.857346        1.000000        0.00000009        0.00000026        0.00000092        0.00000071
      44         -0.856561        1.000000        0.00000024        0.00000000        0.00000092        0.00000000
      45         -0.854810        1.000000        0.00000022        0.00000141        0.00000170        0.00000004
      46         -0.854427        1.000000        0.00000001        0.00000001        0.00000002        0.00000001
      47         -0.853396        1.000000        0.00000004        0.00000117        0.00000034        0.00000152
      48         -0.852822        1.000000        0.00000017        0.00000038        0.00000017        0.00000085
      49         -0.852666        1.000000        0.00000084        0.00000076        0.00000680        0.00000733
      50         -0.852067        1.000000        0.00000028        0.00000039        0.00000120        0.00000245
      51         -0.850804        1.000000        0.00000039        0.00000001        0.00000025        0.00000577
      52         -0.849750        1.000000        0.00000003        0.00000030        0.00000199        0.00000056
      53         -0.849405        1.000000        0.00000025        0.00000078        0.00000215        0.00000122
      54         -0.849125        1.000000        0.00000037        0.00000195        0.00000355        0.00000276
      55         -0.848775        1.000000        0.00000031        0.00000114        0.00000032        0.00000149
      56         -0.848644        1.000000        0.00000706        0.00004785        0.00006895        0.00000270
      57         -0.847424        1.000000        0.00000029        0.00000070        0.00000206        0.00000030
      58         -0.846387        1.000000        0.00000009        0.00000041        0.00000071        0.00000089
      59         -0.846164        1.000000        0.00000016        0.00000017        0.00000062        0.00000013
      60         -0.845140        1.000000        0.00000001        0.00000053        0.00000064        0.00000000
      61         -0.842213        1.000000        0.00000003        0.00000010        0.00000025        0.00000019
      62         -0.841325        1.000000        0.00000007        0.00000002        0.00000003        0.00000027
      63         -0.840938        1.000000        0.00000018        0.00000002        0.00000061        0.00000127
      64         -0.840316        1.000000        0.00000000        0.00000007        0.00000001        0.00000006
      65         -0.837347        1.000000        0.00000022        0.00000202        0.00000624        0.00000234
      66         -0.836774        1.000000        0.00000024        0.00000021        0.00000061        0.00000017
      67         -0.836618        1.000000        0.00000052        0.00000188        0.00000174        0.00000024
      68         -0.836244        1.000000        0.00000039        0.00000008        0.00000251        0.00000041
      69         -0.836132        1.000000        0.00000013        0.00000014        0.00000012        0.00000100
      70         -0.832962        1.000000        0.00000023        0.00000003        0.00000016        0.00000273
      71         -0.832653        1.000000        0.00000012        0.00000086        0.00000095        0.00000037
      72         -0.832255        1.000000        0.00000003        0.00000012        0.00000004        0.00000004
      73         -0.832159        1.000000        0.00000052        0.00000254        0.00000073        0.00000053
      74         -0.831851        1.000000        0.00000000        0.00000398        0.00000006        0.00000011
      75         -0.831670        1.000000        0.00000026        0.00000239        0.00000530        0.00000183
      76         -0.831196        1.000000        0.00000024        0.00000007        0.00000127        0.00000109
      77         -0.829301        1.000000        0.00000016        0.00000000        0.00000098        0.00000098
      78         -0.828871        1.000000        0.00000023        0.00000010        0.00000072        0.00000036
      79         -0.828664        1.000000        0.00000011        0.00000003        0.00000016        0.00000009
      80         -0.824925        1.000000        0.00000069        0.00000244        0.00000292        0.00000209
      81         -0.824857        1.000000        0.00000011        0.00000216        0.00000246        0.00000179
      82         -0.822222        1.000000        0.00000003        0.00000068        0.00000079        0.00000034
      83         -0.822055        1.000000        0.00000064        0.00000121        0.00000262        0.00000048
      84         -0.821146        1.000000        0.00000017        0.00000030        0.00000008        0.00000094
      85         -0.819650        1.000000        0.00000007        0.00000032        0.00000044        0.00000063
      86         -0.819152        1.000000        0.00000042        0.00000075        0.00000401        0.00000420
      87         -0.818879        1.000000        0.00000014        0.00000096        0.00000009        0.00000017
      88         -0.818088        1.000000        0.00000034        0.00000104        0.00000244        0.00000056
      89         -0.817863        1.000000        0.00000008        0.00000056        0.00000007        0.00000005
      90         -0.816869        1.000000        0.00000034        0.00000008        0.00000101        0.00000005
      91         -0.816614        1.000000        0.00000005        0.00000034        0.00000005        0.00000004
      92         -0.815911        1.000000        0.00000097        0.00000076        0.00000425        0.00000030
      93         -0.814258        1.000000        0.00000003        0.00000011        0.00000019        0.00000003
      94         -0.813940        1.000000        0.00000010        0.00000001        0.00000026        0.00000017
      95         -0.813826        1.000000        0.00000024        0.00000145        0.00000156        0.00000100
      96         -0.813378        1.000000        0.00000028        0.00000010        0.00000284        0.00000256
      97         -0.812915        1.000000        0.00000047        0.00000265        0.00000119        0.00000253
      98         -0.810034        1.000000        0.00000006        0.00000066        0.00000031        0.00000004
      99         -0.808765        1.000000        0.00000002        0.00000008        0.00000002        0.00000012
     100         -0.805820        1.000000        0.00000017        0.00000003        0.00000003        0.00000081
     101         -0.805599        1.000000        0.00000014        0.00000051        0.00000015        0.00000002
     102         -0.804598        1.000000        0.00000006        0.00000035        0.00000054        0.00000009
     103         -0.803423        1.000000        0.00000038        0.00000150        0.00000034        0.00000017
     104         -0.803070        1.000000        0.00000033        0.00000120        0.00000254        0.00000120
     105         -0.802991        1.000000        0.00000016        0.00000003        0.00000020        0.00000017
     106         -0.801788        1.000000        0.00000016        0.00000151        0.00000057        0.00000019
     107         -0.801345        1.000000        0.00000101        0.00001123        0.00000261        0.00000064
     108         -0.800279        1.000000        0.00000015        0.00000021        0.00000122        0.00000020
     109         -0.798102        1.000000        0.00000002        0.00000002        0.00000008        0.00000008
     110         -0.797862        1.000000        0.00000020        0.00000001        0.00000185        0.00000024
     111         -0.797099        1.000000        0.00000025        0.00000183        0.00000061        0.00000049
     112         -0.796561        1.000000        0.00000355        0.00000004        0.00001425        0.00000083
     113         -0.795982        1.000000        0.00000001        0.00000002        0.00000010        0.00000002
     114         -0.794971        1.000000        0.00000006        0.00000069        0.00000032        0.00000012
     115         -0.794373        1.000000        0.00000008        0.00000053        0.00000073        0.00000019
     116         -0.792876        1.000000        0.00000007        0.00000005        0.00000003        0.00000031
     117         -0.790343        1.000000        0.00000058        0.00000039        0.00000177        0.00000995
     118         -0.788945        1.000000        0.00000003        0.00000028        0.00000003        0.00000004
     119         -0.785873        1.000000        0.00000002        0.00000006        0.00000001        0.00000005
     120         -0.776631        1.000000        0.00000009        0.00000110        0.00000077        0.00000021
     121         -0.767026        1.000000        0.00000008        0.00000083        0.00000019        0.00000010
     122         -0.758609        1.000000        0.00000015        0.00000054        0.00000007        0.00000001
     123         -0.723550        1.000000        0.00000027        0.00000110        0.00000000        0.00000010
     124         -0.701849        1.000000        0.00000003        0.00000002        0.00000001        0.00000071
     125         -0.628674        1.000000        0.00003909        0.00002967        0.00008365        0.00004252
     126         -0.626936        1.000000        0.00003598        0.00003061        0.00002584        0.00001105
     127         -0.619795        1.000000        0.00001481        0.00002084        0.00001462        0.00000211
     128         -0.616088        1.000000        0.00001728        0.00002804        0.00002258        0.00000821
     129         -0.604832        1.000000        0.00004098        0.00002773        0.00003098        0.00002132
     130         -0.578200        1.000000        0.00016274        0.00006516        0.00007818        0.00004628
     131         -0.569977        1.000000        0.00155391        0.00005537        0.00010609        0.00111859
     132         -0.563397        1.000000        0.00023374        0.00005076        0.00002461        0.00008623
     133         -0.542976        1.000000        0.07708920        0.00027095        0.00562347        0.00058890
     134         -0.540041        1.000000        0.05172423        0.00049055        0.00674798        0.00063490
     135         -0.538854        1.000000        0.02456365        0.00153304        0.00017585        0.00367893
     136         -0.535177        1.000000        0.12677521        0.00054053        0.00440847        0.00523700
     137         -0.532326        1.000000        0.05963403        0.00163055        0.01697182        0.00399258
     138         -0.531692        1.000000        0.05217937        0.00069300        0.01978873        0.00598284
     139         -0.531348        1.000000        0.05332572        0.00204818        0.01683111        0.00928564
     140         -0.529638        1.000000        0.07099928        0.00179293        0.01365216        0.00280064
     141         -0.527535        1.000000        0.06017454        0.00266627        0.01472890        0.00345868
     142         -0.525232        1.000000        0.04432914        0.00153528        0.01076755        0.01132366
     143         -0.522620        1.000000        0.00235762        0.00093370        0.00094078        0.00746349
     144         -0.522063        1.000000        0.01386036        0.00076361        0.00775243        0.01531503
     145         -0.521571        1.000000        0.00794383        0.00060070        0.01885365        0.01132814
     146         -0.521407        1.000000        0.00662983        0.01004835        0.00826785        0.00274212
     147         -0.519624        1.000000        0.03963888        0.00424647        0.01934493        0.00812530
     148         -0.518940        1.000000        0.00570124        0.00266426        0.00879521        0.02042256
     149         -0.517590        1.000000        0.00824329        0.01378261        0.00901871        0.00757846
     150         -0.517138        1.000000        0.05347107        0.00480185        0.00338698        0.01182069
     151         -0.516841        1.000000        0.01389324        0.01096611        0.00611982        0.00281918
     152         -0.514868        1.000000        0.03791513        0.00639256        0.00215645        0.01278606
     153         -0.513645        1.000000        0.00742491        0.00131517        0.00466039        0.02101664
     154         -0.513369        1.000000        0.00658869        0.00919802        0.00262664        0.00078436
     155         -0.512315        1.000000        0.01518174        0.01164059        0.00550730        0.00656517
     156         -0.512010        1.000000        0.00359841        0.02435432        0.00028409        0.00735103
     157         -0.510582        1.000000        0.00401644        0.02123225        0.00317611        0.00232751
     158         -0.508406        1.000000        0.01036560        0.00265455        0.00168256        0.03312393
     159         -0.507899        1.000000        0.00654608        0.01077476        0.00285613        0.00417876
     160         -0.507096        1.000000        0.01413365        0.01245232        0.01176073        0.00347355
     161         -0.505756        1.000000        0.00342266        0.02829090        0.00248824        0.00186131
     162         -0.504544        1.000000        0.00357645        0.02051862        0.00221398        0.00772366
     163         -0.503456        1.000000        0.00481650        0.00636919        0.00152208        0.00499626
     164         -0.501924        1.000000        0.01461757        0.00347597        0.00443469        0.00253967
     165         -0.501458        1.000000        0.00491295        0.00212032        0.01805455        0.00151186
     166         -0.501052        1.000000        0.00169128        0.00512573        0.00269714        0.01237463
     167         -0.500437        1.000000        0.00471689        0.00665553        0.01183179        0.00378139
     168         -0.498709        1.000000        0.00363234        0.00151286        0.00086831        0.00090177
     169         -0.498006        1.000000        0.00228420        0.00292302        0.00168002        0.00057973
     170         -0.493542        1.000000        0.00102361        0.00245062        0.00192257        0.00111836
     171         -0.490900        1.000000        0.00514880        0.00230570        0.00071105        0.00046723
     172         -0.489613        1.000000        0.00323823        0.00037159        0.00323582        0.00048282
     173         -0.489299        1.000000        0.00559299        0.00297260        0.00145623        0.00021397
     174         -0.485619        1.000000        0.00527133        0.00467205        0.00053432        0.00061920
     175         -0.483291        1.000000        0.00513193        0.00377743        0.00037449        0.00047535
     176         -0.481203        1.000000        0.00153711        0.00114122        0.00000162        0.00003356
     177         -0.481028        1.000000        0.00032942        0.00004326        0.00000797        0.00010960
     178         -0.477279        1.000000        0.00019124        0.00014019        0.00000014        0.00000278
     179         -0.467260        1.000000        0.00035576        0.00000047        0.00001568        0.00014593
     180         -0.465086        1.000000        0.00155878        0.00071024        0.00000646        0.00004415
     181         -0.464208        1.000000        0.00022477        0.00008709        0.00000112        0.00001209
     182         -0.462535        1.000000        0.00158577        0.00000201        0.00018263        0.00019733
     183         -0.462082        1.000000        0.00068893        0.00036681        0.00000585        0.00000726
     184         -0.456549        1.000000        0.00012622        0.00000037        0.00004673        0.00000577
     185         -0.453958        1.000000        0.00041474        0.00000099        0.00007701        0.00000445
     186         -0.453559        1.000000        0.00015043        0.00002918        0.00000022        0.00000157
     187         -0.452925        1.000000        0.00019785        0.00000615        0.00001956        0.00000534
     188         -0.451295        1.000000        0.00121238        0.00002357        0.00012753        0.00005314
     189         -0.450827        1.000000        0.00025533        0.00036030        0.00000015        0.00002434
     190         -0.449471        1.000000        0.00265593        0.00003038        0.00004599        0.00052567
     191         -0.449319        1.000000        0.00094523        0.00024996        0.00001244        0.00004377
     192         -0.448502        1.000000        0.00346537        0.00004361        0.00033405        0.00080073
     193         -0.447004        1.000000        0.00013629        0.00000531        0.00000240        0.00001518
     194         -0.445535        1.000000        0.00048645        0.00011691        0.00009073        0.00000959
     195         -0.445249        1.000000        0.00179080        0.00000284        0.00005073        0.00041518
     196         -0.445015        1.000000        0.00017034        0.00000444        0.00000392        0.00002948
     197         -0.444310        1.000000        0.00315757        0.00007113        0.00000546        0.00057024
     198         -0.443027        1.000000        0.00028490        0.00000271        0.00000307        0.00003725
     199         -0.442179        1.000000        0.00033501        0.00027925        0.00000730        0.00024653
     200         -0.441508        1.000000        0.00020012        0.00000350        0.00000854        0.00000647
     201         -0.441420        1.000000        0.00049974        0.00003274        0.00008675        0.00002355
     202         -0.439313        1.000000        0.00069138        0.00000396        0.00000608        0.00009771
     203         -0.437975        1.000000        0.00235014        0.00039385        0.00001893        0.00000734
     204         -0.435761        1.000000        0.00004498        0.00000055        0.00000479        0.00000042
     205         -0.435046        1.000000        0.00079610        0.00000405        0.00000133        0.00008079
     206         -0.434007        1.000000        0.00148499        0.00002936        0.00001698        0.00004476
     207         -0.432982        1.000000        0.01387539        0.00001603        0.00001056        0.00044672
     208         -0.432814        1.000000        0.00094306        0.00000298        0.00008443        0.00007212
     209         -0.432720        1.000000        0.00296011        0.00000813        0.00017070        0.00027881
     210         -0.431727        1.000000        0.00016440        0.00000163        0.00000249        0.00000553
     211         -0.431595        1.000000        0.00117783        0.00002151        0.00000438        0.00008144
     212         -0.430742        1.000000        0.00264649        0.00018499        0.00008902        0.00000526
     213         -0.430564        1.000000        0.00075976        0.00000279        0.00000737        0.00004518
     214         -0.430404        1.000000        0.00101473        0.00000373        0.00004834        0.00000247
     215         -0.429155        1.000000        0.00042404        0.00003936        0.00001696        0.00000911
     216         -0.428831        1.000000        0.00020994        0.00000738        0.00000139        0.00001669
     217         -0.428331        1.000000        0.00421370        0.00003113        0.00011827        0.00000295
     218         -0.428157        1.000000        0.00000742        0.00000001        0.00000080        0.00000007
     219         -0.427798        1.000000        0.00451252        0.00001876        0.00001258        0.00023796
     220         -0.427419        1.000000        0.00012085        0.00000264        0.00000862        0.00000280
     221         -0.425718        1.000000        0.00032668        0.00003494        0.00001710        0.00000066
     222         -0.425552        1.000000        0.00016676        0.00000864        0.00000676        0.00005830
     223         -0.424168        1.000000        0.00066803        0.00001195        0.00000308        0.00000974
     224         -0.424136        1.000000        0.00024619        0.00000214        0.00001149        0.00000282
     225         -0.423925        1.000000        0.00101279        0.00000369        0.00000150        0.00002296
     226         -0.423712        1.000000        0.01410480        0.00001653        0.00002613        0.00020696
     227         -0.423536        1.000000        0.00296743        0.00000873        0.00000445        0.00013250
     228         -0.423112        1.000000        0.00119918        0.00000426        0.00027330        0.00010811
     229         -0.423069        1.000000        0.00096837        0.00005167        0.00000310        0.00000590
     230         -0.422543        1.000000        0.00002011        0.00000054        0.00000123        0.00000056
     231         -0.422259        1.000000        0.00038790        0.00000333        0.00003391        0.00003449
     232         -0.421830        1.000000        0.00088192        0.00003151        0.00000348        0.00000179
     233         -0.421705        1.000000        0.00291152        0.00004621        0.00000460        0.00004754
     234         -0.420988        1.000000        0.00734010        0.00005394        0.00003367        0.00001414
     235         -0.419480        1.000000        0.00098536        0.00000225        0.00000128        0.00002814
     236         -0.419282        1.000000        0.00137923        0.00000612        0.00000479        0.00000912
     237         -0.419058        1.000000        0.00023050        0.00000139        0.00000324        0.00000147
     238         -0.418417        1.000000        0.00160035        0.00000458        0.00015209        0.00002396
     239         -0.417533        1.000000        0.00209634        0.00000212        0.00000229        0.00000580
     240         -0.416798        1.000000        0.00065326        0.00000241        0.00000551        0.00000202
     241         -0.416443        1.000000        0.00333983        0.00005215        0.00003809        0.00001787
     242         -0.416067        1.000000        0.00240281        0.00000711        0.00001685        0.00000460
     243         -0.413800        1.000000        0.00298716        0.00001799        0.00001777        0.00000182
     244         -0.413723        1.000000        0.00232332        0.00000960        0.00001368        0.00000035
     245         -0.413484        1.000000        0.00418235        0.00001084        0.00002799        0.00000208
     246         -0.412383        1.000000        0.01117133        0.00004468        0.00005671        0.00000999
     247         -0.412359        1.000000        0.00003406        0.00000012        0.00000073        0.00000455
     248         -0.411962        1.000000        0.00146036        0.00000375        0.00000459        0.00000215
     249         -0.409583        1.000000        0.00126575        0.00000568        0.00002022        0.00004931
     250         -0.409526        1.000000        0.01644063        0.00001742        0.00001356        0.00003108
     251         -0.409195        1.000000        0.00132745        0.00003266        0.00000820        0.00005559
     252         -0.408624        1.000000        0.03659959        0.00009636        0.00031943        0.00002082
     253         -0.408515        1.000000        0.01453352        0.00000385        0.00002498        0.00011863
     254         -0.408265        1.000000        0.00350972        0.00001075        0.00000675        0.00002029
     255         -0.408098        1.000000        0.02852759        0.00003485        0.00006608        0.00018200
     256         -0.407731        1.000000        0.01045438        0.00008874        0.00008398        0.00006910
     257         -0.407659        1.000000        0.00026951        0.00001320        0.00000380        0.00001598
     258         -0.407521        1.000000        0.03291335        0.00003785        0.00007294        0.00012356
     259         -0.406818        1.000000        0.03340417        0.00000794        0.00003641        0.00002479