# Projected DOS for atomic kind N at iteration step i = 0, E(Fermi) =    -0.114860 a.u.
#     MO Eigenvalue [a.u.]      Occupation                 s                py                pz                px
       1         -0.922692        1.000000        0.00000020        0.00000001        0.00000000        0.00000003
       2         -0.917627        1.000000        0.00001008        0.00000048        0.00000001        0.00000079
       3         -0.906110        1.000000        0.00011221        0.00000254        0.00000000        0.00000222
       4         -0.904885        1.000000        0.00002027        0.00000080        0.00000012        0.00000111
       5         -0.903702        1.000000        0.00000000        0.00000000        0.00000000        0.00000000
       6         -0.899845        1.000000        0.00000027        0.00000000        0.00000000        0.00000000
       7         -0.898240        1.000000        0.00000000        0.00000000        0.00000000        0.00000000
       8         -0.894362        1.000000        0.00000001        0.00000000        0.00000000        0.00000000
       9         -0.893486        1.000000        0.00043030        0.00000911        0.00000106        0.00000034
      10         -0.891576        1.000000        0.00000002        0.00000000        0.00000000        0.00000000
      11         -0.890703        1.000000        0.00000120        0.00000001        0.00000001        0.00000001
      12         -0.889763        1.000000        0.00001643        0.00000019        0.00000012        0.00000018
      13         -0.889291        1.000000        0.00201252        0.00000849        0.00000088        0.00000353
      14         -0.885852        1.000000        0.00000000        0.00000000        0.00000000        0.00000000
      15         -0.883197        1.000000        0.00000000        0.00000000        0.00000000        0.00000000
      16         -0.881382        1.000000        0.00000004        0.00000000        0.00000000        0.00000000
      17         -0.880015        1.000000        0.01217776        0.00001085        0.00000844        0.00003559
      18         -0.879951        1.000000        0.60175998        0.00001473        0.00007964        0.00009693
      19         -0.879170        1.000000        0.02406178        0.00013973        0.00007299        0.00012124
      20         -0.877105        1.000000        0.00002280        0.00000000        0.00000000        0.00000005
      21         -0.876787        1.000000        0.60951989        0.00000060        0.00004475        0.00010763
      22         -0.876736        1.000000        0.00000818        0.00000003        0.00000000        0.00000001
      23         -0.876579        1.000000        0.00000089        0.00000000        0.00000000        0.00000000
      24         -0.875725        1.000000        0.00002743        0.00000000        0.00000000        0.00000001
      25         -0.874600        1.000000        0.00003004        0.00000002        0.00000001        0.00000002
      26         -0.874304        1.000000        0.61488266        0.00000342        0.00001967        0.00023279
      27         -0.872525        1.000000        0.00001120        0.00000035        0.00000007        0.00000048
      28         -0.872333        1.000000        0.00000002        0.00000000        0.00000001        0.00000002
      29         -0.871832        1.000000        0.00000010        0.00000211        0.00000008        0.00000000
      30         -0.871670        1.000000        0.00000094        0.00000000        0.00000001        0.00000000
      31         -0.870538        1.000000        0.60916180        0.00000880        0.00000156        0.00001834
      32         -0.869242        1.000000        0.00128666        0.00000101        0.00000156        0.00000002
      33         -0.868352        1.000000        0.00256235        0.00019118        0.00000011        0.00002198
      34         -0.866436        1.000000        0.00005534        0.00002696        0.00004489        0.00000542
      35         -0.865981        1.000000        0.00007964        0.00009195        0.00006308        0.00000182
      36         -0.863345        1.000000        0.00000001        0.00000000        0.00000000        0.00000000
      37         -0.863131        1.000000        0.00173236        0.00001322        0.00004012        0.00000786
      38         -0.862703        1.000000        0.00003883        0.00000006        0.00000027        0.00000005
      39         -0.860572        1.000000        0.00040826        0.00000822        0.00000267        0.00002210
      40         -0.857948        1.000000        0.00036389        0.00016678        0.00002640        0.00000235
      41         -0.857428        1.000000        0.00011006        0.00000001        0.00000004        0.00000137
      42         -0.857332        1.000000        0.00000008        0.00000000        0.00000000        0.00000000
      43         -0.856784        1.000000        0.00080584        0.00000003        0.00001486        0.00000177
      44         -0.856457        1.000000        0.00000923        0.00000000        0.00000000        0.00000052
      45         -0.854811        1.000000        0.00001260        0.00000000        0.00000005        0.00000001
      46         -0.854408        1.000000        0.00000027        0.00000000        0.00000001        0.00000000
      47         -0.853512        1.000000        0.00000345        0.00000003        0.00000002        0.00000003
      48         -0.852822        1.000000        0.00000002        0.00000000        0.00000000        0.00000000
      49         -0.852658        1.000000        0.02791959        0.00000009        0.00001874        0.00000167
      50         -0.852013        1.000000        0.10920895        0.00004090        0.00000108        0.00000138
      51         -0.850802        1.000000        0.00000565        0.00000001        0.00000000        0.00000016
      52         -0.849745        1.000000        0.02444054        0.00001926        0.00005159        0.00000096
      53         -0.849365        1.000000        0.00000307        0.00000001        0.00000002        0.00000002
      54         -0.849170        1.000000        0.00000002        0.00000000        0.00000000        0.00000000
      55         -0.848746        1.000000        0.00262914        0.00000224        0.00000008        0.00000023
      56         -0.848558        1.000000        0.00001095        0.00000004        0.00000048        0.00000006
      57         -0.846749        1.000000        0.00022522        0.00000154        0.00001209        0.00000132
      58         -0.846357        1.000000        0.24687075        0.00008528        0.00007619        0.00004241
      59         -0.846152        1.000000        0.03462475        0.00001843        0.00025256        0.00004112
      60         -0.845081        1.000000        0.00030775        0.00000006        0.00000016        0.00000008
      61         -0.842237        1.000000        0.00244846        0.00002427        0.00001019        0.00000184
      62         -0.841297        1.000000        0.00001386        0.00000000        0.00000001        0.00000073
      63         -0.840918        1.000000        0.00000001        0.00000000        0.00000000        0.00000000
      64         -0.840429        1.000000        0.00003655        0.00000000        0.00000007        0.00000002
      65         -0.837764        1.000000        0.00004896        0.00000040        0.00000010        0.00000016
      66         -0.837395        1.000000        0.00001827        0.00000003        0.00000003        0.00000001
      67         -0.836470        1.000000        0.00000105        0.00000000        0.00000000        0.00000009
      68         -0.836239        1.000000        0.01638925        0.00002069        0.00002197        0.00000001
      69         -0.836027        1.000000        0.15999499        0.00000239        0.00057337        0.00017668
      70         -0.835796        1.000000        0.00003471        0.00000122        0.00000328        0.00000004
      71         -0.832959        1.000000        0.00002111        0.00000005        0.00000005        0.00000242
      72         -0.832479        1.000000        0.00002050        0.00000051        0.00000052        0.00000046
      73         -0.832190        1.000000        0.00198090        0.00000098        0.00001251        0.00000372
      74         -0.831662        1.000000        0.03736620        0.00000829        0.00001936        0.00000437
      75         -0.831483        1.000000        0.00001714        0.00000001        0.00000003        0.00000001
      76         -0.830608        1.000000        0.00000872        0.00000056        0.00000095        0.00000002
      77         -0.829334        1.000000        0.00010562        0.00000212        0.00000228        0.00000168
      78         -0.828869        1.000000        0.00045221        0.00000038        0.00000002        0.00000021
      79         -0.828449        1.000000        0.00014506        0.00000086        0.00000042        0.00000006
      80         -0.824982        1.000000        0.00004055        0.00000013        0.00000009        0.00000002
      81         -0.824847        1.000000        0.08937148        0.00000045        0.00000101        0.00008218
      82         -0.822145        1.000000        0.00012505        0.00000023        0.00000019        0.00000160
      83         -0.821096        1.000000        0.00181895        0.00000272        0.00003268        0.00000629
      84         -0.820676        1.000000        0.00000118        0.00000000        0.00000002        0.00000001
      85         -0.819619        1.000000        0.00050395        0.00000046        0.00000059        0.00000235
      86         -0.819126        1.000000        0.00000054        0.00000000        0.00000000        0.00000000
      87         -0.818832        1.000000        0.00000200        0.00000000        0.00000000        0.00000000
      88         -0.818312        1.000000        0.00021224        0.00000001        0.00000023        0.00000054
      89         -0.818100        1.000000        0.01026657        0.00000704        0.00001004        0.00001179
      90         -0.817049        1.000000        0.01202538        0.00000105        0.00001759        0.00003611
      91         -0.816740        1.000000        0.00228888        0.00000634        0.00000456        0.00000209
      92         -0.815505        1.000000        0.00001043        0.00000003        0.00000003        0.00000012
      93         -0.814243        1.000000        0.01224752        0.00000799        0.00002672        0.00004643
      94         -0.813825        1.000000        0.00000078        0.00000109        0.00000004        0.00000043
      95         -0.813810        1.000000        0.13955996        0.00009820        0.00032844        0.00055143
      96         -0.813556        1.000000        0.00047529        0.00000034        0.00000112        0.00000189
      97         -0.811908        1.000000        0.00000364        0.00000018        0.00000004        0.00000003
      98         -0.811863        1.000000        0.00000252        0.00000284        0.00000018        0.00000094
      99         -0.810282        1.000000        0.00006946        0.00000000        0.00000001        0.00000004
     100         -0.810265        1.000000        0.00378559        0.00000002        0.00000011        0.00000180
     101         -0.808751        1.000000        0.00084089        0.00000113        0.00000001        0.00000407
     102         -0.805813        1.000000        0.00060023        0.00000065        0.00000002        0.00000003
     103         -0.805112        1.000000        0.08720824        0.00010323        0.00000033        0.00000249
     104         -0.803053        1.000000        0.20020342        0.00050955        0.00179564        0.00181498
     105         -0.801879        1.000000        0.00026223        0.00000360        0.00000159        0.00000279
     106         -0.801484        1.000000        0.01113998        0.00002476        0.00000143        0.00000242
     107         -0.800129        1.000000        0.00004502        0.00000059        0.00000025        0.00000122
     108         -0.799646        1.000000        0.00000000        0.00000000        0.00000000        0.00000000
     109         -0.798090        1.000000        0.00040155        0.00002119        0.00000292        0.00000481
     110         -0.797914        1.000000        0.00206405        0.00000796        0.00000073        0.00000089
     111         -0.797215        1.000000        0.20561054        0.00083241        0.00009403        0.00014835
     112         -0.795764        1.000000        0.00000022        0.00000000        0.00000001        0.00000002
     113         -0.794971        1.000000        0.09619024        0.00051298        0.00006715        0.00010807
     114         -0.794355        1.000000        0.05307334        0.00026132        0.00095136        0.00078872
     115         -0.792865        1.000000        0.00003201        0.00000018        0.00000004        0.00000082
     116         -0.790275        1.000000        0.00000006        0.00000000        0.00000001        0.00000002
     117         -0.789304        1.000000        0.00851820        0.00005368        0.00002255        0.00008292
     118         -0.785858        1.000000        0.00000285        0.00000000        0.00000000        0.00000087
     119         -0.782760        1.000000        0.00004754        0.00000068        0.00000301        0.00000055
     120         -0.777688        1.000000        0.10607904        0.00216148        0.00045759        0.00111103
     121         -0.768388        1.000000        0.05632956        0.00193782        0.00037088        0.00101262
     122         -0.760073        1.000000        0.00014641        0.00000000        0.00002818        0.00003226
     123         -0.702595        1.000000        0.00000000        0.00000000        0.00000000        0.00000000
     124         -0.679695        1.000000        0.00000235        0.00000166        0.00000027        0.00000057
     125         -0.628691        1.000000        0.01758268        0.00000015        0.00829526        0.17977455
     126         -0.626815        1.000000        0.01716267        0.00037572        0.00327751        0.18446156
     127         -0.619785        1.000000        0.01851507        0.00131938        0.00377067        0.18456734
     128         -0.616088        1.000000        0.01497194        0.00004347        0.02589031        0.16914815
     129         -0.604808        1.000000        0.02371854        0.00090448        0.00428989        0.16288771
     130         -0.578209        1.000000        0.02429886        0.01727617        0.08420641        0.06495209
     131         -0.569905        1.000000        0.00000137        0.00014821        0.00005245        0.00007469
     132         -0.563380        1.000000        0.02858547        0.00000966        0.08010063        0.07671713
     133         -0.540437        1.000000        0.00042137        0.02647388        0.00454445        0.00018000
     134         -0.537544        1.000000        0.00081051        0.02330324        0.00318085        0.00038061
     135         -0.535460        1.000000        0.00016823        0.00549881        0.00548563        0.00037392
     136         -0.533739        1.000000        0.00075576        0.03955976        0.00198346        0.00094015
     137         -0.531954        1.000000        0.00037900        0.02364443        0.01900457        0.00094016
     138         -0.530429        1.000000        0.00029301        0.03289674        0.00595220        0.00063089
     139         -0.529255        1.000000        0.00018940        0.00742199        0.01175804        0.00051082
     140         -0.527954        1.000000        0.00058277        0.00307073        0.01079760        0.00102856
     141         -0.526260        1.000000        0.00015349        0.01234002        0.00480007        0.00040407
     142         -0.525529        1.000000        0.00028244        0.01229101        0.00637071        0.00021353
     143         -0.523245        1.000000        0.00004552        0.00115445        0.00331032        0.00010041
     144         -0.522509        1.000000        0.00031018        0.00845850        0.05702796        0.00378276
     145         -0.521454        1.000000        0.00015960        0.02549762        0.09802375        0.00494148
     146         -0.520555        1.000000        0.00005278        0.00788289        0.01142880        0.00047462
     147         -0.520411        1.000000        0.00001955        0.00415727        0.01293276        0.00014215
     148         -0.517517        1.000000        0.00007023        0.00871691        0.01176365        0.00051684
     149         -0.517357        1.000000        0.00012557        0.01546264        0.02481437        0.00051376
     150         -0.517247        1.000000        0.00010814        0.00700146        0.00301646        0.00016476
     151         -0.516849        1.000000        0.00027710        0.00805311        0.02458099        0.00050349
     152         -0.515704        1.000000        0.00023798        0.00331469        0.05853312        0.00205881
     153         -0.514020        1.000000        0.00006522        0.00261246        0.00728674        0.00019898
     154         -0.513486        1.000000        0.00016223        0.00887353        0.02882897        0.00222624
     155         -0.511815        1.000000        0.00072123        0.00038560        0.04430039        0.00049657
     156         -0.511161        1.000000        0.00009809        0.01031989        0.00613957        0.00025908
     157         -0.510440        1.000000        0.00017728        0.00177423        0.00071553        0.00015751
     158         -0.509185        1.000000        0.00023286        0.00288646        0.01849416        0.00141540
     159         -0.508880        1.000000        0.00018779        0.00244478        0.00229338        0.00012077
     160         -0.508761        1.000000        0.00007297        0.00295102        0.00427102        0.00012647
     161         -0.505965        1.000000        0.00018885        0.00136919        0.02831368        0.00260142
     162         -0.505471        1.000000        0.00002636        0.00067906        0.00264194        0.00057155
     163         -0.503344        1.000000        0.00000394        0.00072109        0.00095977        0.00027730
     164         -0.502359        1.000000        0.00014462        0.00191927        0.02067500        0.00194246
     165         -0.501881        1.000000        0.00002227        0.00184053        0.00436015        0.00038793
     166         -0.501385        1.000000        0.00000286        0.00230740        0.00100508        0.00024846
     167         -0.500635        1.000000        0.00000832        0.00105166        0.00250646        0.00010783
     168         -0.498611        1.000000        0.00039856        0.34370515        0.13520859        0.00727838
     169         -0.497881        1.000000        0.00042822        0.34436217        0.11640046        0.00489988
     170         -0.493579        1.000000        0.00023663        0.37928793        0.12275631        0.01394050
     171         -0.491025        1.000000        0.00001973        0.16001149        0.30656695        0.04029095
     172         -0.489569        1.000000        0.00000511        0.48228521        0.02561801        0.00254486
     173         -0.489364        1.000000        0.00012261        0.24354420        0.17193370        0.00912624
     174         -0.485712        1.000000        0.00024166        0.08740091        0.37686332        0.01831416
     175         -0.483446        1.000000        0.00002225        0.02568042        0.45615853        0.00860259
     176         -0.481184        1.000000        0.00000226        0.00077090        0.00488617        0.00009447
     177         -0.480985        1.000000        0.00034289        0.00993992        0.52759705        0.00453159
     178         -0.477269        1.000000        0.00000072        0.00012654        0.00019056        0.00000535
     179         -0.467215        1.000000        0.00000308        0.52636042        0.00751421        0.00121355
     180         -0.465089        1.000000        0.00006451        0.00050176        0.00295651        0.00039261
     181         -0.464182        1.000000        0.00000028        0.00039983        0.00021256        0.00000951
     182         -0.462507        1.000000        0.00000014        0.00000589        0.00000064        0.00000532
     183         -0.462054        1.000000        0.00000029        0.00001125        0.00000076        0.00016955
     184         -0.456528        1.000000        0.00000000        0.00000041        0.00000023        0.00000085
     185         -0.453941        1.000000        0.00000000        0.00000017        0.00000025        0.00000013
     186         -0.453537        1.000000        0.00000131        0.00004444        0.00001969        0.00000083
     187         -0.452823        1.000000        0.00000070        0.00005826        0.00000649        0.00000672
     188         -0.451283        1.000000        0.00001469        0.47696028        0.08776243        0.00000253
     189         -0.450812        1.000000        0.00000093        0.00023127        0.00001648        0.00004662
     190         -0.449472        1.000000        0.00003853        0.00479028        0.00038834        0.00010188
     191         -0.449298        1.000000        0.00000531        0.00096076        0.00001357        0.00026426
     192         -0.448501        1.000000        0.00000017        0.00000461        0.00001312        0.00001728
     193         -0.446973        1.000000        0.00001092        0.00043824        0.00002753        0.00013094
     194         -0.445508        1.000000        0.00000082        0.00004254        0.00000360        0.00002049
     195         -0.445180        1.000000        0.00000050        0.00000758        0.00001804        0.00001494
     196         -0.444978        1.000000        0.00098365        0.00438198        0.01877149        0.00134015
     197         -0.444287        1.000000        0.00000017        0.00000958        0.00012232        0.00005389
     198         -0.442981        1.000000        0.00007128        0.00083652        0.00482047        0.00005884
     199         -0.442213        1.000000        0.00002053        0.00013603        0.00048104        0.00007898
     200         -0.441490        1.000000        0.00076266        0.02182483        0.09062437        0.27123273
     201         -0.441248        1.000000        0.00000992        0.00003076        0.00003421        0.00006901
     202         -0.439229        1.000000        0.00019744        0.00913907        0.00000716        0.00059737
     203         -0.437944        1.000000        0.00000072        0.00008270        0.00000703        0.00000804
     204         -0.435496        1.000000        0.00001829        0.00031767        0.00035826        0.00002394
     205         -0.435021        1.000000        0.00001059        0.00018029        0.00048834        0.00008908
     206         -0.433989        1.000000        0.00000014        0.00000152        0.00000228        0.00001054
     207         -0.433000        1.000000        0.00000802        0.00038447        0.00020658        0.00025926
     208         -0.432794        1.000000        0.00000428        0.00004944        0.00004800        0.00001543
     209         -0.432706        1.000000        0.00000090        0.00003799        0.00002597        0.00002635
     210         -0.431698        1.000000        0.00000007        0.00007808        0.00018372        0.00017136
     211         -0.431468        1.000000        0.00000441        0.00006222        0.00006888        0.00002902
     212         -0.430642        1.000000        0.00001888        0.10441917        0.22711283        0.21627116
     213         -0.430493        1.000000        0.00000276        0.00023397        0.00145752        0.00037030
     214         -0.430366        1.000000        0.00000019        0.00011642        0.00026552        0.00025048
     215         -0.429117        1.000000        0.00000820        0.00049234        0.00042288        0.00010918
     216         -0.428776        1.000000        0.00007183        0.00471274        0.00309895        0.00000263
     217         -0.428317        1.000000        0.00000225        0.00000942        0.00008069        0.00020066
     218         -0.428077        1.000000        0.00000014        0.00000827        0.00000119        0.00000078
     219         -0.427788        1.000000        0.00000133        0.00000969        0.00002934        0.00006510
     220         -0.427272        1.000000        0.00000645        0.00012828        0.00018943        0.00002738
     221         -0.425700        1.000000        0.00000345        0.00002456        0.00002195        0.00003964
     222         -0.425540        1.000000        0.00000047        0.00000167        0.00000437        0.00000227
     223         -0.424108        1.000000        0.00000156        0.00001015        0.00000714        0.00003351
     224         -0.424097        1.000000        0.00009477        0.00000082        0.00067617        0.00689403
     225         -0.423919        1.000000        0.00000629        0.00011178        0.00007267        0.00006435
     226         -0.423695        1.000000        0.00002192        0.00010268        0.00020882        0.00113056
     227         -0.423505        1.000000        0.00000794        0.00001148        0.00009776        0.00052484
     228         -0.423100        1.000000        0.00003365        0.00008654        0.00064448        0.00251158
     229         -0.423051        1.000000        0.00000270        0.00001049        0.00001956        0.00006327
     230         -0.422611        1.000000        0.00000899        0.00053142        0.00027949        0.00006259
     231         -0.422245        1.000000        0.00002469        0.00148210        0.00041769        0.00007547
     232         -0.421917        1.000000        0.00003078        0.00211852        0.00046653        0.00006734
     233         -0.421762        1.000000        0.00000016        0.00000274        0.00000404        0.00000304
     234         -0.420969        1.000000        0.00000614        0.00000051        0.00004629        0.00037828
     235         -0.419445        1.000000        0.00000061        0.00000865        0.00001878        0.00000776
     236         -0.419212        1.000000        0.00001528        0.00001277        0.00012006        0.00018457
     237         -0.419081        1.000000        0.00000698        0.00020264        0.00002743        0.00012972
     238         -0.418421        1.000000        0.00000111        0.00000646        0.00000651        0.00002062
     239         -0.417458        1.000000        0.00000294        0.00006399        0.00002312        0.00003135
     240         -0.416771        1.000000        0.00007588        0.00179112        0.00788431        0.00746195
     241         -0.416414        1.000000        0.00000567        0.00000041        0.00002133        0.00029769
     242         -0.416042        1.000000        0.00000116        0.00005547        0.00002755        0.00004384
     243         -0.413749        1.000000        0.00035564        0.00114912        0.00093131        0.01829641
     244         -0.413677        1.000000        0.00034392        0.00289633        0.00119470        0.01674600
     245         -0.413585        1.000000        0.00256894        0.22417907        0.03938865        0.00403230
     246         -0.412338        1.000000        0.00000255        0.00002053        0.00000594        0.00014694
     247         -0.412252        1.000000        0.00000055        0.00000006        0.00000125        0.00001251
     248         -0.412013        1.000000        0.00046464        0.04308953        0.00692636        0.00082688
     249         -0.409644        1.000000        0.00003190        0.00007673        0.00008520        0.00141512
     250         -0.409545        1.000000        0.00060298        0.00002237        0.00067806        0.02298676
     251         -0.409124        1.000000        0.00041190        0.00170034        0.00068446        0.01902762
     252         -0.408735        1.000000        0.00001526        0.00001144        0.00003572        0.00062302
     253         -0.408574        1.000000        0.00090460        0.00006275        0.00264300        0.03896235
     254         -0.408396        1.000000        0.00034865        0.03229549        0.00452680        0.00193629
     255         -0.408087        1.000000        0.00126427        0.00043714        0.00336292        0.06463557
     256         -0.407736        1.000000        0.00549575        0.00058852        0.01532683        0.26833708
     257         -0.407632        1.000000        0.00000792        0.00000155        0.00002122        0.00037569
     258         -0.407523        1.000000        0.00064371        0.00344514        0.00223125        0.02864320
     259         -0.406730        1.000000        0.00530939        0.00116888        0.00607666        0.21160149