# Projected DOS for atomic kind I at iteration step i = 0, E(Fermi) =    -0.114860 a.u.
#     MO Eigenvalue [a.u.]      Occupation                 s                py                pz                px
       1         -0.922692        1.000000        0.00001781        0.00004858        0.00000267        0.00007346
       2         -0.917627        1.000000        0.00001808        0.00003961        0.00007146        0.00002650
       3         -0.906110        1.000000        0.00000752        0.00002712        0.00002065        0.00002488
       4         -0.904885        1.000000        0.00003694        0.00007328        0.00006292        0.00007437
       5         -0.903702        1.000000        0.00005171        0.00001075        0.00006560        0.00019903
       6         -0.899845        1.000000        0.00003164        0.00000293        0.00022549        0.00000316
       7         -0.898240        1.000000        0.00003930        0.00010851        0.00005311        0.00007867
       8         -0.894362        1.000000        0.00016524        0.00003798        0.00016553        0.00036641
       9         -0.893486        1.000000        0.00000475        0.00003240        0.00000957        0.00004605
      10         -0.891576        1.000000        0.00004008        0.00007692        0.00003057        0.00018125
      11         -0.890703        1.000000        0.00010437        0.00007085        0.00008087        0.00027872
      12         -0.889763        1.000000        0.00008753        0.00013477        0.00000603        0.00026437
      13         -0.889291        1.000000        0.00002029        0.00003040        0.00007308        0.00000221
      14         -0.885852        1.000000        0.00002596        0.00000058        0.00012717        0.00002537
      15         -0.883197        1.000000        0.00005609        0.00000076        0.00011662        0.00014427
      16         -0.881382        1.000000        0.00096555        0.00042011        0.00108392        0.00032659
      17         -0.880015        1.000000        0.00005215        0.00000665        0.00002483        0.00022438
      18         -0.879951        1.000000        0.00020331        0.00030626        0.00044772        0.00016403
      19         -0.879170        1.000000        0.00003424        0.00001004        0.00010525        0.00014177
      20         -0.877105        1.000000        0.00006363        0.00002072        0.00005719        0.00023044
      21         -0.876787        1.000000        0.00020901        0.00030423        0.00036407        0.00019668
      22         -0.876736        1.000000        0.00001462        0.00007567        0.00000704        0.00002658
      23         -0.876579        1.000000        0.00012458        0.00011038        0.00012813        0.00009423
      24         -0.875725        1.000000        0.00008696        0.00031387        0.00000473        0.00005087
      25         -0.874600        1.000000        0.00003009        0.00000585        0.00009723        0.00006351
      26         -0.874304        1.000000        0.00015594        0.00035731        0.00046674        0.00017143
      27         -0.872525        1.000000        0.00016761        0.00001771        0.00000493        0.00052664
      28         -0.872333        1.000000        0.00000596        0.00000927        0.00004259        0.00001004
      29         -0.871832        1.000000        0.00003987        0.00001405        0.00000092        0.00019819
      30         -0.871670        1.000000        0.00001905        0.00003610        0.00002943        0.00007502
      31         -0.870538        1.000000        0.00027880        0.00061048        0.00037355        0.00020009
      32         -0.869242        1.000000        0.00001754        0.00001332        0.00007345        0.00004906
      33         -0.868352        1.000000        0.00001327        0.00001582        0.00007006        0.00001523
      34         -0.866436        1.000000        0.00001616        0.00001629        0.00001720        0.00004968
      35         -0.865981        1.000000        0.00001861        0.00002048        0.00003085        0.00005798
      36         -0.863345        1.000000        0.00006523        0.00001880        0.00007031        0.00012906
      37         -0.863131        1.000000        0.00004410        0.00000216        0.00010452        0.00010759
      38         -0.862703        1.000000        0.00007294        0.00000184        0.00024197        0.00005909
      39         -0.860572        1.000000        0.00000648        0.00002417        0.00014662        0.00003125
      40         -0.857948        1.000000        0.00002020        0.00002589        0.00005327        0.00005949
      41         -0.857428        1.000000        0.00000185        0.00001916        0.00000540        0.00000901
      42         -0.857332        1.000000        0.00010832        0.00011214        0.00006294        0.00009992
      43         -0.856784        1.000000        0.00004814        0.00002041        0.00020685        0.00003821
      44         -0.856457        1.000000        0.00002880        0.00004085        0.00014464        0.00001433
      45         -0.854811        1.000000        0.00002724        0.00009015        0.00007877        0.00000227
      46         -0.854408        1.000000        0.00000159        0.00001404        0.00001430        0.00000233
      47         -0.853512        1.000000        0.00006449        0.00002100        0.00018574        0.00004757
      48         -0.852822        1.000000        0.00004665        0.00010492        0.00006781        0.00007079
      49         -0.852658        1.000000        0.00004938        0.00002887        0.00011635        0.00016404
      50         -0.852013        1.000000        0.00002950        0.00002512        0.00002867        0.00006930
      51         -0.850802        1.000000        0.00011487        0.00020219        0.00011547        0.00011481
      52         -0.849745        1.000000        0.00002001        0.00002180        0.00000607        0.00013553
      53         -0.849365        1.000000        0.00003239        0.00006960        0.00006007        0.00008355
      54         -0.849170        1.000000        0.00000730        0.00001659        0.00001505        0.00003872
      55         -0.848746        1.000000        0.00003656        0.00013004        0.00001382        0.00005065
      56         -0.848558        1.000000        0.00002369        0.00000712        0.00010022        0.00000864
      57         -0.846749        1.000000        0.00006582        0.00002531        0.00022143        0.00002262
      58         -0.846357        1.000000        0.00000867        0.00002160        0.00001214        0.00001878
      59         -0.846152        1.000000        0.00001663        0.00001807        0.00009247        0.00000976
      60         -0.845081        1.000000        0.00002053        0.00006845        0.00001117        0.00004654
      61         -0.842237        1.000000        0.00001139        0.00002749        0.00001442        0.00001237
      62         -0.841297        1.000000        0.00000663        0.00002625        0.00001498        0.00009747
      63         -0.840918        1.000000        0.00087767        0.00031372        0.00066869        0.00019186
      64         -0.840429        1.000000        0.00000181        0.00000590        0.00000524        0.00000355
      65         -0.837764        1.000000        0.00033376        0.00029897        0.00043543        0.00044176
      66         -0.837395        1.000000        0.00001574        0.00002255        0.00001743        0.00005715
      67         -0.836470        1.000000        0.00004466        0.00001325        0.00023919        0.00001609
      68         -0.836239        1.000000        0.00004019        0.00000443        0.00021398        0.00001059
      69         -0.836027        1.000000        0.00006714        0.00006072        0.00008856        0.00007149
      70         -0.835796        1.000000        0.00008327        0.00001195        0.00024805        0.00003942
      71         -0.832959        1.000000        0.00007607        0.00009979        0.00005354        0.00010418
      72         -0.832479        1.000000        0.00001479        0.00002360        0.00000646        0.00006724
      73         -0.832190        1.000000        0.00000196        0.00000766        0.00000708        0.00002421
      74         -0.831662        1.000000        0.00001106        0.00006858        0.00004597        0.00002024
      75         -0.831483        1.000000        0.00005979        0.00000963        0.00007027        0.00017157
      76         -0.830608        1.000000        0.00005832        0.00001682        0.00017399        0.00001334
      77         -0.829334        1.000000        0.00001946        0.00001651        0.00001531        0.00006542
      78         -0.828869        1.000000        0.00004831        0.00003066        0.00021799        0.00001397
      79         -0.828449        1.000000        0.00000643        0.00001658        0.00000559        0.00000822
      80         -0.824982        1.000000        0.00002235        0.00004900        0.00002596        0.00003823
      81         -0.824847        1.000000        0.00001515        0.00001654        0.00008625        0.00005135
      82         -0.822145        1.000000        0.00004323        0.00011989        0.00002339        0.00001583
      83         -0.821096        1.000000        0.00009261        0.00001852        0.00018941        0.00006369
      84         -0.820676        1.000000        0.00005544        0.00001286        0.00007314        0.00016066
      85         -0.819619        1.000000        0.00005836        0.00008862        0.00003145        0.00003780
      86         -0.819126        1.000000        0.00244889        0.00055870        0.00165890        0.00044576
      87         -0.818832        1.000000        0.00006869        0.00000900        0.00018493        0.00005460
      88         -0.818312        1.000000        0.00005067        0.00014247        0.00001873        0.00004879
      89         -0.818100        1.000000        0.00003450        0.00005791        0.00001713        0.00004799
      90         -0.817049        1.000000        0.00003222        0.00000451        0.00014691        0.00011211
      91         -0.816740        1.000000        0.00000635        0.00002041        0.00000636        0.00005004
      92         -0.815505        1.000000        0.00002016        0.00001132        0.00010159        0.00003670
      93         -0.814243        1.000000        0.00000181        0.00000431        0.00000446        0.00000269
      94         -0.813825        1.000000        0.00012060        0.00003787        0.00022959        0.00006893
      95         -0.813810        1.000000        0.00001593        0.00004257        0.00002834        0.00002510
      96         -0.813556        1.000000        0.00002149        0.00004838        0.00001130        0.00002707
      97         -0.811908        1.000000        0.00017284        0.00031489        0.00005646        0.00019350
      98         -0.811863        1.000000        0.00019542        0.00002673        0.00044103        0.00005347
      99         -0.810282        1.000000        0.00003043        0.00012096        0.00006207        0.00001167
     100         -0.810265        1.000000        0.00001899        0.00004032        0.00002064        0.00001940
     101         -0.808751        1.000000        0.00000543        0.00000824        0.00002380        0.00001626
     102         -0.805813        1.000000        0.00006288        0.00003311        0.00004175        0.00010183
     103         -0.805112        1.000000        0.00003165        0.00006943        0.00006962        0.00005135
     104         -0.803053        1.000000        0.00002443        0.00003949        0.00001124        0.00003407
     105         -0.801879        1.000000        0.00003478        0.00002882        0.00002755        0.00004722
     106         -0.801484        1.000000        0.00014183        0.00005899        0.00012320        0.00021469
     107         -0.800129        1.000000        0.00001704        0.00001435        0.00000385        0.00004427
     108         -0.799646        1.000000        0.00004153        0.00007759        0.00007542        0.00002362
     109         -0.798090        1.000000        0.00000642        0.00000277        0.00001876        0.00001084
     110         -0.797914        1.000000        0.00000757        0.00001683        0.00000339        0.00002560
     111         -0.797215        1.000000        0.00004931        0.00004352        0.00008705        0.00008327
     112         -0.795764        1.000000        0.00006632        0.00001543        0.00027881        0.00005382
     113         -0.794971        1.000000        0.00002302        0.00002840        0.00004106        0.00004024
     114         -0.794355        1.000000        0.00001181        0.00002197        0.00001199        0.00000956
     115         -0.792865        1.000000        0.00009861        0.00002039        0.00003679        0.00008152
     116         -0.790275        1.000000        0.02414429        0.00379367        0.01341751        0.00308491
     117         -0.789304        1.000000        0.00001215        0.00002672        0.00001713        0.00001851
     118         -0.785858        1.000000        0.00001366        0.00004841        0.00002676        0.00002749
     119         -0.782760        1.000000        0.00236278        0.00002973        0.00423635        0.00000684
     120         -0.777688        1.000000        0.00005735        0.00006214        0.00010182        0.00005571
     121         -0.768388        1.000000        0.00004293        0.00004392        0.00005357        0.00003980
     122         -0.760073        1.000000        0.00002288        0.00008946        0.00001736        0.00002985
     123         -0.702595        1.000000        0.00004916        0.00005755        0.00001731        0.00002202
     124         -0.679695        1.000000        0.00012799        0.00018345        0.00003499        0.00015753
     125         -0.628691        1.000000        0.00196770        0.00040265        0.00044751        0.00028028
     126         -0.626815        1.000000        0.00183277        0.00030479        0.00032339        0.00018421
     127         -0.619785        1.000000        0.00215346        0.00029687        0.00040351        0.00018938
     128         -0.616088        1.000000        0.00181949        0.00035871        0.00043439        0.00050051
     129         -0.604808        1.000000        0.00102206        0.00021337        0.00027507        0.00022747
     130         -0.578209        1.000000        0.00362190        0.00040864        0.00018156        0.00041268
     131         -0.569905        1.000000        0.92072766        0.00032384        0.00068008        0.00037470
     132         -0.563380        1.000000        0.00489929        0.00023510        0.00057385        0.00007534
     133         -0.540437        1.000000        0.83159816        0.00620619        0.00397241        0.00380945
     134         -0.537544        1.000000        0.84156948        0.00536103        0.00367419        0.00193758
     135         -0.535460        1.000000        0.82210634        0.00508774        0.00700691        0.00366454
     136         -0.533739        1.000000        0.82332803        0.00270057        0.00267737        0.00306376
     137         -0.531954        1.000000        0.82775284        0.00197818        0.00343923        0.00311404
     138         -0.530429        1.000000        0.86013107        0.00295518        0.00121088        0.00131946
     139         -0.529255        1.000000        0.84965717        0.00257620        0.00487198        0.00333479
     140         -0.527954        1.000000        0.86067145        0.00160402        0.00431117        0.00414357
     141         -0.526260        1.000000        0.92528178        0.00042311        0.00138702        0.00251890
     142         -0.525529        1.000000        0.87154765        0.00299591        0.00346589        0.00296965
     143         -0.523245        1.000000        0.93743849        0.00179380        0.00074627        0.00102616
     144         -0.522509        1.000000        0.82063274        0.00203881        0.00172731        0.00130628
     145         -0.521454        1.000000        0.72215952        0.00054818        0.00233491        0.00086960
     146         -0.520555        1.000000        0.89688418        0.00134675        0.00270221        0.00152895
     147         -0.520411        1.000000        0.90524834        0.00120965        0.00301159        0.00119402
     148         -0.517517        1.000000        0.88287257        0.00129522        0.00261807        0.00152267
     149         -0.517357        1.000000        0.85776351        0.00110464        0.00180816        0.00136263
     150         -0.517247        1.000000        0.92454615        0.00070342        0.00082258        0.00173232
     151         -0.516849        1.000000        0.89046003        0.00063086        0.00124137        0.00126432
     152         -0.515704        1.000000        0.81863184        0.00099324        0.00248096        0.00111817
     153         -0.514020        1.000000        0.91725191        0.00039937        0.00047550        0.00051486
     154         -0.513486        1.000000        0.85751105        0.00115134        0.00216588        0.00129433
     155         -0.511815        1.000000        0.87166012        0.00158898        0.00176303        0.00069285
     156         -0.511161        1.000000        0.92745880        0.00069053        0.00353005        0.00204271
     157         -0.510440        1.000000        0.94164663        0.00149479        0.00058358        0.00021408
     158         -0.509185        1.000000        0.92453486        0.00144998        0.00073939        0.00090411
     159         -0.508880        1.000000        0.93762873        0.00139201        0.00045467        0.00111707
     160         -0.508761        1.000000        0.93761331        0.00129217        0.00055915        0.00106829
     161         -0.505965        1.000000        0.89992949        0.00080788        0.00079441        0.00105825
     162         -0.505471        1.000000        0.93756485        0.00041484        0.00065246        0.00034525
     163         -0.503344        1.000000        0.95152629        0.00035850        0.00050729        0.00109973
     164         -0.502359        1.000000        0.92061874        0.00035996        0.00065808        0.00116757
     165         -0.501881        1.000000        0.90728734        0.00017227        0.00082284        0.00092312
     166         -0.501385        1.000000        0.94997658        0.00037672        0.00036363        0.00060350
     167         -0.500635        1.000000        0.92462529        0.00037346        0.00111343        0.00083031
     168         -0.498611        1.000000        0.17469741        0.00164563        0.00179708        0.00113675
     169         -0.497881        1.000000        0.20989093        0.00128682        0.00106270        0.00139253
     170         -0.493579        1.000000        0.13928184        0.00279212        0.00213826        0.00063933
     171         -0.491025        1.000000        0.15903704        0.00221539        0.00309027        0.00089222
     172         -0.489569        1.000000        0.14199067        0.00546881        0.00183269        0.00147053
     173         -0.489364        1.000000        0.26806939        0.00104670        0.00328298        0.00131458
     174         -0.485712        1.000000        0.19388987        0.00237520        0.00129446        0.00174805
     175         -0.483446        1.000000        0.17506795        0.00203785        0.00231424        0.00175794
     176         -0.481184        1.000000        0.04015376        0.00161748        0.00074454        0.00095575
     177         -0.480985        1.000000        0.00578086        0.00024114        0.00026631        0.00011600
     178         -0.477269        1.000000        0.00475191        0.00034207        0.00040961        0.00027765
     179         -0.467215        1.000000        0.00523532        0.00038866        0.00037225        0.00018141
     180         -0.465089        1.000000        0.03172331        0.00254465        0.00058017        0.00118313
     181         -0.464182        1.000000        0.00401178        0.00033739        0.00018299        0.00016394
     182         -0.462507        1.000000        0.01493622        0.00026203        0.00117559        0.00179089
     183         -0.462054        1.000000        0.02176133        0.00087959        0.00105900        0.00233652
     184         -0.456528        1.000000        0.00115186        0.00013453        0.00011966        0.00017030
     185         -0.453941        1.000000        0.00169821        0.00002340        0.00065388        0.00013502
     186         -0.453537        1.000000        0.00133891        0.00021744        0.00003055        0.00025906
     187         -0.452823        1.000000        0.00547590        0.00027623        0.00043841        0.00087572
     188         -0.451283        1.000000        0.00670321        0.00157806        0.00013682        0.00139290
     189         -0.450812        1.000000        0.01885825        0.00029461        0.00147672        0.00209395
     190         -0.449472        1.000000        0.01156818        0.00013615        0.00038770        0.00507789
     191         -0.449298        1.000000        0.00911227        0.00099961        0.00164868        0.00052026
     192         -0.448501        1.000000        0.02532692        0.00069070        0.00090086        0.00522386
     193         -0.446973        1.000000        0.00038266        0.00005907        0.00015148        0.00024135
     194         -0.445508        1.000000        0.02741770        0.00010418        0.00096596        0.00052087
     195         -0.445180        1.000000        0.01152274        0.00012031        0.00195882        0.00403442
     196         -0.444978        1.000000        0.00056485        0.00005314        0.00012939        0.00035647
     197         -0.444287        1.000000        0.01179315        0.00033469        0.00123716        0.00509889
     198         -0.442981        1.000000        0.00196391        0.00053453        0.00030493        0.00023060
     199         -0.442213        1.000000        0.01254719        0.00068752        0.00016189        0.00444237
     200         -0.441490        1.000000        0.00111998        0.00053701        0.00015156        0.00016812
     201         -0.441248        1.000000        0.01891280        0.00111881        0.00029480        0.00505640
     202         -0.439229        1.000000        0.00467279        0.00167404        0.00083491        0.00062299
     203         -0.437944        1.000000        0.00957450        0.00367113        0.00028490        0.00058094
     204         -0.435496        1.000000        0.00020850        0.00010384        0.00013525        0.00006262
     205         -0.435021        1.000000        0.00220834        0.00023035        0.00038121        0.00041173
     206         -0.433989        1.000000        0.00338695        0.00113740        0.00084250        0.00092238
     207         -0.433000        1.000000        0.01029868        0.00173143        0.00103676        0.00868729
     208         -0.432794        1.000000        0.00346883        0.00041926        0.00049903        0.00104310
     209         -0.432706        1.000000        0.01030123        0.00099960        0.00090996        0.00290973
     210         -0.431698        1.000000        0.00008089        0.00001209        0.00004092        0.00010299
     211         -0.431468        1.000000        0.00669840        0.00137001        0.00018945        0.00312685
     212         -0.430642        1.000000        0.00584216        0.00191574        0.00125454        0.00248903
     213         -0.430493        1.000000        0.00307779        0.00013401        0.00031149        0.00132164
     214         -0.430366        1.000000        0.00252650        0.00078529        0.00098571        0.00087363
     215         -0.429117        1.000000        0.00319000        0.00014505        0.00116066        0.00078425
     216         -0.428776        1.000000        0.00082356        0.00013186        0.00030442        0.00022693
     217         -0.428317        1.000000        0.00268931        0.00134851        0.00065035        0.00141181
     218         -0.428077        1.000000        0.00001450        0.00000810        0.00000313        0.00001792
     219         -0.427788        1.000000        0.01127435        0.00199832        0.00148745        0.00253619
     220         -0.427272        1.000000        0.00072435        0.00015758        0.00043414        0.00059913
     221         -0.425700        1.000000        0.00140322        0.00044346        0.00004701        0.00021681
     222         -0.425540        1.000000        0.00067457        0.00063104        0.00006527        0.00034848
     223         -0.424108        1.000000        0.00008417        0.00021368        0.00080398        0.00015115
     224         -0.424097        1.000000        0.00030996        0.00038415        0.00013428        0.00005503
     225         -0.423919        1.000000        0.00042051        0.00016238        0.00034268        0.00020207
     226         -0.423695        1.000000        0.00275858        0.00051114        0.00525932        0.00255145
     227         -0.423505        1.000000        0.00172391        0.00025748        0.00047052        0.00170042
     228         -0.423100        1.000000        0.00540283        0.00008769        0.00367600        0.00091678
     229         -0.423051        1.000000        0.00055239        0.00090204        0.00029786        0.00012363
     230         -0.422611        1.000000        0.00024590        0.00006550        0.00004828        0.00010798
     231         -0.422245        1.000000        0.00131791        0.00013257        0.00089844        0.00041984
     232         -0.421917        1.000000        0.00178289        0.00008721        0.00073150        0.00081006
     233         -0.421762        1.000000        0.00272035        0.00120531        0.00107122        0.00116811
     234         -0.420969        1.000000        0.00533003        0.00183088        0.00094020        0.00285720
     235         -0.419445        1.000000        0.00036539        0.00028007        0.00012625        0.00045663
     236         -0.419212        1.000000        0.00207810        0.00021953        0.00154570        0.00060316
     237         -0.419081        1.000000        0.00016197        0.00007324        0.00008122        0.00009718
     238         -0.418421        1.000000        0.00067087        0.00023765        0.00013034        0.00035220
     239         -0.417458        1.000000        0.00117352        0.00115152        0.00107437        0.00014548
     240         -0.416771        1.000000        0.00019097        0.00012266        0.00030726        0.00007337
     241         -0.416414        1.000000        0.00218341        0.00078323        0.00085273        0.00103404
     242         -0.416042        1.000000        0.00084004        0.00030220        0.00039298        0.00121406
     243         -0.413749        1.000000        0.00054199        0.00077302        0.00065276        0.00040657
     244         -0.413677        1.000000        0.00114142        0.00060910        0.00065032        0.00036415
     245         -0.413585        1.000000        0.00112401        0.00088036        0.00061872        0.00070883
     246         -0.412338        1.000000        0.00201977        0.00135118        0.00162533        0.00128132
     247         -0.412252        1.000000        0.00009581        0.00004320        0.00005332        0.00006549
     248         -0.412013        1.000000        0.00019298        0.00024065        0.00015852        0.00024528
     249         -0.409644        1.000000        0.00340632        0.00243663        0.00160447        0.00168843
     250         -0.409545        1.000000        0.00178820        0.00019778        0.00176180        0.00103996
     251         -0.409124        1.000000        0.00142845        0.00049852        0.00080618        0.00028198
     252         -0.408735        1.000000        0.00329532        0.00213470        0.00142929        0.00144732
     253         -0.408574        1.000000        0.00875064        0.00218731        0.00511449        0.00269964
     254         -0.408396        1.000000        0.00042879        0.00023651        0.00022000        0.00056706
     255         -0.408087        1.000000        0.00444828        0.00212911        0.00275039        0.00498460
     256         -0.407736        1.000000        0.00506205        0.00138672        0.00151264        0.00217097
     257         -0.407632        1.000000        0.00015372        0.00025349        0.00015229        0.00024743
     258         -0.407523        1.000000        0.00556545        0.00205077        0.00195868        0.00486107
     259         -0.406730        1.000000        0.00454421        0.00394471        0.00311706        0.00285901