# Projected DOS for atomic kind Pb at iteration step i = 0, E(Fermi) =    -0.114860 a.u.
#     MO Eigenvalue [a.u.]      Occupation                 s                py                pz                px
       1         -0.922692        1.000000        0.00000005        0.00000035        0.00000000        0.00000004
       2         -0.917627        1.000000        0.00000006        0.00000036        0.00000011        0.00000003
       3         -0.906110        1.000000        0.00000004        0.00000046        0.00000038        0.00000018
       4         -0.904885        1.000000        0.00000003        0.00000023        0.00000005        0.00000005
       5         -0.903702        1.000000        0.00000005        0.00000056        0.00000009        0.00000039
       6         -0.899845        1.000000        0.00000017        0.00000000        0.00000061        0.00000000
       7         -0.898240        1.000000        0.00000007        0.00000043        0.00000010        0.00000007
       8         -0.894362        1.000000        0.00000031        0.00000003        0.00000002        0.00000173
       9         -0.893486        1.000000        0.00000000        0.00000009        0.00000020        0.00000033
      10         -0.891576        1.000000        0.00000038        0.00000591        0.00000109        0.00000415
      11         -0.890703        1.000000        0.00000016        0.00000004        0.00000039        0.00000111
      12         -0.889763        1.000000        0.00000023        0.00000023        0.00000001        0.00000135
      13         -0.889291        1.000000        0.00000017        0.00000106        0.00000105        0.00000019
      14         -0.885852        1.000000        0.00000028        0.00000489        0.00000331        0.00000114
      15         -0.883197        1.000000        0.00000009        0.00000000        0.00000000        0.00000067
      16         -0.881382        1.000000        0.00000027        0.00000086        0.00000223        0.00000184
      17         -0.880015        1.000000        0.00000012        0.00000020        0.00000048        0.00000104
      18         -0.879951        1.000000        0.00000254        0.00001679        0.00004707        0.00001086
      19         -0.879170        1.000000        0.00000016        0.00000009        0.00000001        0.00000068
      20         -0.877105        1.000000        0.00000022        0.00000009        0.00000000        0.00000075
      21         -0.876787        1.000000        0.00000050        0.00000514        0.00000445        0.00000250
      22         -0.876736        1.000000        0.00000014        0.00000147        0.00000046        0.00000358
      23         -0.876579        1.000000        0.00000003        0.00000007        0.00000120        0.00000021
      24         -0.875725        1.000000        0.00000023        0.00000097        0.00000006        0.00000002
      25         -0.874600        1.000000        0.00000019        0.00000005        0.00000152        0.00000106
      26         -0.874304        1.000000        0.00000043        0.00000471        0.00000490        0.00000232
      27         -0.872525        1.000000        0.00000011        0.00000335        0.00000000        0.00000038
      28         -0.872333        1.000000        0.00000006        0.00000000        0.00000023        0.00000000
      29         -0.871832        1.000000        0.00000004        0.00000012        0.00000000        0.00000010
      30         -0.871670        1.000000        0.00000006        0.00000025        0.00000048        0.00000014
      31         -0.870538        1.000000        0.00000029        0.00000247        0.00000318        0.00000071
      32         -0.869242        1.000000        0.00000111        0.00000312        0.00001614        0.00000343
      33         -0.868352        1.000000        0.00000003        0.00000001        0.00000004        0.00000031
      34         -0.866436        1.000000        0.00000011        0.00000040        0.00000006        0.00000047
      35         -0.865981        1.000000        0.00000006        0.00000039        0.00000002        0.00000028
      36         -0.863345        1.000000        0.00000005        0.00000209        0.00000079        0.00000021
      37         -0.863131        1.000000        0.00000013        0.00000001        0.00000069        0.00000000
      38         -0.862703        1.000000        0.00000010        0.00000008        0.00000053        0.00000020
      39         -0.860572        1.000000        0.00000002        0.00000019        0.00000004        0.00000002
      40         -0.857948        1.000000        0.00000008        0.00000016        0.00000025        0.00000041
      41         -0.857428        1.000000        0.00000001        0.00000001        0.00000000        0.00000004
      42         -0.857332        1.000000        0.00000009        0.00000025        0.00000091        0.00000072
      43         -0.856784        1.000000        0.00000064        0.00000567        0.00000664        0.00000149
      44         -0.856457        1.000000        0.00000023        0.00000001        0.00000090        0.00000000
      45         -0.854811        1.000000        0.00000023        0.00000143        0.00000169        0.00000004
      46         -0.854408        1.000000        0.00000001        0.00000001        0.00000002        0.00000001
      47         -0.853512        1.000000        0.00000003        0.00000141        0.00000036        0.00000149
      48         -0.852822        1.000000        0.00000017        0.00000038        0.00000017        0.00000084
      49         -0.852658        1.000000        0.00000086        0.00000075        0.00000686        0.00000749
      50         -0.852013        1.000000        0.00000026        0.00000039        0.00000109        0.00000228
      51         -0.850802        1.000000        0.00000039        0.00000001        0.00000025        0.00000578
      52         -0.849745        1.000000        0.00000003        0.00000030        0.00000205        0.00000059
      53         -0.849365        1.000000        0.00000024        0.00000076        0.00000209        0.00000121
      54         -0.849170        1.000000        0.00000036        0.00000196        0.00000350        0.00000273
      55         -0.848746        1.000000        0.00000030        0.00000113        0.00000030        0.00000149
      56         -0.848558        1.000000        0.00000697        0.00004659        0.00006931        0.00000271
      57         -0.846749        1.000000        0.00000023        0.00000150        0.00000082        0.00000023
      58         -0.846357        1.000000        0.00000009        0.00000041        0.00000071        0.00000088
      59         -0.846152        1.000000        0.00000016        0.00000017        0.00000062        0.00000013
      60         -0.845081        1.000000        0.00000001        0.00000056        0.00000061        0.00000000
      61         -0.842237        1.000000        0.00000004        0.00000016        0.00000024        0.00000019
      62         -0.841297        1.000000        0.00000007        0.00000002        0.00000003        0.00000028
      63         -0.840918        1.000000        0.00000018        0.00000002        0.00000061        0.00000126
      64         -0.840429        1.000000        0.00000000        0.00000008        0.00000001        0.00000006
      65         -0.837764        1.000000        0.00000083        0.00000356        0.00000040        0.00000038
      66         -0.837395        1.000000        0.00000022        0.00000197        0.00000627        0.00000236
      67         -0.836470        1.000000        0.00000024        0.00000017        0.00000063        0.00000017
      68         -0.836239        1.000000        0.00000039        0.00000008        0.00000251        0.00000041
      69         -0.836027        1.000000        0.00000013        0.00000011        0.00000011        0.00000099
      70         -0.835796        1.000000        0.00000030        0.00000183        0.00000084        0.00000024
      71         -0.832959        1.000000        0.00000023        0.00000003        0.00000016        0.00000273
      72         -0.832479        1.000000        0.00000000        0.00000025        0.00000103        0.00000033
      73         -0.832190        1.000000        0.00000001        0.00000001        0.00000000        0.00000003
      74         -0.831662        1.000000        0.00000027        0.00000228        0.00000530        0.00000183
      75         -0.831483        1.000000        0.00000002        0.00000428        0.00000002        0.00000012
      76         -0.830608        1.000000        0.00000016        0.00000002        0.00000106        0.00000105
      77         -0.829334        1.000000        0.00000017        0.00000001        0.00000102        0.00000099
      78         -0.828869        1.000000        0.00000026        0.00000010        0.00000078        0.00000034
      79         -0.828449        1.000000        0.00000009        0.00000004        0.00000011        0.00000013
      80         -0.824982        1.000000        0.00000068        0.00000249        0.00000293        0.00000202
      81         -0.824847        1.000000        0.00000011        0.00000217        0.00000246        0.00000178
      82         -0.822145        1.000000        0.00000003        0.00000064        0.00000074        0.00000035
      83         -0.821096        1.000000        0.00000020        0.00000031        0.00000005        0.00000099
      84         -0.820676        1.000000        0.00000050        0.00000102        0.00000236        0.00000051
      85         -0.819619        1.000000        0.00000007        0.00000035        0.00000045        0.00000061
      86         -0.819126        1.000000        0.00000042        0.00000075        0.00000401        0.00000420
      87         -0.818832        1.000000        0.00000014        0.00000095        0.00000009        0.00000017
      88         -0.818312        1.000000        0.00000033        0.00000103        0.00000231        0.00000053
      89         -0.818100        1.000000        0.00000009        0.00000067        0.00000009        0.00000008
      90         -0.817049        1.000000        0.00000034        0.00000008        0.00000104        0.00000005
      91         -0.816740        1.000000        0.00000004        0.00000023        0.00000006        0.00000003
      92         -0.815505        1.000000        0.00000009        0.00000001        0.00000022        0.00000019
      93         -0.814243        1.000000        0.00000003        0.00000011        0.00000019        0.00000003
      94         -0.813825        1.000000        0.00000035        0.00000265        0.00000068        0.00000149
      95         -0.813810        1.000000        0.00000024        0.00000145        0.00000158        0.00000098
      96         -0.813556        1.000000        0.00000028        0.00000010        0.00000281        0.00000262
      97         -0.811908        1.000000        0.00000011        0.00000044        0.00000097        0.00000034
      98         -0.811863        1.000000        0.00000058        0.00000073        0.00000227        0.00000121
      99         -0.810282        1.000000        0.00000014        0.00000045        0.00000023        0.00000004
     100         -0.810265        1.000000        0.00000006        0.00000065        0.00000032        0.00000004
     101         -0.808751        1.000000        0.00000001        0.00000011        0.00000001        0.00000012
     102         -0.805813        1.000000        0.00000017        0.00000003        0.00000004        0.00000081
     103         -0.805112        1.000000        0.00000005        0.00000029        0.00000044        0.00000009
     104         -0.803053        1.000000        0.00000027        0.00000114        0.00000226        0.00000107
     105         -0.801879        1.000000        0.00000023        0.00000224        0.00000062        0.00000021
     106         -0.801484        1.000000        0.00000090        0.00001024        0.00000238        0.00000059
     107         -0.800129        1.000000        0.00000015        0.00000018        0.00000122        0.00000021
     108         -0.799646        1.000000        0.00000001        0.00000002        0.00000007        0.00000002
     109         -0.798090        1.000000        0.00000002        0.00000002        0.00000009        0.00000007
     110         -0.797914        1.000000        0.00000020        0.00000001        0.00000188        0.00000025
     111         -0.797215        1.000000        0.00000029        0.00000200        0.00000049        0.00000050
     112         -0.795764        1.000000        0.00000037        0.00000005        0.00000098        0.00000021
     113         -0.794971        1.000000        0.00000007        0.00000061        0.00000017        0.00000013
     114         -0.794355        1.000000        0.00000008        0.00000053        0.00000072        0.00000019
     115         -0.792865        1.000000        0.00000007        0.00000005        0.00000003        0.00000031
     116         -0.790275        1.000000        0.00000058        0.00000039        0.00000176        0.00000996
     117         -0.789304        1.000000        0.00000004        0.00000030        0.00000004        0.00000004
     118         -0.785858        1.000000        0.00000002        0.00000006        0.00000001        0.00000005
     119         -0.782760        1.000000        0.00000523        0.00000001        0.00002169        0.00000116
     120         -0.777688        1.000000        0.00000009        0.00000110        0.00000078        0.00000025
     121         -0.768388        1.000000        0.00000008        0.00000086        0.00000018        0.00000009
     122         -0.760073        1.000000        0.00000015        0.00000053        0.00000007        0.00000001
     123         -0.702595        1.000000        0.00000003        0.00000002        0.00000001        0.00000070
     124         -0.679695        1.000000        0.00000057        0.00000209        0.00000001        0.00000012
     125         -0.628691        1.000000        0.00003914        0.00002964        0.00008383        0.00004275
     126         -0.626815        1.000000        0.00003496        0.00003082        0.00002453        0.00001100
     127         -0.619785        1.000000        0.00001495        0.00002116        0.00001503        0.00000213
     128         -0.616088        1.000000        0.00001750        0.00002841        0.00002293        0.00000833
     129         -0.604808        1.000000        0.00004117        0.00002799        0.00003096        0.00002130
     130         -0.578209        1.000000        0.00016568        0.00006631        0.00007748        0.00004724
     131         -0.569905        1.000000        0.00137851        0.00005591        0.00008783        0.00109224
     132         -0.563380        1.000000        0.00021722        0.00005302        0.00002378        0.00008224
     133         -0.540437        1.000000        0.08544855        0.00034006        0.00460311        0.00034536
     134         -0.537544        1.000000        0.08032981        0.00062061        0.00264090        0.00196898
     135         -0.535460        1.000000        0.12531735        0.00061762        0.00433518        0.00632412
     136         -0.533739        1.000000        0.06848783        0.00256248        0.01140901        0.00077733
     137         -0.531954        1.000000        0.05965436        0.00299878        0.01106057        0.00250176
     138         -0.530429        1.000000        0.02564168        0.00053002        0.01838936        0.00540371
     139         -0.529255        1.000000        0.06381607        0.00042111        0.01925889        0.01019858
     140         -0.527954        1.000000        0.07296906        0.00125061        0.01408187        0.00407200
     141         -0.526260        1.000000        0.00087657        0.00061229        0.00905264        0.00665125
     142         -0.525529        1.000000        0.05510097        0.00228720        0.01208980        0.00720935
     143         -0.523245        1.000000        0.00722225        0.02090508        0.00163909        0.00111864
     144         -0.522509        1.000000        0.01194441        0.00679074        0.00878953        0.01428989
     145         -0.521454        1.000000        0.00764240        0.00941589        0.01019648        0.00379736
     146         -0.520555        1.000000        0.02395821        0.00174323        0.02627491        0.00353250
     147         -0.520411        1.000000        0.01005796        0.00047729        0.01047930        0.02153845
     148         -0.517517        1.000000        0.03227655        0.00602852        0.00566426        0.00962642
     149         -0.517357        1.000000        0.02478288        0.00346287        0.00657106        0.01144627
     150         -0.517247        1.000000        0.00895974        0.00296968        0.00866802        0.01730417
     151         -0.516849        1.000000        0.00682165        0.00493710        0.00977870        0.01104447
     152         -0.515704        1.000000        0.02695369        0.00794995        0.00115442        0.01130799
     153         -0.514020        1.000000        0.00838149        0.00080866        0.00546265        0.02122002
     154         -0.513486        1.000000        0.03133341        0.00951443        0.00621011        0.00325328
     155         -0.511815        1.000000        0.00337864        0.02556267        0.00195313        0.00362170
     156         -0.511161        1.000000        0.00090931        0.00064355        0.00060678        0.00653956
     157         -0.510440        1.000000        0.00284677        0.02731899        0.00053986        0.00485905
     158         -0.509185        1.000000        0.00693737        0.00686266        0.00221822        0.00865541
     159         -0.508880        1.000000        0.00955349        0.01008196        0.00644541        0.01412943
     160         -0.508761        1.000000        0.00958015        0.00708912        0.00595174        0.01310129
     161         -0.505965        1.000000        0.00437550        0.02019690        0.00177601        0.00834936
     162         -0.505471        1.000000        0.00220340        0.02350362        0.00213776        0.00307785
     163         -0.503344        1.000000        0.00668899        0.00790302        0.00465483        0.00371400
     164         -0.502359        1.000000        0.00650275        0.00200012        0.00220522        0.01517749
     165         -0.501881        1.000000        0.01196885        0.00380837        0.00380427        0.00284527
     166         -0.501385        1.000000        0.00457088        0.00356216        0.01637175        0.00046504
     167         -0.500635        1.000000        0.00422664        0.00924763        0.01328395        0.00205405
     168         -0.498611        1.000000        0.00316918        0.00154200        0.00117183        0.00073818
     169         -0.497881        1.000000        0.00288710        0.00251883        0.00146279        0.00051945
     170         -0.493579        1.000000        0.00100180        0.00225172        0.00205637        0.00100400
     171         -0.491025        1.000000        0.00536165        0.00198385        0.00070065        0.00042996
     172         -0.489569        1.000000        0.00310560        0.00030717        0.00322344        0.00050298
     173         -0.489364        1.000000        0.00566719        0.00293579        0.00148751        0.00021714
     174         -0.485712        1.000000        0.00414592        0.00417485        0.00064880        0.00051238
     175         -0.483446        1.000000        0.00499572        0.00364133        0.00034957        0.00045122
     176         -0.481184        1.000000        0.00154159        0.00114329        0.00000159        0.00003062
     177         -0.480985        1.000000        0.00031469        0.00004024        0.00000696        0.00010451
     178         -0.477269        1.000000        0.00018618        0.00014163        0.00000014        0.00000207
     179         -0.467215        1.000000        0.00035139        0.00000050        0.00001552        0.00014005
     180         -0.465089        1.000000        0.00156526        0.00070352        0.00000677        0.00004476
     181         -0.464182        1.000000        0.00022260        0.00008577        0.00000112        0.00001164
     182         -0.462507        1.000000        0.00156701        0.00000221        0.00019554        0.00019317
     183         -0.462054        1.000000        0.00069104        0.00036567        0.00000594        0.00000719
     184         -0.456528        1.000000        0.00012487        0.00000038        0.00004666        0.00000565
     185         -0.453941        1.000000        0.00041322        0.00000101        0.00007680        0.00000440
     186         -0.453537        1.000000        0.00015111        0.00002894        0.00000022        0.00000155
     187         -0.452823        1.000000        0.00021126        0.00000764        0.00002508        0.00000506
     188         -0.451283        1.000000        0.00125277        0.00002392        0.00013086        0.00005409
     189         -0.450812        1.000000        0.00025698        0.00036072        0.00000015        0.00002431
     190         -0.449472        1.000000        0.00271844        0.00002489        0.00004708        0.00053100
     191         -0.449298        1.000000        0.00088246        0.00025495        0.00001154        0.00003259
     192         -0.448501        1.000000        0.00337809        0.00004428        0.00034394        0.00078595
     193         -0.446973        1.000000        0.00013324        0.00000525        0.00000239        0.00001452
     194         -0.445508        1.000000        0.00048609        0.00011627        0.00009096        0.00000956
     195         -0.445180        1.000000        0.00189117        0.00000294        0.00005240        0.00042958
     196         -0.444978        1.000000        0.00017891        0.00000405        0.00000397        0.00002993
     197         -0.444287        1.000000        0.00315908        0.00007140        0.00000536        0.00056782
     198         -0.442981        1.000000        0.00031083        0.00000316        0.00000352        0.00004206
     199         -0.442213        1.000000        0.00047838        0.00023167        0.00000667        0.00026185
     200         -0.441490        1.000000        0.00020041        0.00000351        0.00000849        0.00000652
     201         -0.441248        1.000000        0.00063969        0.00003455        0.00011522        0.00002291
     202         -0.439229        1.000000        0.00076456        0.00000429        0.00000607        0.00011212
     203         -0.437944        1.000000        0.00235277        0.00039297        0.00001914        0.00000732
     204         -0.435496        1.000000        0.00004539        0.00000053        0.00000513        0.00000041
     205         -0.435021        1.000000        0.00079377        0.00000408        0.00000127        0.00008027
     206         -0.433989        1.000000        0.00147805        0.00002929        0.00001772        0.00004457
     207         -0.433000        1.000000        0.01300198        0.00000880        0.00001125        0.00042976
     208         -0.432794        1.000000        0.00107103        0.00000260        0.00009334        0.00008424
     209         -0.432706        1.000000        0.00268895        0.00000867        0.00017001        0.00025903
     210         -0.431698        1.000000        0.00016612        0.00000154        0.00000247        0.00000560
     211         -0.431468        1.000000        0.00128701        0.00002311        0.00000457        0.00009505
     212         -0.430642        1.000000        0.00265079        0.00017835        0.00008727        0.00000545
     213         -0.430493        1.000000        0.00098208        0.00000352        0.00000803        0.00006158
     214         -0.430366        1.000000        0.00095786        0.00000388        0.00005094        0.00000260
     215         -0.429117        1.000000        0.00037053        0.00003234        0.00001716        0.00000966
     216         -0.428776        1.000000        0.00021354        0.00000574        0.00000127        0.00001696
     217         -0.428317        1.000000        0.00421498        0.00003099        0.00011733        0.00000280
     218         -0.428077        1.000000        0.00000771        0.00000001        0.00000077        0.00000008
     219         -0.427788        1.000000        0.00449500        0.00001875        0.00001290        0.00023702
     220         -0.427272        1.000000        0.00012468        0.00000222        0.00000856        0.00000273
     221         -0.425700        1.000000        0.00032228        0.00003517        0.00001672        0.00000064
     222         -0.425540        1.000000        0.00014607        0.00000903        0.00000643        0.00005419
     223         -0.424108        1.000000        0.00089367        0.00001213        0.00000369        0.00001306
     224         -0.424097        1.000000        0.00024055        0.00000201        0.00001183        0.00000280
     225         -0.423919        1.000000        0.00072144        0.00000339        0.00000139        0.00001659
     226         -0.423695        1.000000        0.01462913        0.00001675        0.00003138        0.00020248
     227         -0.423505        1.000000        0.00295902        0.00000883        0.00000443        0.00013139
     228         -0.423100        1.000000        0.00106414        0.00000405        0.00027302        0.00011392
     229         -0.423051        1.000000        0.00096706        0.00005167        0.00000273        0.00000581
     230         -0.422611        1.000000        0.00002827        0.00000177        0.00000179        0.00000110
     231         -0.422245        1.000000        0.00018639        0.00000804        0.00002602        0.00002800
     232         -0.421917        1.000000        0.00096707        0.00001856        0.00001049        0.00000731
     233         -0.421762        1.000000        0.00265393        0.00004792        0.00000482        0.00004958
     234         -0.420969        1.000000        0.00718154        0.00005443        0.00003345        0.00001414
     235         -0.419445        1.000000        0.00098087        0.00000220        0.00000127        0.00002801
     236         -0.419212        1.000000        0.00133744        0.00000582        0.00000508        0.00000944
     237         -0.419081        1.000000        0.00025135        0.00000144        0.00000303        0.00000157
     238         -0.418421        1.000000        0.00160999        0.00000480        0.00015022        0.00002403
     239         -0.417458        1.000000        0.00220944        0.00000244        0.00000187        0.00000618
     240         -0.416771        1.000000        0.00068757        0.00000245        0.00000536        0.00000207
     241         -0.416414        1.000000        0.00291359        0.00004938        0.00004019        0.00001732
     242         -0.416042        1.000000        0.00248665        0.00000711        0.00001716        0.00000463
     243         -0.413749        1.000000        0.00232496        0.00001906        0.00001074        0.00000224
     244         -0.413677        1.000000        0.00257921        0.00000711        0.00002157        0.00000019
     245         -0.413585        1.000000        0.00366444        0.00001013        0.00002624        0.00000215
     246         -0.412338        1.000000        0.00876747        0.00003894        0.00005973        0.00000766
     247         -0.412252        1.000000        0.00001707        0.00000007        0.00000051        0.00000421
     248         -0.412013        1.000000        0.00131292        0.00000382        0.00000385        0.00000207
     249         -0.409644        1.000000        0.01370359        0.00001767        0.00001452        0.00006676
     250         -0.409545        1.000000        0.00132755        0.00000665        0.00002110        0.00004999
     251         -0.409124        1.000000        0.00187037        0.00003024        0.00001049        0.00005292
     252         -0.408735        1.000000        0.01269673        0.00000349        0.00002017        0.00009101
     253         -0.408574        1.000000        0.03753301        0.00009181        0.00031400        0.00002479
     254         -0.408396        1.000000        0.00251571        0.00000885        0.00000500        0.00001729
     255         -0.408087        1.000000        0.02683136        0.00003119        0.00006362        0.00018373
     256         -0.407736        1.000000        0.00992041        0.00009354        0.00008981        0.00006752
     257         -0.407632        1.000000        0.00045337        0.00001200        0.00000413        0.00001290
     258         -0.407523        1.000000        0.03451581        0.00004109        0.00007431        0.00012452
     259         -0.406730        1.000000        0.03168686        0.00000684        0.00004125        0.00002565