# Projected DOS for atomic kind I at iteration step i = 0, E(Fermi) =    -0.116764 a.u.
#     MO Eigenvalue [a.u.]      Occupation                 s                py                pz                px
       1         -0.922699        1.000000        0.00001784        0.00004861        0.00000266        0.00007352
       2         -0.917641        1.000000        0.00001807        0.00003959        0.00007148        0.00002647
       3         -0.906124        1.000000        0.00000754        0.00002715        0.00002068        0.00002493
       4         -0.904902        1.000000        0.00003693        0.00007328        0.00006288        0.00007433
       5         -0.903713        1.000000        0.00005171        0.00001075        0.00006560        0.00019905
       6         -0.899852        1.000000        0.00003163        0.00000294        0.00022550        0.00000316
       7         -0.898242        1.000000        0.00003927        0.00010851        0.00005313        0.00007867
       8         -0.894338        1.000000        0.00016557        0.00003831        0.00016623        0.00036629
       9         -0.893498        1.000000        0.00000474        0.00003239        0.00000956        0.00004606
      10         -0.891588        1.000000        0.00003999        0.00007692        0.00003052        0.00018122
      11         -0.890701        1.000000        0.00010672        0.00007033        0.00008100        0.00027723
      12         -0.889710        1.000000        0.00008648        0.00013459        0.00000594        0.00026129
      13         -0.889305        1.000000        0.00002029        0.00003040        0.00007308        0.00000221
      14         -0.885872        1.000000        0.00002596        0.00000058        0.00012719        0.00002538
      15         -0.883268        1.000000        0.00005690        0.00000077        0.00011712        0.00014457
      16         -0.881401        1.000000        0.00096742        0.00042041        0.00108541        0.00032663
      17         -0.880007        1.000000        0.00005148        0.00000602        0.00002552        0.00022280
      18         -0.879932        1.000000        0.00020368        0.00030720        0.00044905        0.00016392
      19         -0.879195        1.000000        0.00003470        0.00000992        0.00010336        0.00014338
      20         -0.877120        1.000000        0.00006359        0.00002071        0.00005719        0.00023047
      21         -0.876881        1.000000        0.00021255        0.00030326        0.00036481        0.00019739
      22         -0.876777        1.000000        0.00001515        0.00007580        0.00000702        0.00002673
      23         -0.876591        1.000000        0.00012470        0.00011043        0.00012817        0.00009426
      24         -0.875751        1.000000        0.00008704        0.00031400        0.00000474        0.00005086
      25         -0.874593        1.000000        0.00003117        0.00000511        0.00010120        0.00005980
      26         -0.874284        1.000000        0.00015530        0.00035685        0.00046705        0.00017136
      27         -0.872413        1.000000        0.00014671        0.00001233        0.00000375        0.00049379
      28         -0.872372        1.000000        0.00000588        0.00000933        0.00004224        0.00000993
      29         -0.871916        1.000000        0.00004191        0.00001416        0.00000099        0.00019953
      30         -0.871678        1.000000        0.00001904        0.00003610        0.00002943        0.00007501
      31         -0.870522        1.000000        0.00027927        0.00061019        0.00037400        0.00020013
      32         -0.869366        1.000000        0.00002006        0.00001266        0.00008145        0.00005038
      33         -0.868389        1.000000        0.00001448        0.00001633        0.00007209        0.00001588
      34         -0.866452        1.000000        0.00001628        0.00001605        0.00001709        0.00004974
      35         -0.866010        1.000000        0.00001876        0.00002037        0.00002981        0.00005774
      36         -0.863358        1.000000        0.00006549        0.00001882        0.00007050        0.00012901
      37         -0.863143        1.000000        0.00004413        0.00000217        0.00010444        0.00010744
      38         -0.862888        1.000000        0.00010516        0.00000161        0.00033704        0.00005300
      39         -0.860434        1.000000        0.00000728        0.00002760        0.00013705        0.00002946
      40         -0.857996        1.000000        0.00002049        0.00002595        0.00005391        0.00005916
      41         -0.857579        1.000000        0.00005988        0.00002129        0.00023964        0.00003931
      42         -0.857446        1.000000        0.00000186        0.00001915        0.00000539        0.00000902
      43         -0.857346        1.000000        0.00010859        0.00011177        0.00006314        0.00009956
      44         -0.856561        1.000000        0.00002971        0.00004109        0.00014824        0.00001471
      45         -0.854810        1.000000        0.00002677        0.00008970        0.00007729        0.00000232
      46         -0.854427        1.000000        0.00000158        0.00001404        0.00001418        0.00000237
      47         -0.853396        1.000000        0.00005686        0.00001266        0.00017645        0.00003659
      48         -0.852822        1.000000        0.00004714        0.00010542        0.00006794        0.00007077
      49         -0.852666        1.000000        0.00004811        0.00002894        0.00011652        0.00016116
      50         -0.852067        1.000000        0.00003127        0.00002492        0.00002898        0.00007256
      51         -0.850804        1.000000        0.00011472        0.00020212        0.00011540        0.00011479
      52         -0.849750        1.000000        0.00001948        0.00002178        0.00000627        0.00013469
      53         -0.849405        1.000000        0.00003465        0.00006890        0.00006218        0.00008417
      54         -0.849125        1.000000        0.00000726        0.00001634        0.00001496        0.00003876
      55         -0.848775        1.000000        0.00003655        0.00012822        0.00001439        0.00005158
      56         -0.848644        1.000000        0.00002969        0.00000614        0.00011897        0.00000820
      57         -0.847424        1.000000        0.00009826        0.00002399        0.00029885        0.00002380
      58         -0.846387        1.000000        0.00000892        0.00002135        0.00001228        0.00001896
      59         -0.846164        1.000000        0.00001658        0.00001811        0.00009235        0.00000968
      60         -0.845140        1.000000        0.00002130        0.00007063        0.00001192        0.00004815
      61         -0.842213        1.000000        0.00000592        0.00002343        0.00001493        0.00000774
      62         -0.841325        1.000000        0.00000659        0.00002652        0.00001491        0.00009746
      63         -0.840938        1.000000        0.00088069        0.00031453        0.00067086        0.00019235
      64         -0.840316        1.000000        0.00000169        0.00000532        0.00000487        0.00000336
      65         -0.837347        1.000000        0.00001569        0.00002256        0.00001748        0.00005682
      66         -0.836774        1.000000        0.00004464        0.00001396        0.00024041        0.00001535
      67         -0.836618        1.000000        0.00017289        0.00001038        0.00046721        0.00003898
      68         -0.836244        1.000000        0.00004001        0.00000442        0.00021333        0.00001051
      69         -0.836132        1.000000        0.00007016        0.00006006        0.00008869        0.00007137
      70         -0.832962        1.000000        0.00007593        0.00009978        0.00005350        0.00010415
      71         -0.832653        1.000000        0.00005794        0.00005038        0.00006127        0.00011630
      72         -0.832255        1.000000        0.00000929        0.00001272        0.00001828        0.00003426
      73         -0.832159        1.000000        0.00018418        0.00013113        0.00028800        0.00027117
      74         -0.831851        1.000000        0.00006262        0.00001079        0.00007950        0.00018577
      75         -0.831670        1.000000        0.00001214        0.00006813        0.00004716        0.00001642
      76         -0.831196        1.000000        0.00009060        0.00001828        0.00024448        0.00001872
      77         -0.829301        1.000000        0.00001856        0.00001641        0.00001706        0.00006532
      78         -0.828871        1.000000        0.00004629        0.00003110        0.00021052        0.00001347
      79         -0.828664        1.000000        0.00000803        0.00001508        0.00001296        0.00000847
      80         -0.824925        1.000000        0.00002311        0.00004995        0.00002601        0.00003871
      81         -0.824857        1.000000        0.00001516        0.00001661        0.00008607        0.00005125
      82         -0.822222        1.000000        0.00004445        0.00012172        0.00002454        0.00001600
      83         -0.822055        1.000000        0.00006716        0.00001596        0.00010215        0.00017262
      84         -0.821146        1.000000        0.00009238        0.00001834        0.00019229        0.00006359
      85         -0.819650        1.000000        0.00005814        0.00008764        0.00003194        0.00003681
      86         -0.819152        1.000000        0.00245754        0.00056035        0.00166462        0.00044682
      87         -0.818879        1.000000        0.00006899        0.00000901        0.00018444        0.00005482
      88         -0.818088        1.000000        0.00005165        0.00014299        0.00001561        0.00005002
      89         -0.817863        1.000000        0.00002814        0.00004417        0.00001370        0.00003617
      90         -0.816869        1.000000        0.00003158        0.00000465        0.00014792        0.00011097
      91         -0.816614        1.000000        0.00000993        0.00003088        0.00000698        0.00005751
      92         -0.815911        1.000000        0.00044386        0.00002022        0.00096934        0.00004092
      93         -0.814258        1.000000        0.00000183        0.00000435        0.00000448        0.00000272
      94         -0.813940        1.000000        0.00002143        0.00001186        0.00010315        0.00003890
      95         -0.813826        1.000000        0.00001587        0.00004241        0.00002824        0.00002521
      96         -0.813378        1.000000        0.00002145        0.00004848        0.00001128        0.00002737
      97         -0.812915        1.000000        0.00010419        0.00003918        0.00015868        0.00007465
      98         -0.810034        1.000000        0.00001811        0.00003848        0.00001900        0.00002121
      99         -0.808765        1.000000        0.00000755        0.00001205        0.00002452        0.00001433
     100         -0.805820        1.000000        0.00006286        0.00003301        0.00004165        0.00010231
     101         -0.805599        1.000000        0.00003224        0.00012248        0.00006590        0.00001298
     102         -0.804598        1.000000        0.00004385        0.00009405        0.00005550        0.00003724
     103         -0.803423        1.000000        0.00030783        0.00041949        0.00018341        0.00041084
     104         -0.803070        1.000000        0.00003421        0.00003304        0.00001933        0.00002624
     105         -0.802991        1.000000        0.00003321        0.00001704        0.00021809        0.00003296
     106         -0.801788        1.000000        0.00004422        0.00006345        0.00002229        0.00005222
     107         -0.801345        1.000000        0.00016248        0.00007117        0.00013447        0.00023185
     108         -0.800279        1.000000        0.00001738        0.00001534        0.00000372        0.00004568
     109         -0.798102        1.000000        0.00000642        0.00000276        0.00001874        0.00001066
     110         -0.797862        1.000000        0.00000763        0.00001718        0.00000317        0.00002530
     111         -0.797099        1.000000        0.00004782        0.00004320        0.00009021        0.00008227
     112         -0.796561        1.000000        0.00159210        0.00003450        0.00295308        0.00000932
     113         -0.795982        1.000000        0.00004729        0.00008158        0.00007900        0.00002526
     114         -0.794971        1.000000        0.00002505        0.00002963        0.00005238        0.00004459
     115         -0.794373        1.000000        0.00001207        0.00002184        0.00001203        0.00000935
     116         -0.792876        1.000000        0.00009990        0.00002030        0.00003638        0.00008195
     117         -0.790343        1.000000        0.02412668        0.00379135        0.01341020        0.00308221
     118         -0.788945        1.000000        0.00001050        0.00002569        0.00001543        0.00001727
     119         -0.785873        1.000000        0.00001372        0.00004839        0.00002675        0.00002754
     120         -0.776631        1.000000        0.00005570        0.00005998        0.00009320        0.00004995
     121         -0.767026        1.000000        0.00004674        0.00004757        0.00006343        0.00004125
     122         -0.758609        1.000000        0.00002307        0.00009125        0.00001772        0.00003002
     123         -0.723550        1.000000        0.00006692        0.00014297        0.00002972        0.00011827
     124         -0.701849        1.000000        0.00005016        0.00005751        0.00001743        0.00002244
     125         -0.628674        1.000000        0.00195456        0.00040251        0.00044674        0.00027972
     126         -0.626936        1.000000        0.00192491        0.00030592        0.00032503        0.00018577
     127         -0.619795        1.000000        0.00210460        0.00029665        0.00040341        0.00018923
     128         -0.616088        1.000000        0.00177361        0.00035769        0.00043344        0.00049834
     129         -0.604832        1.000000        0.00101665        0.00021319        0.00027513        0.00022745
     130         -0.578200        1.000000        0.00360396        0.00040846        0.00018076        0.00041232
     131         -0.569977        1.000000        0.92055843        0.00034426        0.00070498        0.00037455
     132         -0.563397        1.000000        0.00498998        0.00023409        0.00057257        0.00007663
     133         -0.542976        1.000000        0.84411133        0.00585685        0.00384914        0.00354619
     134         -0.540041        1.000000        0.86304753        0.00401030        0.00281386        0.00126862
     135         -0.538854        1.000000        0.93673587        0.00073043        0.00223393        0.00294037
     136         -0.535177        1.000000        0.82412437        0.00515656        0.00690778        0.00374986
     137         -0.532326        1.000000        0.82706496        0.00235753        0.00301999        0.00311141
     138         -0.531692        1.000000        0.84224685        0.00364583        0.00293166        0.00260077
     139         -0.531348        1.000000        0.84288330        0.00274129        0.00314687        0.00292699
     140         -0.529638        1.000000        0.82739175        0.00229684        0.00464858        0.00208222
     141         -0.527535        1.000000        0.87232941        0.00129715        0.00325917        0.00393050
     142         -0.525232        1.000000        0.87672831        0.00266856        0.00286097        0.00273392
     143         -0.522620        1.000000        0.94220455        0.00074452        0.00315701        0.00176551
     144         -0.522063        1.000000        0.86057024        0.00175211        0.00269969        0.00136002
     145         -0.521571        1.000000        0.92081900        0.00097949        0.00296391        0.00094740
     146         -0.521407        1.000000        0.70618106        0.00056005        0.00226640        0.00081955
     147         -0.519624        1.000000        0.86313267        0.00193831        0.00337684        0.00203308
     148         -0.518940        1.000000        0.93195892        0.00075276        0.00041760        0.00209594
     149         -0.517590        1.000000        0.84216562        0.00092003        0.00199268        0.00130365
     150         -0.517138        1.000000        0.86258327        0.00178403        0.00321311        0.00119370
     151         -0.516841        1.000000        0.85442796        0.00047341        0.00135216        0.00120575
     152         -0.514868        1.000000        0.84938676        0.00129206        0.00261968        0.00121309
     153         -0.513645        1.000000        0.91376675        0.00042277        0.00044576        0.00057891
     154         -0.513369        1.000000        0.91375811        0.00197150        0.00071132        0.00139829
     155         -0.512315        1.000000        0.85985034        0.00113857        0.00160852        0.00179659
     156         -0.512010        1.000000        0.91523485        0.00155761        0.00095595        0.00032998
     157         -0.510582        1.000000        0.88752697        0.00123535        0.00155928        0.00101913
     158         -0.508406        1.000000        0.91389049        0.00094929        0.00040851        0.00130505
     159         -0.507899        1.000000        0.93619214        0.00170965        0.00054317        0.00070369
     160         -0.507096        1.000000        0.94146119        0.00184250        0.00040778        0.00128770
     161         -0.505756        1.000000        0.94111367        0.00052187        0.00071090        0.00028212
     162         -0.504544        1.000000        0.88703568        0.00090525        0.00084539        0.00095362
     163         -0.503456        1.000000        0.95073933        0.00038476        0.00050017        0.00100019
     164         -0.501924        1.000000        0.90585120        0.00020154        0.00094865        0.00105663
     165         -0.501458        1.000000        0.94523414        0.00032696        0.00033714        0.00075839
     166         -0.501052        1.000000        0.91029854        0.00034065        0.00055961        0.00087292
     167         -0.500437        1.000000        0.92143177        0.00040691        0.00106336        0.00093441
     168         -0.498709        1.000000        0.15988841        0.00180339        0.00150039        0.00132746
     169         -0.498006        1.000000        0.22362423        0.00130538        0.00098761        0.00124369
     170         -0.493542        1.000000        0.14431719        0.00276723        0.00218410        0.00061636
     171         -0.490900        1.000000        0.17465092        0.00215920        0.00310775        0.00083450
     172         -0.489613        1.000000        0.14267564        0.00559529        0.00178745        0.00141323
     173         -0.489299        1.000000        0.27085033        0.00106090        0.00326483        0.00129324
     174         -0.485619        1.000000        0.20619466        0.00242936        0.00121165        0.00175507
     175         -0.483291        1.000000        0.18331060        0.00204671        0.00226154        0.00175430
     176         -0.481203        1.000000        0.04013692        0.00162014        0.00074669        0.00095552
     177         -0.481028        1.000000        0.00576054        0.00023800        0.00026978        0.00012122
     178         -0.477279        1.000000        0.00468131        0.00034393        0.00040915        0.00027744
     179         -0.467260        1.000000        0.00517247        0.00038658        0.00037937        0.00018789
     180         -0.465086        1.000000        0.03205254        0.00253460        0.00057926        0.00118165
     181         -0.464208        1.000000        0.00408838        0.00034113        0.00018353        0.00016401
     182         -0.462535        1.000000        0.01478598        0.00026570        0.00117280        0.00178917
     183         -0.462082        1.000000        0.02180417        0.00087903        0.00105972        0.00233727
     184         -0.456549        1.000000        0.00115649        0.00013452        0.00011967        0.00017011
     185         -0.453958        1.000000        0.00170293        0.00002347        0.00065390        0.00013506
     186         -0.453559        1.000000        0.00135194        0.00021740        0.00003057        0.00025874
     187         -0.452925        1.000000        0.00405637        0.00029014        0.00044042        0.00093267
     188         -0.451295        1.000000        0.00662759        0.00158044        0.00013260        0.00139640
     189         -0.450827        1.000000        0.01881402        0.00029481        0.00147532        0.00209290
     190         -0.449471        1.000000        0.01160427        0.00015158        0.00041811        0.00493058
     191         -0.449319        1.000000        0.00919052        0.00098303        0.00162413        0.00062888
     192         -0.448502        1.000000        0.02547336        0.00070109        0.00089753        0.00521949
     193         -0.447004        1.000000        0.00039155        0.00005935        0.00015243        0.00024487
     194         -0.445535        1.000000        0.02747348        0.00010460        0.00096344        0.00052210
     195         -0.445249        1.000000        0.01110618        0.00011651        0.00201515        0.00405682
     196         -0.445015        1.000000        0.00057963        0.00005388        0.00013107        0.00034844
     197         -0.444310        1.000000        0.01187427        0.00033487        0.00123658        0.00509463
     198         -0.443027        1.000000        0.00166863        0.00053764        0.00034163        0.00025202
     199         -0.442179        1.000000        0.01442302        0.00071401        0.00016117        0.00434805
     200         -0.441508        1.000000        0.00113838        0.00053665        0.00015218        0.00016809
     201         -0.441420        1.000000        0.01375266        0.00110965        0.00030444        0.00517686
     202         -0.439313        1.000000        0.00373863        0.00162747        0.00090316        0.00066216
     203         -0.437975        1.000000        0.00958883        0.00367632        0.00028516        0.00058054
     204         -0.435761        1.000000        0.00017658        0.00010831        0.00015342        0.00005579
     205         -0.435046        1.000000        0.00221832        0.00022593        0.00038154        0.00041223
     206         -0.434007        1.000000        0.00337606        0.00113713        0.00084135        0.00092205
     207         -0.432982        1.000000        0.01073747        0.00173368        0.00112503        0.00869125
     208         -0.432814        1.000000        0.00302372        0.00037523        0.00047163        0.00089437
     209         -0.432720        1.000000        0.01070554        0.00105257        0.00094977        0.00307629
     210         -0.431727        1.000000        0.00007998        0.00001210        0.00004104        0.00010337
     211         -0.431595        1.000000        0.00566707        0.00146843        0.00016498        0.00349481
     212         -0.430742        1.000000        0.00598568        0.00190665        0.00125071        0.00246110
     213         -0.430564        1.000000        0.00208076        0.00013828        0.00033630        0.00118791
     214         -0.430404        1.000000        0.00248011        0.00078933        0.00099256        0.00087772
     215         -0.429155        1.000000        0.00333767        0.00014757        0.00116496        0.00077055
     216         -0.428831        1.000000        0.00086894        0.00013296        0.00030048        0.00022781
     217         -0.428331        1.000000        0.00270654        0.00134638        0.00065007        0.00140983
     218         -0.428157        1.000000        0.00001504        0.00000807        0.00000306        0.00001769
     219         -0.427798        1.000000        0.01131402        0.00199690        0.00148634        0.00253528
     220         -0.427419        1.000000        0.00067368        0.00015465        0.00048719        0.00059515
     221         -0.425718        1.000000        0.00134063        0.00044315        0.00005141        0.00022437
     222         -0.425552        1.000000        0.00061818        0.00064270        0.00006774        0.00036263
     223         -0.424168        1.000000        0.00006168        0.00020557        0.00067618        0.00011446
     224         -0.424136        1.000000        0.00030714        0.00038656        0.00013459        0.00005549
     225         -0.423925        1.000000        0.00051005        0.00016801        0.00049816        0.00023535
     226         -0.423712        1.000000        0.00284201        0.00049185        0.00515818        0.00249226
     227         -0.423536        1.000000        0.00173928        0.00025567        0.00047370        0.00170041
     228         -0.423112        1.000000        0.00529146        0.00009510        0.00370103        0.00091762
     229         -0.423069        1.000000        0.00055005        0.00090306        0.00030445        0.00012796
     230         -0.422543        1.000000        0.00015340        0.00005931        0.00003451        0.00006347
     231         -0.422259        1.000000        0.00140161        0.00016114        0.00126544        0.00036003
     232         -0.421830        1.000000        0.00206260        0.00006384        0.00037429        0.00088406
     233         -0.421705        1.000000        0.00263474        0.00120968        0.00108122        0.00120261
     234         -0.420988        1.000000        0.00531644        0.00184519        0.00095077        0.00286186
     235         -0.419480        1.000000        0.00037020        0.00028202        0.00012754        0.00045892
     236         -0.419282        1.000000        0.00179481        0.00022103        0.00154839        0.00061911
     237         -0.419058        1.000000        0.00012578        0.00007353        0.00006653        0.00008603
     238         -0.418417        1.000000        0.00063444        0.00023981        0.00012822        0.00035382
     239         -0.417533        1.000000        0.00122933        0.00113605        0.00105538        0.00013825
     240         -0.416798        1.000000        0.00018840        0.00012077        0.00030080        0.00007130
     241         -0.416443        1.000000        0.00223679        0.00080701        0.00089824        0.00106673
     242         -0.416067        1.000000        0.00084712        0.00029757        0.00039238        0.00121074
     243         -0.413800        1.000000        0.00080963        0.00079686        0.00088831        0.00043396
     244         -0.413723        1.000000        0.00100608        0.00060830        0.00049321        0.00036708
     245         -0.413484        1.000000        0.00113770        0.00091853        0.00065915        0.00073836
     246         -0.412383        1.000000        0.00240015        0.00151540        0.00180895        0.00142930
     247         -0.412359        1.000000        0.00008275        0.00004687        0.00006033        0.00006719
     248         -0.411962        1.000000        0.00021249        0.00024845        0.00017499        0.00025721
     249         -0.409583        1.000000        0.00181623        0.00020025        0.00173042        0.00103745
     250         -0.409526        1.000000        0.00318313        0.00190260        0.00174494        0.00192010
     251         -0.409195        1.000000        0.00146473        0.00050869        0.00068197        0.00012579
     252         -0.408624        1.000000        0.00866256        0.00220288        0.00503989        0.00272131
     253         -0.408515        1.000000        0.00415901        0.00288780        0.00169959        0.00163922
     254         -0.408265        1.000000        0.00056158        0.00028172        0.00024793        0.00072628
     255         -0.408098        1.000000        0.00478268        0.00227287        0.00284666        0.00512272
     256         -0.407731        1.000000        0.00494354        0.00140893        0.00159140        0.00214320
     257         -0.407659        1.000000        0.00020614        0.00026561        0.00017305        0.00023048
     258         -0.407521        1.000000        0.00535862        0.00195352        0.00191584        0.00463207
     259         -0.406818        1.000000        0.00520342        0.00398756        0.00329325        0.00300714