# Projected DOS for atomic kind I at iteration step i = 0, E(Fermi) =    -0.147204 a.u.
#     MO Eigenvalue [a.u.]      Occupation                 s                py                pz                px
       1         -0.932601        1.000000        0.00001529        0.00009538        0.00000070        0.00003125
       2         -0.927664        1.000000        0.00007631        0.00010578        0.00013124        0.00012690
       3         -0.917399        1.000000        0.00004912        0.00019940        0.00000622        0.00007126
       4         -0.915157        1.000000        0.00000917        0.00004451        0.00002567        0.00000132
       5         -0.914287        1.000000        0.00001490        0.00000572        0.00007421        0.00005704
       6         -0.914271        1.000000        0.00011924        0.00022327        0.00032670        0.00007399
       7         -0.913618        1.000000        0.00051364        0.00038076        0.00067574        0.00002678
       8         -0.910380        1.000000        0.00002975        0.00000208        0.00007960        0.00008043
       9         -0.910074        1.000000        0.00003402        0.00008921        0.00004810        0.00010600
      10         -0.909818        1.000000        0.00034700        0.00010734        0.00051196        0.00057177
      11         -0.908270        1.000000        0.00003006        0.00003872        0.00016403        0.00000158
      12         -0.906450        1.000000        0.00003228        0.00003752        0.00000629        0.00016908
      13         -0.902559        1.000000        0.00048873        0.00024531        0.00048823        0.00019651
      14         -0.899685        1.000000        0.00019641        0.00046696        0.00038486        0.00023494
      15         -0.898768        1.000000        0.00016415        0.00046122        0.00014562        0.00021726
      16         -0.896304        1.000000        0.00003774        0.00002725        0.00004547        0.00016583
      17         -0.893825        1.000000        0.00015224        0.00019066        0.00017614        0.00031566
      18         -0.889254        1.000000        0.00002000        0.00005646        0.00007993        0.00002751
      19         -0.886911        1.000000        0.00000079        0.00000569        0.00000126        0.00000456
      20         -0.885845        1.000000        0.00003699        0.00003005        0.00023005        0.00000005
      21         -0.879739        1.000000        0.00005313        0.00002202        0.00011399        0.00023070
      22         -0.878850        1.000000        0.00276888        0.00137396        0.00229433        0.00032814
      23         -0.878192        1.000000        0.00169739        0.00009276        0.00241002        0.00144201
      24         -0.876584        1.000000        0.00006188        0.00011337        0.00010257        0.00011485
      25         -0.870920        1.000000        0.00001517        0.00004475        0.00004150        0.00002657
      26         -0.869373        1.000000        0.00000726        0.00001527        0.00001010        0.00004935
      27         -0.866703        1.000000        0.00001221        0.00008206        0.00008435        0.00003806
      28         -0.864538        1.000000        0.00000364        0.00000886        0.00003441        0.00000090
      29         -0.860287        1.000000        0.00005321        0.00008807        0.00008697        0.00009214
      30         -0.860056        1.000000        0.00039093        0.00118791        0.00020378        0.00005286
      31         -0.856540        1.000000        0.00008744        0.00009005        0.00025155        0.00006661
      32         -0.855185        1.000000        0.00031075        0.00002025        0.00110423        0.00005496
      33         -0.849988        1.000000        0.00000000        0.00000001        0.00000001        0.00000002
      34         -0.848266        1.000000        0.00005483        0.00010211        0.00007460        0.00004807
      35         -0.845173        1.000000        0.01301748        0.00535848        0.00855513        0.00032050
      36         -0.844364        1.000000        0.00000220        0.00000651        0.00000078        0.00001143
      37         -0.844057        1.000000        0.00000001        0.00000006        0.00000017        0.00000016
      38         -0.842460        1.000000        0.00004823        0.00000655        0.00002804        0.00023665
      39         -0.841009        1.000000        0.00008781        0.00007330        0.00004687        0.00020748
      40         -0.840749        1.000000        0.00003318        0.00005161        0.00005436        0.00008444
      41         -0.840304        1.000000        0.00010075        0.00025468        0.00008178        0.00010356
      42         -0.837257        1.000000        0.00005595        0.00004431        0.00000442        0.00027666
      43         -0.837131        1.000000        0.00013889        0.00009774        0.00044222        0.00007201
      44         -0.830499        1.000000        0.00006364        0.00011200        0.00011746        0.00004813
      45         -0.827251        1.000000        0.00002045        0.00001033        0.00007727        0.00000665
      46         -0.825005        1.000000        0.00000597        0.00000940        0.00004222        0.00000236
      47         -0.651897        1.000000        0.00102006        0.00023067        0.00023892        0.00007795
      48         -0.648160        1.000000        0.00137094        0.00026445        0.00020982        0.00014200
      49         -0.646541        1.000000        0.00255232        0.00049871        0.00056574        0.00039053
      50         -0.621140        1.000000        0.00103548        0.00006490        0.00027278        0.00005837
      51         -0.611515        1.000000        0.00161187        0.00021421        0.00028347        0.00010242
      52         -0.611438        1.000000        0.01772604        0.00047887        0.00037105        0.00051688
      53         -0.609278        1.000000        0.00193846        0.00034755        0.00012038        0.00031790
      54         -0.598164        1.000000        0.94904972        0.00098459        0.01480358        0.01618964
      55         -0.597766        1.000000        0.91708374        0.00537838        0.00608004        0.00049147
      56         -0.570013        1.000000        0.82965021        0.00669157        0.00623520        0.00683102
      57         -0.567667        1.000000        0.84084372        0.00674866        0.00621717        0.00437342
      58         -0.563300        1.000000        0.87253290        0.00443643        0.00718476        0.00464566
      59         -0.560081        1.000000        0.86279707        0.00603064        0.00534863        0.00217421
      60         -0.558359        1.000000        0.80950826        0.00249233        0.00298215        0.00318313
      61         -0.556976        1.000000        0.83836495        0.00295058        0.00390472        0.00278612
      62         -0.556070        1.000000        0.83330434        0.00422153        0.00457054        0.00488253
      63         -0.554165        1.000000        0.87839954        0.00241971        0.00622861        0.00365678
      64         -0.553688        1.000000        0.89415104        0.00236028        0.00493100        0.00368995
      65         -0.551180        1.000000        0.91284987        0.00108128        0.00237330        0.00066239
      66         -0.549893        1.000000        0.87854379        0.00252762        0.00294657        0.00345301
      67         -0.547784        1.000000        0.85966587        0.00385665        0.00382508        0.00358502
      68         -0.546127        1.000000        0.82558368        0.00229324        0.00195096        0.00248317
      69         -0.545527        1.000000        0.88732312        0.00214494        0.00243940        0.00253113
      70         -0.545120        1.000000        0.85943068        0.00339690        0.00390624        0.00397653
      71         -0.544052        1.000000        0.93100800        0.00028242        0.00184965        0.00055082
      72         -0.543255        1.000000        0.83841701        0.00168582        0.00140735        0.00147288
      73         -0.541492        1.000000        0.90389665        0.00133182        0.00076620        0.00113144
      74         -0.541047        1.000000        0.92303417        0.00125260        0.00168342        0.00140654
      75         -0.538704        1.000000        0.90856886        0.00143867        0.00097303        0.00061728
      76         -0.538480        1.000000        0.89636398        0.00129493        0.00110147        0.00083433
      77         -0.538359        1.000000        0.94951234        0.00034942        0.00074860        0.00054953
      78         -0.536829        1.000000        0.91608131        0.00186254        0.00288098        0.00062702
      79         -0.536566        1.000000        0.17676462        0.00090227        0.00078103        0.00125485
      80         -0.534539        1.000000        0.85484468        0.00175436        0.00078692        0.00173835
      81         -0.534011        1.000000        0.90486527        0.00113657        0.00051655        0.00162524
      82         -0.533515        1.000000        0.94995002        0.00047806        0.00040694        0.00138032
      83         -0.532510        1.000000        0.91086465        0.00172509        0.00143119        0.00135665
      84         -0.532063        1.000000        0.90150215        0.00158882        0.00065012        0.00039359
      85         -0.530632        1.000000        0.94494941        0.00061495        0.00050038        0.00067444
      86         -0.530478        1.000000        0.83982226        0.00070206        0.00082515        0.00037242
      87         -0.529789        1.000000        0.94357489        0.00043399        0.00115458        0.00060172
      88         -0.529542        1.000000        0.93307098        0.00102438        0.00069128        0.00196579
      89         -0.527806        1.000000        0.91957039        0.00026444        0.00049912        0.00085088
      90         -0.527426        1.000000        0.33852321        0.00127261        0.00252650        0.00103737
      91         -0.525596        1.000000        0.93091023        0.00016705        0.00189264        0.00082138
      92         -0.516804        1.000000        0.16946907        0.00456099        0.00023222        0.00099176
      93         -0.516735        1.000000        0.13960612        0.00134127        0.00182406        0.00090930
      94         -0.515385        1.000000        0.14498733        0.00133152        0.00100835        0.00141999
      95         -0.510503        1.000000        0.24386077        0.00381856        0.00077365        0.00208981
      96         -0.495347        1.000000        0.01215163        0.00159750        0.00016261        0.00033521
      97         -0.492672        1.000000        0.04939502        0.00103131        0.00078005        0.00241853
      98         -0.487358        1.000000        0.04366774        0.00109499        0.00358443        0.00129908
      99         -0.484721        1.000000        0.00491500        0.00116030        0.00023270        0.00011359
     100         -0.481282        1.000000        0.00930996        0.00154895        0.00109047        0.00055187
     101         -0.480864        1.000000        0.00367259        0.00165658        0.00028725        0.00078662
     102         -0.478723        1.000000        0.00685601        0.00202645        0.00071418        0.00024308
     103         -0.477550        1.000000        0.00706281        0.00098993        0.00043627        0.00204610
     104         -0.476059        1.000000        0.00339862        0.00002692        0.00092872        0.00081833
     105         -0.475910        1.000000        0.00640648        0.00239675        0.00017880        0.00074085
     106         -0.474289        1.000000        0.00336189        0.00134891        0.00029113        0.00040999
     107         -0.473439        1.000000        0.01669334        0.00301953        0.00130225        0.00125233
     108         -0.472459        1.000000        0.00732601        0.00022521        0.00183975        0.00214053
     109         -0.471999        1.000000        0.03882086        0.00065380        0.00030486        0.00572518
     110         -0.471829        1.000000        0.00314278        0.00085792        0.00085009        0.00023508
     111         -0.470481        1.000000        0.00483434        0.00200102        0.00063580        0.00065180
     112         -0.469965        1.000000        0.00403672        0.00073761        0.00025971        0.00286203
     113         -0.469843        1.000000        0.00770416        0.00152746        0.00061011        0.00270799
     114         -0.469584        1.000000        0.00414557        0.00103325        0.00032601        0.00107265
     115         -0.468896        1.000000        0.00109405        0.00049493        0.00024337        0.00005562
     116         -0.466355        1.000000        0.00057815        0.00003649        0.00010177        0.00003376
     117         -0.461796        1.000000        0.00382217        0.00047348        0.00203060        0.00031383
     118         -0.455765        1.000000        0.00322680        0.00029560        0.00007763        0.00175628
     119         -0.455671        1.000000        0.00062219        0.00008218        0.00019253        0.00379196
     120         -0.454673        1.000000        0.00065266        0.00046364        0.00009666        0.00014978
     121         -0.454550        1.000000        0.00568842        0.00207750        0.00016321        0.00173876
     122         -0.453021        1.000000        0.01248113        0.00348737        0.00212099        0.00281529
     123         -0.451525        1.000000        0.00076205        0.00000942        0.00009299        0.00054645
     124         -0.445580        1.000000        0.00011206        0.00013443        0.00003745        0.00004656
     125         -0.444478        1.000000        0.00015259        0.00004529        0.00024473        0.00011396
     126         -0.442913        1.000000        0.00053063        0.00013312        0.00023637        0.00056363
     127         -0.440331        1.000000        0.00034211        0.00011462        0.00057175        0.00038202
     128         -0.439302        1.000000        0.00015174        0.00006423        0.00016347        0.00011185
     129         -0.434825        1.000000        0.00574935        0.00273794        0.00089571        0.00219465
     130         -0.434677        1.000000        0.00124080        0.00077892        0.00035267        0.00056574
     131         -0.433154        1.000000        0.15515987        0.03918195        0.04125827        0.04048007
     132         -0.432881        1.000000        0.00043768        0.00018551        0.00011432        0.00048016
     133         -0.431256        1.000000        0.03597106        0.00877361        0.00988014        0.00963450
     134         -0.430707        1.000000        0.15079041        0.04024140        0.03555159        0.03615448
     135         -0.428462        1.000000        0.00086519        0.00065532        0.00057007        0.00016972
     136         -0.427734        1.000000        0.01251623        0.00553007        0.00441178        0.00470521
     137         -0.426930        1.000000        0.07898880        0.01925506        0.02321327        0.02255019
     138         -0.426619        1.000000        0.01009134        0.00255885        0.00145139        0.00278695
     139         -0.425452        1.000000        0.11271166        0.02654438        0.02889924        0.02774099
     140         -0.424772        1.000000        0.11500783        0.04121334        0.03428619        0.02799771
     141         -0.422355        1.000000        0.15018166        0.04775967        0.03484939        0.04282778
     142         -0.415794        1.000000        0.13918041        0.03465135        0.03869048        0.03762183
     143         -0.414198        1.000000        0.14025762        0.03222925        0.03293041        0.03765421
     144         -0.412600        1.000000        0.00007156        0.00007626        0.00002724        0.00001374
     145         -0.411428        1.000000        0.08485042        0.01908018        0.02006438        0.01643315
     146         -0.411226        1.000000        0.06185252        0.01375464        0.01482072        0.01089546
     147         -0.408676        1.000000        0.00000134        0.00000088        0.00000273        0.00000214
     148         -0.406736        1.000000        0.00243096        0.00180630        0.00028132        0.00025974
     149         -0.403502        1.000000        0.00028349        0.00005767        0.00005758        0.00004562
     150         -0.402987        1.000000        0.00000395        0.00001106        0.00000218        0.00001128
     151         -0.401760        1.000000        0.00023456        0.00028467        0.00002843        0.00039075
     152         -0.400387        1.000000        0.00333990        0.00066635        0.00221351        0.00067686
     153         -0.395709        1.000000        0.00345896        0.00143105        0.00096800        0.00445951
     154         -0.394701        1.000000        0.00178174        0.00054117        0.00113069        0.00023350
     155         -0.389757        1.000000        0.00240264        0.00835130        0.00481974        0.00273135
     156         -0.389654        1.000000        0.00283229        0.00761324        0.00451055        0.00230670
     157         -0.388132        1.000000        0.01000691        0.03192970        0.01275537        0.00290249
     158         -0.386249        1.000000        0.00174715        0.00208682        0.00090498        0.00090307
     159         -0.368548        1.000000        0.00093367        0.00193688        0.00195828        0.00051307
     160         -0.366408        1.000000        0.00082523        0.00191102        0.00211318        0.00036836
     161         -0.365566        1.000000        0.00112390        0.00263808        0.00020812        0.00100188
     162         -0.365096        1.000000        0.00144445        0.00544459        0.00232553        0.00114518
     163         -0.363699        1.000000        0.00044903        0.00120160        0.00027117        0.00076233
     164         -0.362148        1.000000        0.00096309        0.00172330        0.00160020        0.00390923
     165         -0.353240        1.000000        0.00017508        0.00099324        0.00063084        0.00036969
     166         -0.345984        1.000000        0.00076895        0.00161761        0.00210332        0.00053517
     167         -0.342519        1.000000        0.00032490        0.00067796        0.00100167        0.00277396
     168         -0.342061        1.000000        0.00051240        0.00128902        0.00114734        0.00215957
     169         -0.342014        1.000000        0.00049303        0.00095565        0.00212265        0.00072037
     170         -0.334285        1.000000        0.00054658        0.00512030        0.00446280        0.00277976
     171         -0.333105        1.000000        0.00256742        0.01606694        0.01508642        0.00732241
     172         -0.332611        1.000000        0.00071530        0.00335211        0.00335534        0.00091954
     173         -0.332134        1.000000        0.00298435        0.00262696        0.02302232        0.03268704
     174         -0.331920        1.000000        0.00172150        0.00251615        0.01024687        0.01434536
     175         -0.327802        1.000000        0.00012153        0.00061217        0.00084345        0.00030671
     176         -0.321941        1.000000        0.00033715        0.00061300        0.00090715        0.00247321
     177         -0.315533        1.000000        0.00038521        0.00027725        0.00245218        0.00488145
     178         -0.314688        1.000000        0.00008460        0.00025893        0.00162513        0.00132416
     179         -0.312353        1.000000        0.00001905        0.00001639        0.00014646        0.00090657
     180         -0.309858        1.000000        0.00066615        0.00816610        0.00743761        0.00124232
     181         -0.308708        1.000000        0.00971187        0.15274242        0.18958830        0.00948126
     182         -0.305956        1.000000        0.00076483        0.00328295        0.00267092        0.00388073
     183         -0.303496        1.000000        0.00005337        0.00129648        0.00086580        0.00041448
     184         -0.296031        1.000000        0.00000506        0.00040645        0.00012533        0.00091260
     185         -0.291957        1.000000        0.01475657        0.01052457        0.33284865        0.24080448
     186         -0.291516        1.000000        0.00028785        0.00117411        0.00282343        0.01522165
     187         -0.287501        1.000000        0.00015826        0.00463171        0.00139387        0.00014990
     188         -0.283565        1.000000        0.00025560        0.00054649        0.00180138        0.00656071
     189         -0.275133        1.000000        0.00061769        0.00897008        0.01183005        0.00541600
     190         -0.270440        1.000000        0.00120666        0.00790482        0.01116252        0.00976574
     191         -0.268117        1.000000        0.00014696        0.00066653        0.00489134        0.01097868
     192         -0.267425        1.000000        0.00001178        0.00123683        0.00025582        0.00022630
     193         -0.265546        1.000000        0.00010376        0.00335454        0.00207242        0.00039233
     194         -0.265281        1.000000        0.00030647        0.03165405        0.09069248        0.00479398
     195         -0.261404        1.000000        0.00003251        0.00040259        0.00277206        0.00140517
     196         -0.260278        1.000000        0.00044979        0.00470882        0.02709927        0.00373823
     197         -0.253534        1.000000        0.01186240        0.16351242        0.31746272        0.13128037
     198         -0.253198        1.000000        0.00008410        0.00130528        0.00202226        0.00243392
     199         -0.251214        1.000000        0.00930554        0.10840570        0.16721981        0.19550053
     200         -0.250226        1.000000        0.00403603        0.04916842        0.10178916        0.09423765
     201         -0.248409        1.000000        0.00700147        0.02272029        0.18848739        0.08172746
     202         -0.247399        1.000000        0.00893960        0.19272601        0.16979014        0.07100811
     203         -0.245442        1.000000        0.00934660        0.12094052        0.22352404        0.06776298
     204         -0.245006        1.000000        0.00850199        0.07552322        0.11998348        0.16965481
     205         -0.243288        1.000000        0.00743952        0.07635418        0.18614581        0.13364697
     206         -0.242185        1.000000        0.00990930        0.23583893        0.16590932        0.14120320
     207         -0.240327        1.000000        0.01094594        0.49869379        0.05276097        0.05066831
     208         -0.239640        1.000000        0.01148489        0.28805069        0.15268899        0.11349832
     209         -0.238620        1.000000        0.00138441        0.03297054        0.00975451        0.02357020
     210         -0.237395        1.000000        0.01061280        0.17780567        0.10251562        0.27363371
     211         -0.236718        1.000000        0.00733221        0.14305000        0.04675333        0.13573103
     212         -0.236343        1.000000        0.00264919        0.07248353        0.02099811        0.01922638
     213         -0.236028        1.000000        0.00440935        0.05155124        0.04860936        0.13317072
     214         -0.235925        1.000000        0.00148499        0.04573917        0.01178670        0.02592079
     215         -0.235747        1.000000        0.00324101        0.15420694        0.03472061        0.01987883
     216         -0.235461        1.000000        0.00296488        0.07582992        0.01969811        0.05433623
     217         -0.235178        1.000000        0.00644044        0.06826774        0.11552834        0.10372120
     218         -0.233796        1.000000        0.01116698        0.15432264        0.08783362        0.16081457
     219         -0.233142        1.000000        0.01211195        0.13208539        0.06063934        0.26831956
     220         -0.232378        1.000000        0.00182211        0.02595600        0.04730541        0.03140244
     221         -0.231996        1.000000        0.00291715        0.10528527        0.02786006        0.03261274
     222         -0.230502        1.000000        0.00237416        0.00682602        0.04649184        0.04726144
     223         -0.230159        1.000000        0.00643511        0.04038090        0.19923493        0.07498405
     224         -0.229228        1.000000        0.00935541        0.06065227        0.24536614        0.09648075
     225         -0.228754        1.000000        0.00733141        0.03707055        0.18904092        0.10992808
     226         -0.227323        1.000000        0.01356886        0.04091269        0.33128993        0.18942741
     227         -0.226492        1.000000        0.00480769        0.10645146        0.11985725        0.08688942
     228         -0.225328        1.000000        0.00413115        0.02725826        0.02923945        0.13677905
     229         -0.224308        1.000000        0.00429477        0.07914159        0.08269953        0.18181656
     230         -0.222953        1.000000        0.01237695        0.10911109        0.10157185        0.32774306
     231         -0.221926        1.000000        0.00134028        0.01950875        0.02548356        0.05951520
     232         -0.221581        1.000000        0.00003931        0.00056602        0.00091430        0.00067096
     233         -0.221382        1.000000        0.00209515        0.08508787        0.01815214        0.03054589
     234         -0.220920        1.000000        0.00648932        0.06489637        0.16196668        0.16286241
     235         -0.219668        1.000000        0.00548597        0.14219905        0.17024554        0.14255414
     236         -0.218507        1.000000        0.00202995        0.06884248        0.05247237        0.08087920
     237         -0.218245        1.000000        0.00502452        0.09192064        0.06286014        0.04575007
     238         -0.216471        1.000000        0.00309877        0.21350224        0.07201266        0.05870522
     239         -0.215542        1.000000        0.00183985        0.05130158        0.02600995        0.04294128
     240         -0.215277        1.000000        0.00771197        0.25983122        0.12043260        0.18542450
     241         -0.215020        1.000000        0.01301087        0.11213053        0.16553259        0.28491711
     242         -0.214640        1.000000        0.01120115        0.12418938        0.24303756        0.21597481
     243         -0.213601        1.000000        0.01328903        0.23861521        0.30411182        0.08702685
     244         -0.212182        1.000000        0.01421150        0.19443704        0.17875036        0.23819698
     245         -0.211022        1.000000        0.00718349        0.04824929        0.12954623        0.26510337
     246         -0.210207        1.000000        0.00075196        0.01229222        0.00830832        0.01146663
     247         -0.209091        1.000000        0.01163676        0.41444830        0.14672414        0.06528746
     248         -0.207983        1.000000        0.00452686        0.09854057        0.08433257        0.08198571
     249         -0.207249        1.000000        0.00557115        0.17521878        0.15963478        0.21281826
     250         -0.206452        1.000000        0.00703750        0.15265952        0.16289419        0.18580859
     251         -0.206111        1.000000        0.00481731        0.09713448        0.09536299        0.10232665
     252         -0.205643        1.000000        0.00237949        0.16236615        0.08904554        0.18246745
     253         -0.204680        1.000000        0.00382682        0.10045447        0.06347588        0.15665214
     254         -0.204533        1.000000        0.00681784        0.19242336        0.15406822        0.08961335
     255         -0.203911        1.000000        0.00142302        0.03239916        0.02136410        0.02241016
     256         -0.203736        1.000000        0.00750867        0.25176409        0.06973683        0.08986156
     257         -0.202465        1.000000        0.00582277        0.16459628        0.05596637        0.07215061
     258         -0.200226        1.000000        0.00307913        0.51622725        0.26929896        0.10196657
     259         -0.199897        1.000000        0.00870938        0.16714058        0.13220018        0.21542443