# Projected DOS for atomic kind N at iteration step i = 0, E(Fermi) =    -0.147204 a.u.
#     MO Eigenvalue [a.u.]      Occupation                 s                py                pz                px
       1         -0.932601        1.000000        0.00033867        0.00002435        0.00000788        0.00000581
       2         -0.927664        1.000000        0.00000005        0.00000000        0.00000000        0.00000000
       3         -0.917399        1.000000        0.00000000        0.00000000        0.00000000        0.00000000
       4         -0.915157        1.000000        0.00032787        0.00002461        0.00000033        0.00000535
       5         -0.914287        1.000000        0.00011539        0.00000022        0.00000053        0.00000021
       6         -0.914271        1.000000        0.61315839        0.00000058        0.00007098        0.00025265
       7         -0.913618        1.000000        0.00000003        0.00000000        0.00000000        0.00000000
       8         -0.910380        1.000000        0.00100157        0.00000016        0.00000002        0.00000272
       9         -0.910074        1.000000        0.00003774        0.00000123        0.00000027        0.00000100
      10         -0.909818        1.000000        0.00000037        0.00000000        0.00000000        0.00000000
      11         -0.908270        1.000000        0.00000001        0.00000000        0.00000000        0.00000000
      12         -0.906450        1.000000        0.00000190        0.00000008        0.00000033        0.00000012
      13         -0.902559        1.000000        0.00000000        0.00000000        0.00000000        0.00000000
      14         -0.899685        1.000000        0.61108624        0.00000132        0.00010377        0.00000578
      15         -0.898768        1.000000        0.61109256        0.00000270        0.00014694        0.00001981
      16         -0.896304        1.000000        0.00000004        0.00000000        0.00000000        0.00000000
      17         -0.893825        1.000000        0.00011926        0.00000230        0.00000347        0.00000005
      18         -0.889254        1.000000        0.05213436        0.00035471        0.00009709        0.00015794
      19         -0.886911        1.000000        0.00142876        0.00003592        0.00000495        0.00000025
      20         -0.885845        1.000000        0.00000000        0.00000000        0.00000000        0.00000000
      21         -0.879739        1.000000        0.02069950        0.00007619        0.00002277        0.00010878
      22         -0.878850        1.000000        0.00000000        0.00000000        0.00000000        0.00000000
      23         -0.878192        1.000000        0.00000022        0.00000002        0.00000001        0.00000000
      24         -0.876584        1.000000        0.00000003        0.00000001        0.00000000        0.00000000
      25         -0.870920        1.000000        0.08364979        0.00030291        0.00001548        0.00005727
      26         -0.869373        1.000000        0.00007261        0.00000075        0.00000002        0.00000758
      27         -0.866703        1.000000        0.03748930        0.00007925        0.00011001        0.00000388
      28         -0.864538        1.000000        0.00004135        0.00000021        0.00000408        0.00000010
      29         -0.860287        1.000000        0.18585085        0.00005895        0.00000022        0.00001845
      30         -0.860056        1.000000        0.00000800        0.00000002        0.00000001        0.00000002
      31         -0.856540        1.000000        0.55017736        0.00244486        0.00042943        0.00007156
      32         -0.855185        1.000000        0.00000021        0.00000000        0.00000000        0.00000000
      33         -0.849988        1.000000        0.00000000        0.00000000        0.00000000        0.00000000
      34         -0.848266        1.000000        0.22777913        0.00003045        0.00019952        0.00000155
      35         -0.845173        1.000000        0.00000001        0.00000000        0.00000000        0.00000000
      36         -0.844364        1.000000        0.00000000        0.00000000        0.00000000        0.00000000
      37         -0.844057        1.000000        0.00000000        0.00000000        0.00000000        0.00000000
      38         -0.842460        1.000000        0.00123071        0.00001748        0.00000296        0.00000269
      39         -0.841009        1.000000        0.00000005        0.00000001        0.00000000        0.00000002
      40         -0.840749        1.000000        0.39226676        0.00383155        0.00058039        0.00127531
      41         -0.840304        1.000000        0.51014665        0.00448245        0.00006311        0.00076289
      42         -0.837257        1.000000        0.00000000        0.00000016        0.00000018        0.00000001
      43         -0.837131        1.000000        0.00000011        0.00000000        0.00000001        0.00000001
      44         -0.830499        1.000000        0.32887855        0.00148687        0.00439832        0.00001800
      45         -0.827251        1.000000        0.00000000        0.00000000        0.00000000        0.00000000
      46         -0.825005        1.000000        0.00000483        0.00000047        0.00000250        0.00000025
      47         -0.651897        1.000000        0.01528842        0.01391743        0.01811738        0.16947401
      48         -0.648160        1.000000        0.01875310        0.00001097        0.07822974        0.11187968
      49         -0.646541        1.000000        0.01764058        0.00000846        0.04825717        0.14340433
      50         -0.621140        1.000000        0.02338074        0.00018334        0.00183291        0.16794090
      51         -0.611515        1.000000        0.02522025        0.02713085        0.01556476        0.12259368
      52         -0.611438        1.000000        0.02714569        0.00337668        0.07775883        0.07814390
      53         -0.609278        1.000000        0.02926923        0.00198559        0.00338375        0.15435687
      54         -0.598164        1.000000        0.00014791        0.00417702        0.00011967        0.00025237
      55         -0.597766        1.000000        0.00044735        0.00009067        0.00172875        0.00153874
      56         -0.570013        1.000000        0.00021353        0.00523109        0.00598606        0.00206119
      57         -0.567667        1.000000        0.00004120        0.00049665        0.01557188        0.00306931
      58         -0.563300        1.000000        0.00004503        0.00152157        0.00031830        0.00061054
      59         -0.560081        1.000000        0.00003858        0.00188767        0.01015841        0.00172382
      60         -0.558359        1.000000        0.00058766        0.02966374        0.02791228        0.00952825
      61         -0.556976        1.000000        0.00049488        0.01947303        0.01636624        0.00567423
      62         -0.556070        1.000000        0.00055607        0.01188898        0.00129760        0.00009549
      63         -0.554165        1.000000        0.00024595        0.00752218        0.00907263        0.00220625
      64         -0.553688        1.000000        0.00024930        0.01031573        0.00696238        0.00109149
      65         -0.551180        1.000000        0.00002587        0.01121538        0.00602795        0.00024985
      66         -0.549893        1.000000        0.00028055        0.01735717        0.00526949        0.00115870
      67         -0.547784        1.000000        0.00025872        0.01151956        0.00148370        0.00101179
      68         -0.546127        1.000000        0.00008509        0.04723277        0.01202422        0.00344436
      69         -0.545527        1.000000        0.00018767        0.02463382        0.00197500        0.00185529
      70         -0.545120        1.000000        0.00002898        0.00431819        0.00105189        0.00061004
      71         -0.544052        1.000000        0.00002743        0.00510213        0.00118980        0.00060822
      72         -0.543255        1.000000        0.00015182        0.04152386        0.01484832        0.00388836
      73         -0.541492        1.000000        0.00032527        0.02514481        0.00038360        0.00018262
      74         -0.541047        1.000000        0.00067879        0.00080700        0.00285550        0.00134364
      75         -0.538704        1.000000        0.00006094        0.00061431        0.01533564        0.00791315
      76         -0.538480        1.000000        0.00008956        0.00074606        0.02114172        0.01195412
      77         -0.538359        1.000000        0.00000163        0.00011971        0.00166876        0.00078505
      78         -0.536829        1.000000        0.00001390        0.00451541        0.02525525        0.00626675
      79         -0.536566        1.000000        0.00013080        0.31756187        0.17798642        0.00027981
      80         -0.534539        1.000000        0.00022843        0.03035996        0.01342529        0.00465841
      81         -0.534011        1.000000        0.00014959        0.01608180        0.00432319        0.00157505
      82         -0.533515        1.000000        0.00019786        0.00075790        0.00188766        0.00083864
      83         -0.532510        1.000000        0.00004118        0.00562568        0.00147493        0.00028612
      84         -0.532063        1.000000        0.00004917        0.00456134        0.01653535        0.01085958
      85         -0.530632        1.000000        0.00007651        0.00118026        0.00481700        0.00035801
      86         -0.530478        1.000000        0.00000928        0.03126654        0.01282114        0.00060033
      87         -0.529789        1.000000        0.00043172        0.00556043        0.00292230        0.00100374
      88         -0.529542        1.000000        0.00013242        0.00729650        0.00584438        0.00298385
      89         -0.527806        1.000000        0.00045137        0.00470765        0.01908960        0.00324023
      90         -0.527426        1.000000        0.00055284        0.11277598        0.21394400        0.07298034
      91         -0.525596        1.000000        0.00001547        0.00137945        0.00214984        0.00091446
      92         -0.516804        1.000000        0.00008378        0.47764379        0.01518839        0.00632827
      93         -0.516735        1.000000        0.00055404        0.02064666        0.33627322        0.15887862
      94         -0.515385        1.000000        0.00032878        0.00206090        0.36859118        0.14315544
      95         -0.510503        1.000000        0.00003631        0.43816237        0.00508000        0.00481968
      96         -0.495347        1.000000        0.00000455        0.00061612        0.00043179        0.00000016
      97         -0.492672        1.000000        0.00000042        0.00005115        0.00008791        0.00001332
      98         -0.487358        1.000000        0.00000646        0.00818183        0.51585026        0.00543895
      99         -0.484721        1.000000        0.00064557        0.49532350        0.00176480        0.00213821
     100         -0.481282        1.000000        0.00005943        0.00154140        0.48842727        0.08052476
     101         -0.480864        1.000000        0.00000001        0.00000133        0.00000175        0.00000098
     102         -0.478723        1.000000        0.00000166        0.01107048        0.05715652        0.05085433
     103         -0.477550        1.000000        0.00000005        0.00000805        0.00000485        0.00000305
     104         -0.476059        1.000000        0.00000040        0.00000869        0.00009941        0.00005848
     105         -0.475910        1.000000        0.00001670        0.01183672        0.22005398        0.19914862
     106         -0.474289        1.000000        0.00000006        0.00000083        0.00000490        0.00000311
     107         -0.473439        1.000000        0.00002200        0.48544391        0.05909818        0.00316043
     108         -0.472459        1.000000        0.00002065        0.00083155        0.00033409        0.00207930
     109         -0.471999        1.000000        0.00000048        0.00013025        0.00002098        0.00001069
     110         -0.471829        1.000000        0.00146144        0.40066996        0.01071269        0.03953883
     111         -0.470481        1.000000        0.00136422        0.39954438        0.01180146        0.01717287
     112         -0.469965        1.000000        0.00000228        0.00139843        0.00137573        0.00001157
     113         -0.469843        1.000000        0.00000213        0.00056807        0.00002627        0.00003342
     114         -0.469584        1.000000        0.00001845        0.00420064        0.00046610        0.00020675
     115         -0.468896        1.000000        0.00000121        0.00067197        0.00002084        0.00000755
     116         -0.466355        1.000000        0.00000846        0.00263022        0.01288865        0.00045248
     117         -0.461796        1.000000        0.00182779        0.02737657        0.38872395        0.03744257
     118         -0.455765        1.000000        0.00000090        0.00003264        0.00001175        0.00001253
     119         -0.455671        1.000000        0.00000006        0.00000038        0.00000194        0.00000337
     120         -0.454673        1.000000        0.00032101        0.04034946        0.00406160        0.00335227
     121         -0.454550        1.000000        0.00000004        0.00000031        0.00001255        0.00000270
     122         -0.453021        1.000000        0.00000867        0.00003168        0.00301389        0.00019307
     123         -0.451525        1.000000        0.00002130        0.00084325        0.00015020        0.00000092
     124         -0.445580        1.000000        0.00005680        0.00565311        0.00029596        0.00032772
     125         -0.444478        1.000000        0.00000008        0.00000031        0.00000095        0.00000328
     126         -0.442913        1.000000        0.00096502        0.00594195        0.00420237        0.04796737
     127         -0.440331        1.000000        0.00057068        0.00996440        0.00126152        0.00076196
     128         -0.439302        1.000000        0.00011253        0.00004784        0.00380130        0.00251924
     129         -0.434825        1.000000        0.00011474        0.00021971        0.00108731        0.00120224
     130         -0.434677        1.000000        0.00001368        0.00201603        0.00002428        0.00022794
     131         -0.433154        1.000000        0.00078355        0.00132012        0.00121606        0.02070602
     132         -0.432881        1.000000        0.00000051        0.00001190        0.00000333        0.00005515
     133         -0.431256        1.000000        0.00603587        0.02276452        0.03823308        0.23689365
     134         -0.430707        1.000000        0.00107759        0.00393314        0.00663912        0.04203084
     135         -0.428462        1.000000        0.00002632        0.00248069        0.00047787        0.00008285
     136         -0.427734        1.000000        0.00755075        0.00048057        0.14030311        0.25068108
     137         -0.426930        1.000000        0.00414852        0.00030286        0.05016757        0.15900893
     138         -0.426619        1.000000        0.00008444        0.00001217        0.00115443        0.00356089
     139         -0.425452        1.000000        0.00302838        0.00028206        0.03313094        0.10998328
     140         -0.424772        1.000000        0.00177706        0.00037070        0.02235556        0.07856489
     141         -0.422355        1.000000        0.00009644        0.00051033        0.00252286        0.00509378
     142         -0.415794        1.000000        0.00010866        0.00032407        0.00114565        0.00256424
     143         -0.414198        1.000000        0.00010034        0.00011421        0.00110824        0.00488492
     144         -0.412600        1.000000        0.00001022        0.00000015        0.00013848        0.00004301
     145         -0.411428        1.000000        0.00014199        0.00022421        0.00148530        0.00352558
     146         -0.411226        1.000000        0.00012529        0.00031944        0.00213467        0.00356519
     147         -0.408676        1.000000        0.00000000        0.00000000        0.00000003        0.00000005
     148         -0.406736        1.000000        0.00000846        0.00005607        0.00001145        0.00005932
     149         -0.403502        1.000000        0.00000598        0.00000010        0.00004241        0.00177328
     150         -0.402987        1.000000        0.00000000        0.00000001        0.00000000        0.00000011
     151         -0.401760        1.000000        0.00000013        0.00000006        0.00000018        0.00000535
     152         -0.400387        1.000000        0.00973873        0.00001135        0.00775480        0.41080727
     153         -0.395709        1.000000        0.00000221        0.00000944        0.00001034        0.00006216
     154         -0.394701        1.000000        0.00000519        0.00003702        0.00003987        0.00029708
     155         -0.389757        1.000000        0.00729488        0.03197952        0.10288376        0.22379028
     156         -0.389654        1.000000        0.00734296        0.03729284        0.09114546        0.23215157
     157         -0.388132        1.000000        0.00227967        0.00103600        0.05621569        0.05722109
     158         -0.386249        1.000000        0.00766882        0.00687204        0.01633816        0.39656390
     159         -0.368548        1.000000        0.00002676        0.00006400        0.02886558        0.00517169
     160         -0.366408        1.000000        0.00000072        0.03104298        0.00057056        0.00183038
     161         -0.365566        1.000000        0.00000413        0.03947406        0.00410294        0.00167154
     162         -0.365096        1.000000        0.00000065        0.04110732        0.00011150        0.00006888
     163         -0.363699        1.000000        0.00001401        0.00514813        0.02231651        0.01435497
     164         -0.362148        1.000000        0.00000695        0.00008366        0.03213698        0.01026486
     165         -0.353240        1.000000        0.00127990        0.00020676        0.00004259        0.01525043
     166         -0.345984        1.000000        0.00091924        0.00279688        0.00124401        0.01543928
     167         -0.342519        1.000000        0.00064823        0.00326307        0.00665403        0.00763958
     168         -0.342061        1.000000        0.00063346        0.00183574        0.00545692        0.01408702
     169         -0.342014        1.000000        0.00009529        0.01014116        0.03301908        0.00264985
     170         -0.334285        1.000000        0.00000221        0.00142430        0.02926504        0.02103222
     171         -0.333105        1.000000        0.00000208        0.00014812        0.00191428        0.00191317
     172         -0.332611        1.000000        0.00002349        0.00013429        0.04270080        0.00540914
     173         -0.332134        1.000000        0.00000299        0.01132396        0.00475697        0.00011807
     174         -0.331920        1.000000        0.00000406        0.02764666        0.01172997        0.00031873
     175         -0.327802        1.000000        0.00108335        0.04252022        0.01068852        0.00145954
     176         -0.321941        1.000000        0.00060742        0.02352034        0.00088829        0.00584913
     177         -0.315533        1.000000        0.00000011        0.00000008        0.00002005        0.00000149
     178         -0.314688        1.000000        0.00000002        0.00000037        0.00000214        0.00000129
     179         -0.312353        1.000000        0.00000045        0.00001253        0.00000508        0.00001741
     180         -0.309858        1.000000        0.00100118        0.02848671        0.00019602        0.00440371
     181         -0.308708        1.000000        0.00000467        0.00076572        0.00004586        0.00081926
     182         -0.305956        1.000000        0.00142123        0.01100596        0.02950540        0.00008600
     183         -0.303496        1.000000        0.00000005        0.00000152        0.00000172        0.00000036
     184         -0.296031        1.000000        0.00000016        0.00000049        0.00000153        0.00000036
     185         -0.291957        1.000000        0.00002295        0.00011061        0.00001232        0.00004733
     186         -0.291516        1.000000        0.00000120        0.00000039        0.00000276        0.00000400
     187         -0.287501        1.000000        0.00000940        0.00002483        0.00002427        0.00002121
     188         -0.283565        1.000000        0.00569552        0.06084595        0.00793846        0.02759100
     189         -0.275133        1.000000        0.00008671        0.00033492        0.00006726        0.00012023
     190         -0.270440        1.000000        0.00599243        0.02187910        0.06969828        0.00001076
     191         -0.268117        1.000000        0.00002054        0.00001521        0.00001892        0.00007474
     192         -0.267425        1.000000        0.00003050        0.00053606        0.00002246        0.00006172
     193         -0.265546        1.000000        0.01125446        0.10076605        0.01925421        0.01157416
     194         -0.265281        1.000000        0.00001638        0.00004616        0.00001158        0.00002738
     195         -0.261404        1.000000        0.00000060        0.00000336        0.00000961        0.00000046
     196         -0.260278        1.000000        0.00000017        0.00000116        0.00000610        0.00000133
     197         -0.253534        1.000000        0.00072350        0.00262775        0.00040110        0.00040522
     198         -0.253198        1.000000        0.00102039        0.00726464        0.00140199        0.00097796
     199         -0.251214        1.000000        0.00224329        0.01144372        0.00118996        0.00298398
     200         -0.250226        1.000000        0.00046809        0.00237253        0.00028574        0.00076869
     201         -0.248409        1.000000        0.00306136        0.02109044        0.00067921        0.00403979
     202         -0.247399        1.000000        0.00059370        0.00470759        0.00027469        0.00099851
     203         -0.245442        1.000000        0.00315355        0.03058291        0.00033652        0.00452799
     204         -0.245006        1.000000        0.00733229        0.07301748        0.00132015        0.01166084
     205         -0.243288        1.000000        0.00040843        0.00500358        0.00022228        0.00088369
     206         -0.242185        1.000000        0.00002864        0.00060576        0.00033098        0.00013642
     207         -0.240327        1.000000        0.00023163        0.00547761        0.00022954        0.00067360
     208         -0.239640        1.000000        0.00003081        0.00082305        0.00015839        0.00007553
     209         -0.238620        1.000000        0.00000853        0.00009894        0.00002744        0.00001759
     210         -0.237395        1.000000        0.00015155        0.00118566        0.00076302        0.00036452
     211         -0.236718        1.000000        0.00257587        0.01368271        0.00333431        0.00590782
     212         -0.236343        1.000000        0.00108993        0.00576001        0.00112526        0.00278326
     213         -0.236028        1.000000        0.00025194        0.00105415        0.00102158        0.00062875
     214         -0.235925        1.000000        0.00011679        0.00053768        0.00015246        0.00027089
     215         -0.235747        1.000000        0.00045451        0.00206447        0.00058660        0.00056630
     216         -0.235461        1.000000        0.00104344        0.00693923        0.00054778        0.00183551
     217         -0.235178        1.000000        0.00005372        0.00046504        0.00033298        0.00013278
     218         -0.233796        1.000000        0.00018534        0.00231778        0.00025303        0.00026514
     219         -0.233142        1.000000        0.00017702        0.00228613        0.00026789        0.00033995
     220         -0.232378        1.000000        0.00014580        0.00029458        0.00070025        0.00011730
     221         -0.231996        1.000000        0.00019220        0.00078446        0.00034507        0.00033101
     222         -0.230502        1.000000        0.00007098        0.00030466        0.00064401        0.00010253
     223         -0.230159        1.000000        0.00101583        0.00257960        0.01015166        0.00006186
     224         -0.229228        1.000000        0.00255888        0.00626528        0.01573679        0.00010169
     225         -0.228754        1.000000        0.00149571        0.00336556        0.01143767        0.00005333
     226         -0.227323        1.000000        0.00019329        0.00059283        0.00082454        0.00004444
     227         -0.226492        1.000000        0.00023377        0.00042325        0.00095072        0.00011817
     228         -0.225328        1.000000        0.00608663        0.03040649        0.00450824        0.01547785
     229         -0.224308        1.000000        0.00178834        0.01074786        0.00261107        0.00543909
     230         -0.222953        1.000000        0.00054305        0.00426668        0.00115628        0.00211659
     231         -0.221926        1.000000        0.00101822        0.00268238        0.00660115        0.00026684
     232         -0.221581        1.000000        0.00000340        0.00000712        0.00000521        0.00000521
     233         -0.221382        1.000000        0.00107871        0.00392783        0.00144476        0.00157376
     234         -0.220920        1.000000        0.00023464        0.00124361        0.00053397        0.00031668
     235         -0.219668        1.000000        0.00026229        0.00067957        0.00070380        0.00036495
     236         -0.218507        1.000000        0.00014095        0.00038798        0.00032076        0.00020337
     237         -0.218245        1.000000        0.00023257        0.00005065        0.00011948        0.00013283
     238         -0.216471        1.000000        0.00020498        0.00042500        0.00017780        0.00021427
     239         -0.215542        1.000000        0.00008242        0.00007140        0.00006644        0.00005383
     240         -0.215277        1.000000        0.00034153        0.00022699        0.00030832        0.00026138
     241         -0.215020        1.000000        0.00005247        0.00038851        0.00014288        0.00021003
     242         -0.214640        1.000000        0.00047912        0.00077118        0.00019271        0.00051189
     243         -0.213601        1.000000        0.00010738        0.00006797        0.00084199        0.00035083
     244         -0.212182        1.000000        0.00011396        0.00033508        0.00043939        0.00013970
     245         -0.211022        1.000000        0.00048695        0.00197051        0.00096011        0.00053836
     246         -0.210207        1.000000        0.00001998        0.00009855        0.00005449        0.00001637
     247         -0.209091        1.000000        0.00009547        0.00053360        0.00014583        0.00031317
     248         -0.207983        1.000000        0.00444358        0.00803707        0.02047634        0.00027415
     249         -0.207249        1.000000        0.00089215        0.00142777        0.00540412        0.00024970
     250         -0.206452        1.000000        0.00085680        0.00128789        0.00425000        0.00040633
     251         -0.206111        1.000000        0.00032559        0.00159320        0.00126145        0.00020428
     252         -0.205643        1.000000        0.00009643        0.00025891        0.00068785        0.00013184
     253         -0.204680        1.000000        0.00028053        0.00124732        0.00024999        0.00004933
     254         -0.204533        1.000000        0.00010242        0.00064245        0.00029581        0.00015590
     255         -0.203911        1.000000        0.00010060        0.00122607        0.00048317        0.00013507
     256         -0.203736        1.000000        0.00016868        0.00076251        0.00010188        0.00016190
     257         -0.202465        1.000000        0.00070601        0.00314266        0.00125788        0.00050958
     258         -0.200226        1.000000        0.00588925        0.00540760        0.00223313        0.00313084
     259         -0.199897        1.000000        0.00043252        0.00020460        0.00125052        0.00047750