# Projected DOS for atomic kind I at iteration step i = 0, E(Fermi) =    -0.145048 a.u.
#     MO Eigenvalue [a.u.]      Occupation                 s                py                pz                px
       1         -0.932605        1.000000        0.00001532        0.00009543        0.00000070        0.00003125
       2         -0.927662        1.000000        0.00007632        0.00010578        0.00013120        0.00012690
       3         -0.917441        1.000000        0.00005105        0.00020540        0.00000582        0.00007207
       4         -0.915157        1.000000        0.00000919        0.00004450        0.00002567        0.00000132
       5         -0.914290        1.000000        0.00001491        0.00000573        0.00007420        0.00005704
       6         -0.914275        1.000000        0.00011928        0.00022327        0.00032671        0.00007399
       7         -0.913614        1.000000        0.00051221        0.00037991        0.00067398        0.00002668
       8         -0.910413        1.000000        0.00003011        0.00000209        0.00007977        0.00008059
       9         -0.910075        1.000000        0.00003401        0.00008923        0.00004807        0.00010595
      10         -0.909810        1.000000        0.00034646        0.00010727        0.00051120        0.00057147
      11         -0.908270        1.000000        0.00003007        0.00003872        0.00016400        0.00000158
      12         -0.906459        1.000000        0.00003239        0.00003750        0.00000628        0.00016943
      13         -0.902555        1.000000        0.00048753        0.00024460        0.00048707        0.00019640
      14         -0.899691        1.000000        0.00019661        0.00046702        0.00038485        0.00023495
      15         -0.898778        1.000000        0.00016417        0.00046131        0.00014563        0.00021730
      16         -0.896288        1.000000        0.00003742        0.00002713        0.00004456        0.00016512
      17         -0.893826        1.000000        0.00015206        0.00019063        0.00017612        0.00031563
      18         -0.889260        1.000000        0.00002002        0.00005647        0.00007994        0.00002751
      19         -0.886917        1.000000        0.00000080        0.00000568        0.00000126        0.00000456
      20         -0.886034        1.000000        0.00003724        0.00003004        0.00023050        0.00000005
      21         -0.879705        1.000000        0.00005287        0.00002186        0.00011358        0.00022990
      22         -0.878832        1.000000        0.00276048        0.00136923        0.00228741        0.00032776
      23         -0.878157        1.000000        0.00169755        0.00009283        0.00241062        0.00144221
      24         -0.876584        1.000000        0.00006182        0.00011337        0.00010258        0.00011485
      25         -0.870908        1.000000        0.00001520        0.00004481        0.00004148        0.00002659
      26         -0.869383        1.000000        0.00000727        0.00001528        0.00001013        0.00004937
      27         -0.866704        1.000000        0.00001221        0.00008205        0.00008434        0.00003806
      28         -0.864614        1.000000        0.00000363        0.00000885        0.00003439        0.00000091
      29         -0.862350        1.000000        0.00038961        0.00118202        0.00020445        0.00005213
      30         -0.860249        1.000000        0.00005334        0.00008832        0.00008734        0.00009234
      31         -0.856545        1.000000        0.00008741        0.00009007        0.00025158        0.00006663
      32         -0.855167        1.000000        0.00031099        0.00002026        0.00110439        0.00005496
      33         -0.849987        1.000000        0.00000000        0.00000001        0.00000001        0.00000002
      34         -0.848264        1.000000        0.00005488        0.00010203        0.00007455        0.00004804
      35         -0.845102        1.000000        0.01304065        0.00536402        0.00856802        0.00032117
      36         -0.844363        1.000000        0.00000221        0.00000651        0.00000078        0.00001143
      37         -0.844072        1.000000        0.00000001        0.00000006        0.00000017        0.00000016
      38         -0.842918        1.000000        0.00004789        0.00000675        0.00002756        0.00023612
      39         -0.841130        1.000000        0.00008766        0.00007333        0.00004689        0.00020754
      40         -0.840718        1.000000        0.00003360        0.00005128        0.00005478        0.00008501
      41         -0.840308        1.000000        0.00010079        0.00025471        0.00008178        0.00010356
      42         -0.837308        1.000000        0.00005594        0.00004430        0.00000442        0.00027662
      43         -0.835470        1.000000        0.00014195        0.00009921        0.00044536        0.00007334
      44         -0.830495        1.000000        0.00006391        0.00011201        0.00011750        0.00004815
      45         -0.827265        1.000000        0.00002044        0.00001033        0.00007733        0.00000666
      46         -0.826297        1.000000        0.00000593        0.00000938        0.00004209        0.00000235
      47         -0.651901        1.000000        0.00102608        0.00023079        0.00023919        0.00007800
      48         -0.648168        1.000000        0.00137397        0.00026457        0.00020986        0.00014207
      49         -0.646546        1.000000        0.00259535        0.00049939        0.00056634        0.00039106
      50         -0.621137        1.000000        0.00104750        0.00006510        0.00027287        0.00005855
      51         -0.611521        1.000000        0.00184267        0.00021487        0.00028482        0.00010597
      52         -0.611467        1.000000        0.02058117        0.00050766        0.00040567        0.00052008
      53         -0.609278        1.000000        0.00194403        0.00034754        0.00012038        0.00031796
      54         -0.598505        1.000000        0.91447387        0.00551041        0.00630565        0.00055506
      55         -0.598137        1.000000        0.94916045        0.00098173        0.01475792        0.01615424
      56         -0.571531        1.000000        0.88164609        0.00710856        0.00513410        0.00440415
      57         -0.568832        1.000000        0.81168955        0.00576090        0.00721435        0.00591350
      58         -0.565124        1.000000        0.86498033        0.00431319        0.00708316        0.00508013
      59         -0.561571        1.000000        0.85975036        0.00645342        0.00539155        0.00258622
      60         -0.558534        1.000000        0.80139836        0.00235253        0.00301761        0.00311424
      61         -0.557188        1.000000        0.83698385        0.00302724        0.00401870        0.00285230
      62         -0.556475        1.000000        0.84533465        0.00378543        0.00428375        0.00446073
      63         -0.554972        1.000000        0.88884821        0.00226930        0.00611695        0.00379109
      64         -0.553901        1.000000        0.88432072        0.00233429        0.00420433        0.00350769
      65         -0.552222        1.000000        0.91559282        0.00122373        0.00230228        0.00070343
      66         -0.550249        1.000000        0.88927001        0.00237668        0.00328172        0.00351194
      67         -0.548401        1.000000        0.87226775        0.00377886        0.00357327        0.00364300
      68         -0.546773        1.000000        0.85429960        0.00257181        0.00225585        0.00297569
      69         -0.546079        1.000000        0.84535417        0.00227462        0.00269526        0.00224120
      70         -0.545669        1.000000        0.93033521        0.00033769        0.00194661        0.00075876
      71         -0.545135        1.000000        0.86468820        0.00318561        0.00393005        0.00363843
      72         -0.543508        1.000000        0.83443806        0.00211628        0.00147826        0.00159115
      73         -0.542755        1.000000        0.94020611        0.00210399        0.00293170        0.00058690
      74         -0.541878        1.000000        0.90256336        0.00154723        0.00087186        0.00115104
      75         -0.541284        1.000000        0.92504923        0.00097314        0.00173576        0.00118050
      76         -0.540325        1.000000        0.95403004        0.00027469        0.00078142        0.00051618
      77         -0.538746        1.000000        0.86300671        0.00124747        0.00068850        0.00101184
      78         -0.537925        1.000000        0.91864756        0.00111242        0.00083441        0.00051723
      79         -0.536613        1.000000        0.17380837        0.00090861        0.00076267        0.00125820
      80         -0.534595        1.000000        0.92331610        0.00082728        0.00045591        0.00132640
      81         -0.534316        1.000000        0.86856452        0.00177304        0.00068823        0.00184170
      82         -0.533771        1.000000        0.91879029        0.00076803        0.00054533        0.00151161
      83         -0.532650        1.000000        0.90460804        0.00164104        0.00079382        0.00057496
      84         -0.532398        1.000000        0.90711210        0.00153441        0.00114193        0.00116053
      85         -0.530795        1.000000        0.94495445        0.00070692        0.00079310        0.00070563
      86         -0.530630        1.000000        0.83789136        0.00074903        0.00094734        0.00036065
      87         -0.530471        1.000000        0.94450735        0.00043018        0.00108640        0.00057238
      88         -0.529946        1.000000        0.92757641        0.00105919        0.00072873        0.00210334
      89         -0.527676        1.000000        0.77977068        0.00053000        0.00097478        0.00095697
      90         -0.527531        1.000000        0.45953490        0.00108816        0.00209829        0.00101001
      91         -0.525483        1.000000        0.93191898        0.00017334        0.00185181        0.00084990
      92         -0.516776        1.000000        0.17502291        0.00453016        0.00017177        0.00106003
      93         -0.516763        1.000000        0.13248226        0.00135794        0.00190929        0.00086075
      94         -0.515422        1.000000        0.14336646        0.00132884        0.00100043        0.00142293
      95         -0.510486        1.000000        0.24604908        0.00382468        0.00077027        0.00208695
      96         -0.495356        1.000000        0.01191246        0.00159861        0.00016198        0.00033539
      97         -0.492689        1.000000        0.04865639        0.00104097        0.00077933        0.00243295
      98         -0.487356        1.000000        0.04386228        0.00109392        0.00358164        0.00129866
      99         -0.484724        1.000000        0.00497387        0.00115969        0.00023315        0.00011369
     100         -0.481290        1.000000        0.00901571        0.00155181        0.00109098        0.00055008
     101         -0.480892        1.000000        0.00345920        0.00168830        0.00028969        0.00079994
     102         -0.478734        1.000000        0.00672196        0.00202818        0.00071422        0.00024399
     103         -0.477561        1.000000        0.00686883        0.00100874        0.00044535        0.00206173
     104         -0.476057        1.000000        0.00343501        0.00002707        0.00092632        0.00081823
     105         -0.475919        1.000000        0.00639779        0.00239857        0.00017929        0.00074108
     106         -0.474294        1.000000        0.00324652        0.00135329        0.00029199        0.00041160
     107         -0.473440        1.000000        0.01636143        0.00302432        0.00130308        0.00125371
     108         -0.472503        1.000000        0.00685578        0.00023120        0.00186327        0.00220012
     109         -0.471986        1.000000        0.03913548        0.00065697        0.00030540        0.00571142
     110         -0.471824        1.000000        0.00306849        0.00085934        0.00085023        0.00023595
     111         -0.470493        1.000000        0.00481029        0.00200300        0.00063806        0.00065462
     112         -0.469975        1.000000        0.00398649        0.00073879        0.00026127        0.00287494
     113         -0.469853        1.000000        0.00754169        0.00154012        0.00062218        0.00272810
     114         -0.469585        1.000000        0.00414075        0.00103387        0.00032498        0.00107178
     115         -0.468894        1.000000        0.00109866        0.00049467        0.00024327        0.00005565
     116         -0.466359        1.000000        0.00057889        0.00003649        0.00010174        0.00003373
     117         -0.461797        1.000000        0.00371343        0.00047448        0.00203502        0.00031421
     118         -0.455775        1.000000        0.00315669        0.00030110        0.00007871        0.00175962
     119         -0.455663        1.000000        0.00061535        0.00008398        0.00019327        0.00379725
     120         -0.454679        1.000000        0.00064526        0.00046531        0.00009721        0.00015073
     121         -0.454538        1.000000        0.00572579        0.00207808        0.00016357        0.00173719
     122         -0.453018        1.000000        0.01254912        0.00348671        0.00212040        0.00281679
     123         -0.451525        1.000000        0.00075437        0.00000951        0.00009280        0.00054667
     124         -0.445586        1.000000        0.00011179        0.00013586        0.00003775        0.00004685
     125         -0.444537        1.000000        0.00017182        0.00005114        0.00026167        0.00011886
     126         -0.442922        1.000000        0.00054628        0.00014155        0.00024702        0.00058803
     127         -0.440297        1.000000        0.00034097        0.00011625        0.00057019        0.00038128
     128         -0.439308        1.000000        0.00018996        0.00007674        0.00018715        0.00012745
     129         -0.434833        1.000000        0.00578821        0.00273932        0.00089803        0.00219458
     130         -0.434677        1.000000        0.00124647        0.00078258        0.00035412        0.00056722
     131         -0.433578        1.000000        0.00076538        0.00030076        0.00019937        0.00057136
     132         -0.433294        1.000000        0.15500253        0.03970522        0.04159199        0.04097812
     133         -0.431969        1.000000        0.16430333        0.04356607        0.04078001        0.03984578
     134         -0.431189        1.000000        0.02333891        0.00620305        0.00553970        0.00631262
     135         -0.428463        1.000000        0.00102877        0.00068926        0.00061954        0.00021471
     136         -0.428099        1.000000        0.12297616        0.02631681        0.03338118        0.03288633
     137         -0.427708        1.000000        0.02700788        0.00807369        0.00780459        0.00815565
     138         -0.426632        1.000000        0.00702770        0.00217196        0.00101803        0.00211529
     139         -0.425956        1.000000        0.06010799        0.01790263        0.01678412        0.01519851
     140         -0.424994        1.000000        0.10874720        0.03951284        0.03236194        0.02614443
     141         -0.422540        1.000000        0.14932611        0.04847307        0.03473981        0.04268195
     142         -0.416133        1.000000        0.13880282        0.03402511        0.03913596        0.03823721
     143         -0.414235        1.000000        0.14080371        0.03201904        0.03256558        0.03824715
     144         -0.412735        1.000000        0.00007581        0.00007701        0.00002827        0.00001474
     145         -0.411493        1.000000        0.10530563        0.02441907        0.02496116        0.01971512
     146         -0.411264        1.000000        0.04104462        0.00934483        0.00985332        0.00695022
     147         -0.408673        1.000000        0.00000131        0.00000089        0.00000274        0.00000213
     148         -0.406398        1.000000        0.00204973        0.00174981        0.00022345        0.00020058
     149         -0.403693        1.000000        0.00028577        0.00005802        0.00005806        0.00004614
     150         -0.402995        1.000000        0.00000388        0.00001109        0.00000233        0.00001128
     151         -0.401760        1.000000        0.00022196        0.00028649        0.00003050        0.00038945
     152         -0.400384        1.000000        0.00335010        0.00066960        0.00221732        0.00068214
     153         -0.395845        1.000000        0.00348390        0.00143290        0.00096636        0.00445046
     154         -0.394768        1.000000        0.00181269        0.00054531        0.00113196        0.00023323
     155         -0.389756        1.000000        0.00221572        0.00781429        0.00454516        0.00261088
     156         -0.389654        1.000000        0.00280931        0.00779651        0.00462029        0.00240054
     157         -0.388105        1.000000        0.01001889        0.03239682        0.01300091        0.00294754
     158         -0.386251        1.000000        0.00172660        0.00208527        0.00090737        0.00090253
     159         -0.368551        1.000000        0.00092429        0.00194565        0.00196426        0.00051313
     160         -0.366416        1.000000        0.00082099        0.00191146        0.00212610        0.00037075
     161         -0.365575        1.000000        0.00112281        0.00264368        0.00020855        0.00100372
     162         -0.365106        1.000000        0.00142848        0.00546596        0.00233911        0.00114916
     163         -0.363706        1.000000        0.00044933        0.00119934        0.00027191        0.00076502
     164         -0.362154        1.000000        0.00095710        0.00172674        0.00160337        0.00391938
     165         -0.353237        1.000000        0.00017169        0.00101001        0.00064621        0.00038074
     166         -0.345981        1.000000        0.00076892        0.00162087        0.00210376        0.00053820
     167         -0.342525        1.000000        0.00031749        0.00068760        0.00100009        0.00282197
     168         -0.342062        1.000000        0.00051679        0.00130356        0.00110989        0.00220815
     169         -0.342010        1.000000        0.00048688        0.00094491        0.00216458        0.00067818
     170         -0.334294        1.000000        0.00053337        0.00521744        0.00449102        0.00279984
     171         -0.333104        1.000000        0.00253528        0.01617760        0.01523744        0.00736893
     172         -0.332616        1.000000        0.00071493        0.00335151        0.00335490        0.00092874
     173         -0.332119        1.000000        0.00280249        0.00264577        0.02137147        0.03045531
     174         -0.331914        1.000000        0.00189517        0.00249586        0.01183444        0.01651515
     175         -0.327804        1.000000        0.00012019        0.00062489        0.00085546        0.00031443
     176         -0.321936        1.000000        0.00033567        0.00061343        0.00090747        0.00247916
     177         -0.315582        1.000000        0.00037423        0.00028355        0.00248508        0.00508973
     178         -0.314730        1.000000        0.00008156        0.00025852        0.00167458        0.00134262
     179         -0.312706        1.000000        0.00001875        0.00001960        0.00016040        0.00091669
     180         -0.309865        1.000000        0.00073145        0.00946738        0.00895106        0.00130180
     181         -0.308795        1.000000        0.00936034        0.15236955        0.19068649        0.00943652
     182         -0.305955        1.000000        0.00076565        0.00327770        0.00266349        0.00387765
     183         -0.303494        1.000000        0.00005336        0.00129806        0.00086803        0.00041478
     184         -0.296092        1.000000        0.00000515        0.00040985        0.00012643        0.00093338
     185         -0.291938        1.000000        0.01472689        0.01060176        0.33305055        0.24149948
     186         -0.291508        1.000000        0.00028550        0.00120540        0.00286223        0.01522470
     187         -0.287295        1.000000        0.00015520        0.00465095        0.00135326        0.00015450
     188         -0.283551        1.000000        0.00025492        0.00054933        0.00180751        0.00658059
     189         -0.275138        1.000000        0.00061928        0.00895491        0.01181050        0.00542514
     190         -0.270435        1.000000        0.00120641        0.00791444        0.01110263        0.00972992
     191         -0.268166        1.000000        0.00014795        0.00075971        0.00501351        0.01171671
     192         -0.267437        1.000000        0.00001406        0.00139922        0.00038622        0.00024371
     193         -0.265555        1.000000        0.00010430        0.00350013        0.00214024        0.00042389
     194         -0.265375        1.000000        0.00029573        0.03535888        0.09159220        0.00458778
     195         -0.261579        1.000000        0.00003764        0.00046771        0.00302176        0.00150567
     196         -0.260466        1.000000        0.00072293        0.00521786        0.03931247        0.00492861
     197         -0.255402        1.000000        0.01263657        0.18380590        0.40099677        0.08347132
     198         -0.253204        1.000000        0.00003608        0.00106185        0.00065761        0.00180649
     199         -0.251631        1.000000        0.01046265        0.14260524        0.18277628        0.18330774
     200         -0.250444        1.000000        0.00590472        0.04828818        0.14531917        0.14632813
     201         -0.249424        1.000000        0.00952165        0.11083124        0.23031608        0.10266552
     202         -0.248381        1.000000        0.00328281        0.12761046        0.05717270        0.03580554
     203         -0.246026        1.000000        0.01101496        0.10962247        0.24790248        0.08191311
     204         -0.245125        1.000000        0.00672991        0.06502555        0.08954181        0.16032914
     205         -0.244032        1.000000        0.00537566        0.05814291        0.12246445        0.14566490
     206         -0.243659        1.000000        0.01051060        0.20579855        0.17132524        0.15899795
     207         -0.241125        1.000000        0.01110256        0.50486377        0.05279874        0.05544965
     208         -0.240461        1.000000        0.01197005        0.33677521        0.14711469        0.12164302
     209         -0.238862        1.000000        0.00074595        0.01554914        0.00736505        0.01651368
     210         -0.237557        1.000000        0.01051271        0.22477445        0.10541368        0.20722954
     211         -0.236983        1.000000        0.01155828        0.24421574        0.07596578        0.21585118
     212         -0.236478        1.000000        0.00352259        0.06888472        0.04697650        0.08728013
     213         -0.236400        1.000000        0.00544347        0.09015477        0.04830101        0.14309997
     214         -0.236027        1.000000        0.00311381        0.13141967        0.03221779        0.02989870
     215         -0.235997        1.000000        0.00148734        0.02970102        0.01317882        0.03333409
     216         -0.235557        1.000000        0.00178006        0.01385697        0.01377878        0.04467639
     217         -0.235423        1.000000        0.00347410        0.04862610        0.05616763        0.04555313
     218         -0.234335        1.000000        0.00985499        0.11704551        0.08698983        0.12105924
     219         -0.233559        1.000000        0.01298900        0.13569959        0.05451559        0.31013643
     220         -0.232393        1.000000        0.00236540        0.01863711        0.06615318        0.03640772
     221         -0.232020        1.000000        0.00252893        0.08039038        0.03853267        0.02932356
     222         -0.230629        1.000000        0.00419941        0.01607822        0.11202514        0.05829295
     223         -0.230379        1.000000        0.00443509        0.03355635        0.13118725        0.05022635
     224         -0.229722        1.000000        0.01259923        0.05914489        0.31672220        0.14523124
     225         -0.229250        1.000000        0.00324715        0.03086196        0.08330013        0.06366243
     226         -0.227883        1.000000        0.01195371        0.05041949        0.29660342        0.14540443
     227         -0.227127        1.000000        0.00678652        0.07431133        0.19691492        0.09541022
     228         -0.225536        1.000000        0.00574378        0.04765591        0.04173738        0.21715264
     229         -0.224674        1.000000        0.00184654        0.06361779        0.05589775        0.11061107
     230         -0.223333        1.000000        0.01183197        0.10761924        0.08846772        0.31802531
     231         -0.222037        1.000000        0.00145604        0.02044172        0.02828685        0.06031093
     232         -0.221582        1.000000        0.00206405        0.07735072        0.02514135        0.03676352
     233         -0.221581        1.000000        0.00020742        0.00981952        0.00209249        0.00253834
     234         -0.221186        1.000000        0.00639397        0.08512465        0.19189853        0.18773541
     235         -0.220041        1.000000        0.00603464        0.10424643        0.19035397        0.12354779
     236         -0.218621        1.000000        0.00144959        0.04331928        0.03790597        0.06083726
     237         -0.218471        1.000000        0.00555189        0.10311368        0.06940283        0.05405471
     238         -0.216732        1.000000        0.00623955        0.20281575        0.08146265        0.12486637
     239         -0.216065        1.000000        0.01169843        0.26890825        0.14143155        0.25711709
     240         -0.215507        1.000000        0.00101852        0.01191506        0.01526937        0.01944493
     241         -0.215223        1.000000        0.00573152        0.27267478        0.11188287        0.12913577
     242         -0.215158        1.000000        0.01057763        0.07718023        0.23804262        0.24092254
     243         -0.213958        1.000000        0.01417540        0.25390000        0.31729940        0.07745559
     244         -0.212301        1.000000        0.01359920        0.13777190        0.19754276        0.25350844
     245         -0.210936        1.000000        0.00752089        0.06690811        0.14046933        0.25311677
     246         -0.210421        1.000000        0.00078489        0.01502430        0.00858682        0.01224493
     247         -0.210241        1.000000        0.01112685        0.39484714        0.13476658        0.09313267
     248         -0.208243        1.000000        0.00662485        0.18672396        0.20894687        0.17044009
     249         -0.207943        1.000000        0.00347587        0.10784066        0.07362971        0.07143866
     250         -0.206836        1.000000        0.00671879        0.14799198        0.19082980        0.10110263
     251         -0.206634        1.000000        0.00263077        0.15184875        0.09608859        0.36294309
     252         -0.206286        1.000000        0.00490625        0.10010516        0.10370498        0.07150468
     253         -0.205096        1.000000        0.00870588        0.23303251        0.13602850        0.16849897
     254         -0.204774        1.000000        0.00463365        0.14414308        0.06192503        0.07797805
     255         -0.203931        1.000000        0.00258058        0.06959571        0.03300810        0.03283381
     256         -0.203899        1.000000        0.00502997        0.17028023        0.03726539        0.06938670
     257         -0.202568        1.000000        0.00489685        0.14074174        0.04736755        0.06230181
     258         -0.200354        1.000000        0.00448049        0.49791018        0.26997624        0.09509526
     259         -0.199934        1.000000        0.00762175        0.18966935        0.13918701        0.23638537