# Projected DOS for atomic kind O at iteration step i = 0, E(Fermi) =    -0.147204 a.u.
#     MO Eigenvalue [a.u.]      Occupation                 s                py                pz                px
       1         -0.932601        1.000000        0.71158419        0.00510784        0.02367984        0.00377751
       2         -0.927664        1.000000        0.71220406        0.01951512        0.00320253        0.00347753
       3         -0.917399        1.000000        0.70850225        0.00857512        0.01567090        0.01239732
       4         -0.915157        1.000000        0.70993476        0.00229101        0.00588700        0.02686121
       5         -0.914287        1.000000        0.71023577        0.01558510        0.00448886        0.01562293
       6         -0.914271        1.000000        0.00124197        0.00001095        0.00003643        0.00000648
       7         -0.913618        1.000000        0.71356803        0.01118942        0.01997011        0.00034431
       8         -0.910380        1.000000        0.70832288        0.01215957        0.02366574        0.00000900
       9         -0.910074        1.000000        0.71011736        0.00532561        0.00014567        0.02706859
      10         -0.909818        1.000000        0.71415049        0.01632297        0.00356792        0.00779921
      11         -0.908270        1.000000        0.70847090        0.01638468        0.00919892        0.01184648
      12         -0.906450        1.000000        0.70664714        0.01100417        0.02514826        0.00309003
      13         -0.902559        1.000000        0.72461485        0.00774872        0.00535259        0.00641563
      14         -0.899685        1.000000        0.00000010        0.00000000        0.00000000        0.00000000
      15         -0.898768        1.000000        0.00013236        0.00000877        0.00000342        0.00000365
      16         -0.896304        1.000000        0.70699751        0.01885727        0.01589952        0.00395382
      17         -0.893825        1.000000        0.70466207        0.00604704        0.02670709        0.00121914
      18         -0.889254        1.000000        0.66177153        0.00553672        0.00893224        0.01125835
      19         -0.886911        1.000000        0.69887054        0.00145224        0.02237560        0.01951845
      20         -0.885845        1.000000        0.69523110        0.03542260        0.01333815        0.00045390
      21         -0.879739        1.000000        0.69272391        0.00935406        0.00752478        0.00490080
      22         -0.878850        1.000000        0.74871316        0.01937294        0.00626740        0.00365880
      23         -0.878192        1.000000        0.73256628        0.00976258        0.01960074        0.01533836
      24         -0.876584        1.000000        0.70586125        0.00031789        0.01628759        0.02190263
      25         -0.870920        1.000000        0.62833559        0.01128492        0.00283470        0.00508174
      26         -0.869373        1.000000        0.71380858        0.03142945        0.00393156        0.00058106
      27         -0.866703        1.000000        0.67179348        0.00436389        0.00726186        0.00892566
      28         -0.864538        1.000000        0.71373238        0.03198473        0.00085087        0.00331160
      29         -0.860287        1.000000        0.50897396        0.01125550        0.00860543        0.00190663
      30         -0.860056        1.000000        0.71364155        0.00827526        0.03137559        0.00843157
      31         -0.856540        1.000000        0.06691125        0.00394870        0.00196425        0.00277412
      32         -0.855185        1.000000        0.71469909        0.03136008        0.00026054        0.01662153
      33         -0.849988        1.000000        0.69143418        0.03490122        0.00570528        0.01008334
      34         -0.848266        1.000000        0.45628167        0.00527607        0.00303799        0.01182817
      35         -0.845173        1.000000        0.78619861        0.01580128        0.00941650        0.01156320
      36         -0.844364        1.000000        0.69197714        0.02824010        0.01655700        0.00579450
      37         -0.844057        1.000000        0.69172768        0.02788098        0.01810358        0.00460188
      38         -0.842460        1.000000        0.70389085        0.00249953        0.04552594        0.00080571
      39         -0.841009        1.000000        0.69544326        0.00883236        0.02372286        0.01719791
      40         -0.840749        1.000000        0.26338064        0.00666697        0.00824197        0.00331034
      41         -0.840304        1.000000        0.11143046        0.00912447        0.00022948        0.00059407
      42         -0.837257        1.000000        0.71623256        0.03387804        0.01419524        0.00088538
      43         -0.837131        1.000000        0.72225849        0.03516522        0.00452847        0.00721501
      44         -0.830499        1.000000        0.33924604        0.00578892        0.00740055        0.00769042
      45         -0.827251        1.000000        0.71285211        0.00061501        0.03145991        0.01674330
      46         -0.825005        1.000000        0.71239700        0.02393393        0.00145531        0.02351453
      47         -0.651897        1.000000        0.00018786        0.00028990        0.00023345        0.00028357
      48         -0.648160        1.000000        0.00001910        0.00007514        0.00003632        0.00005157
      49         -0.646541        1.000000        0.00000009        0.00000015        0.00000013        0.00000015
      50         -0.621140        1.000000        0.00013728        0.00142514        0.00052712        0.00013480
      51         -0.611515        1.000000        0.00023857        0.00161478        0.00025089        0.00031414
      52         -0.611438        1.000000        0.00025233        0.00183299        0.00029912        0.00005692
      53         -0.609278        1.000000        0.00031333        0.00060026        0.00107375        0.00001462
      54         -0.598164        1.000000        0.00034237        0.00015147        0.00417569        0.00088862
      55         -0.597766        1.000000        0.00640522        0.00472280        0.02429618        0.00101891
      56         -0.570013        1.000000        0.00055650        0.00047928        0.00280978        0.00025693
      57         -0.567667        1.000000        0.00095500        0.00085678        0.00470308        0.00044705
      58         -0.563300        1.000000        0.00038863        0.00096605        0.00188961        0.00044116
      59         -0.560081        1.000000        0.00039768        0.00108456        0.00138369        0.00076803
      60         -0.558359        1.000000        0.00008881        0.00027369        0.00028850        0.00045696
      61         -0.556976        1.000000        0.00011555        0.00019719        0.00064804        0.00044020
      62         -0.556070        1.000000        0.00039276        0.00053209        0.00031030        0.00061907
      63         -0.554165        1.000000        0.00021369        0.00060996        0.00130885        0.00069135
      64         -0.553688        1.000000        0.00017618        0.00030084        0.00164627        0.00056277
      65         -0.551180        1.000000        0.00050606        0.00162343        0.00134176        0.00277783
      66         -0.549893        1.000000        0.00018179        0.00032696        0.00064343        0.00059825
      67         -0.547784        1.000000        0.00031354        0.00024784        0.00044500        0.00058888
      68         -0.546127        1.000000        0.00019933        0.00028967        0.00045673        0.00051547
      69         -0.545527        1.000000        0.00021701        0.00044471        0.00035287        0.00062902
      70         -0.545120        1.000000        0.00027818        0.00054953        0.00063942        0.00274682
      71         -0.544052        1.000000        0.00021763        0.00127985        0.00025344        0.00078562
      72         -0.543255        1.000000        0.00021478        0.00032533        0.00036656        0.00087535
      73         -0.541492        1.000000        0.00010994        0.00028108        0.00019491        0.00120647
      74         -0.541047        1.000000        0.00028794        0.00036350        0.00040625        0.00107133
      75         -0.538704        1.000000        0.00008424        0.00011392        0.00016882        0.00043546
      76         -0.538480        1.000000        0.00012253        0.00019998        0.00023707        0.00058990
      77         -0.538359        1.000000        0.00030819        0.00018672        0.00034362        0.00345310
      78         -0.536829        1.000000        0.00003799        0.00008072        0.00019584        0.00019375
      79         -0.536566        1.000000        0.00006472        0.00009435        0.00073649        0.00099603
      80         -0.534539        1.000000        0.00028364        0.00112697        0.00102965        0.00207884
      81         -0.534011        1.000000        0.00042763        0.00121668        0.00120341        0.00347651
      82         -0.533515        1.000000        0.00017796        0.00032155        0.00064844        0.00166250
      83         -0.532510        1.000000        0.00044957        0.00219983        0.00141152        0.00775433
      84         -0.532063        1.000000        0.00010221        0.00160305        0.00083277        0.00086332
      85         -0.530632        1.000000        0.00027225        0.00308404        0.00092177        0.00445920
      86         -0.530478        1.000000        0.00045385        0.00074066        0.01050812        0.02031931
      87         -0.529789        1.000000        0.00007026        0.00028058        0.00031477        0.00039606
      88         -0.529542        1.000000        0.00005910        0.00036871        0.00052860        0.00154104
      89         -0.527806        1.000000        0.00017577        0.00052062        0.00021611        0.00031837
      90         -0.527426        1.000000        0.00001423        0.00012618        0.00010925        0.00021636
      91         -0.525596        1.000000        0.00036512        0.00182387        0.00133106        0.00832561
      92         -0.516804        1.000000        0.00000323        0.00015896        0.00003642        0.00007388
      93         -0.516735        1.000000        0.00002386        0.00024191        0.00017255        0.00019157
      94         -0.515385        1.000000        0.00001866        0.00014868        0.00010898        0.00012961
      95         -0.510503        1.000000        0.00008299        0.00069492        0.00045801        0.00046015
      96         -0.495347        1.000000        0.00076008        0.30703650        0.04332219        0.28243094
      97         -0.492672        1.000000        0.00289436        0.00085209        0.09999592        0.50917227
      98         -0.487358        1.000000        0.00021369        0.01469573        0.00221425        0.01326804
      99         -0.484721        1.000000        0.00120318        0.05903309        0.00618472        0.03375069
     100         -0.481282        1.000000        0.00002400        0.00184481        0.00145496        0.00103294
     101         -0.480864        1.000000        0.00080493        0.32049866        0.00342501        0.31083415
     102         -0.478723        1.000000        0.00044230        0.24725713        0.10039734        0.15683347
     103         -0.477550        1.000000        0.00113142        0.34605440        0.15457953        0.14223298
     104         -0.476059        1.000000        0.00036959        0.01745718        0.36685176        0.25350383
     105         -0.475910        1.000000        0.00005154        0.08348997        0.04286338        0.02807455
     106         -0.474289        1.000000        0.00023390        0.31719092        0.18442533        0.14144989
     107         -0.473439        1.000000        0.00002954        0.00082359        0.00999605        0.00333917
     108         -0.472459        1.000000        0.00012927        0.02168685        0.00549647        0.59965494
     109         -0.471999        1.000000        0.00217048        0.22188365        0.06896932        0.32150954
     110         -0.471829        1.000000        0.00071663        0.09095222        0.01996830        0.03902136
     111         -0.470481        1.000000        0.00040110        0.09811555        0.01726702        0.05496842
     112         -0.469965        1.000000        0.00037164        0.08018727        0.01260604        0.53485615
     113         -0.469843        1.000000        0.00504731        0.11105693        0.15339547        0.38196815
     114         -0.469584        1.000000        0.00078251        0.26077983        0.34929561        0.02413103
     115         -0.468896        1.000000        0.00002116        0.23653714        0.01319235        0.39011995
     116         -0.466355        1.000000        0.00342101        0.04290437        0.42286778        0.16544367
     117         -0.461796        1.000000        0.00054325        0.03734575        0.08417104        0.01017227
     118         -0.455765        1.000000        0.00024511        0.04730245        0.22354145        0.36644540
     119         -0.455671        1.000000        0.00484703        0.09963047        0.08110394        0.48108396
     120         -0.454673        1.000000        0.00200586        0.04163598        0.21869500        0.32841008
     121         -0.454550        1.000000        0.00325131        0.45372705        0.08715906        0.10322928
     122         -0.453021        1.000000        0.00027502        0.05289186        0.10340748        0.46741867
     123         -0.451525        1.000000        0.00280576        0.04736789        0.25175515        0.34868480
     124         -0.445580        1.000000        0.00059329        0.02801207        0.28557731        0.31516322
     125         -0.444478        1.000000        0.00001311        0.00007128        0.02547170        0.60543614
     126         -0.442913        1.000000        0.00418659        0.03218085        0.50112008        0.02472126
     127         -0.440331        1.000000        0.00455314        0.34162741        0.23143561        0.05848821
     128         -0.439302        1.000000        0.00569785        0.04785094        0.03937364        0.54753647
     129         -0.434825        1.000000        0.00023344        0.34407966        0.19881920        0.08655412
     130         -0.434677        1.000000        0.00131607        0.30415031        0.14576442        0.19711325
     131         -0.433154        1.000000        0.00024140        0.00444742        0.00720485        0.01399559
     132         -0.432881        1.000000        0.00500567        0.04670596        0.16595202        0.42908700
     133         -0.431256        1.000000        0.00079216        0.00593538        0.06335557        0.00927385
     134         -0.430707        1.000000        0.00036570        0.00156952        0.01061440        0.00656970
     135         -0.428462        1.000000        0.00307247        0.08253572        0.27460413        0.28457585
     136         -0.427734        1.000000        0.00013445        0.00307541        0.00194368        0.00829437
     137         -0.426930        1.000000        0.00021357        0.00588214        0.00227988        0.01624514
     138         -0.426619        1.000000        0.00458915        0.16626372        0.00362255        0.43101582
     139         -0.425452        1.000000        0.00013239        0.00130947        0.00122606        0.00361348
     140         -0.424772        1.000000        0.00012765        0.00126370        0.00085609        0.00289934
     141         -0.422355        1.000000        0.00026373        0.00167078        0.00201549        0.00326591
     142         -0.415794        1.000000        0.00008734        0.00128633        0.00083978        0.00159330
     143         -0.414198        1.000000        0.00018263        0.00171197        0.00134111        0.00157548
     144         -0.412600        1.000000        0.00622712        0.55888038        0.04866869        0.03131714
     145         -0.411428        1.000000        0.00240768        0.09315004        0.16837434        0.00360993
     146         -0.411226        1.000000        0.00307604        0.12689964        0.23188587        0.00416871
     147         -0.408676        1.000000        0.00001444        0.14511055        0.00001282        0.48352087
     148         -0.406736        1.000000        0.00497567        0.14340299        0.21598476        0.28188942
     149         -0.403502        1.000000        0.00665465        0.34981450        0.00473730        0.27533787
     150         -0.402987        1.000000        0.00000153        0.00001083        0.13182574        0.49673261
     151         -0.401760        1.000000        0.00000662        0.00230759        0.20692434        0.41990983
     152         -0.400387        1.000000        0.00185583        0.01840144        0.00309035        0.00545893
     153         -0.395709        1.000000        0.00004525        0.10528899        0.33328903        0.18690781
     154         -0.394701        1.000000        0.00447649        0.29883819        0.08790689        0.25174829
     155         -0.389757        1.000000        0.01487386        0.02908685        0.06973608        0.02160020
     156         -0.389654        1.000000        0.01454008        0.02648956        0.06927418        0.02192815
     157         -0.388132        1.000000        0.07401916        0.08449672        0.31268792        0.08339898
     158         -0.386249        1.000000        0.00135655        0.00538380        0.02405275        0.00206695
     159         -0.368548        1.000000        0.00029262        0.00196694        0.00746953        0.00859352
     160         -0.366408        1.000000        0.00012642        0.00016641        0.00080152        0.00394518
     161         -0.365566        1.000000        0.00001895        0.00103825        0.00006816        0.00031551
     162         -0.365096        1.000000        0.00001079        0.00002425        0.00004503        0.00002670
     163         -0.363699        1.000000        0.00020017        0.00327554        0.00029309        0.00435832
     164         -0.362148        1.000000        0.00000505        0.00003799        0.00002937        0.00004137
     165         -0.353240        1.000000        0.04362315        0.08598647        0.09620596        0.06541020
     166         -0.345984        1.000000        0.03212719        0.05399635        0.08343286        0.05785658
     167         -0.342519        1.000000        0.01820072        0.10967141        0.01416075        0.02375463
     168         -0.342061        1.000000        0.01633879        0.03256157        0.07031514        0.02434406
     169         -0.342014        1.000000        0.00245946        0.00495839        0.01062302        0.00362176
     170         -0.334285        1.000000        0.00826199        0.02381807        0.01256736        0.01448544
     171         -0.333105        1.000000        0.11237614        0.30853795        0.16911793        0.19001588
     172         -0.332611        1.000000        0.00061931        0.00105049        0.00099055        0.00080828
     173         -0.332134        1.000000        0.09047475        0.18717731        0.20021950        0.09308846
     174         -0.331920        1.000000        0.03693625        0.07634787        0.08231420        0.03816576
     175         -0.327802        1.000000        0.10011104        0.04629713        0.38752870        0.08709740
     176         -0.321941        1.000000        0.12382934        0.19179141        0.13647324        0.26980760
     177         -0.315533        1.000000        0.14912282        0.26817825        0.44346534        0.01500898
     178         -0.314688        1.000000        0.14611578        0.29809331        0.08479993        0.35221596
     179         -0.312353        1.000000        0.14861626        0.13871329        0.30268884        0.30291566
     180         -0.309858        1.000000        0.12484439        0.03247396        0.18346450        0.43407207
     181         -0.308708        1.000000        0.05815191        0.17645150        0.30269358        0.05890593
     182         -0.305956        1.000000        0.13160940        0.08362135        0.32626339        0.21798677
     183         -0.303496        1.000000        0.14906616        0.31930102        0.06702315        0.35522095
     184         -0.296031        1.000000        0.14873290        0.32307744        0.35909557        0.06583501
     185         -0.291957        1.000000        0.02352786        0.19135333        0.07524372        0.08767187
     186         -0.291516        1.000000        0.10062799        0.42764272        0.13938744        0.23698727
     187         -0.287501        1.000000        0.14551562        0.27913764        0.32356422        0.13706578
     188         -0.283565        1.000000        0.11021177        0.22671948        0.09096551        0.31022860
     189         -0.275133        1.000000        0.15000759        0.05619387        0.24145503        0.41395146
     190         -0.270440        1.000000        0.11678794        0.15998441        0.39942176        0.06505804
     191         -0.268117        1.000000        0.13714697        0.46329857        0.28069073        0.00960477
     192         -0.267425        1.000000        0.15098734        0.02356302        0.37282499        0.36918752
     193         -0.265546        1.000000        0.08446393        0.22759570        0.27568982        0.15897060
     194         -0.265281        1.000000        0.08787791        0.47641297        0.15689115        0.10287240
     195         -0.261404        1.000000        0.13624620        0.52419501        0.01385549        0.23085763
     196         -0.260278        1.000000        0.14224172        0.48277903        0.23278701        0.03016595
     197         -0.253534        1.000000        0.00916055        0.09221070        0.06558321        0.03485958
     198         -0.253198        1.000000        0.00074703        0.33664083        0.21387766        0.42680655
     199         -0.251214        1.000000        0.02663377        0.13746199        0.09901119        0.08103080
     200         -0.250226        1.000000        0.06259123        0.18361102        0.18856488        0.24545069
     201         -0.248409        1.000000        0.01770077        0.25809529        0.17679361        0.11109042
     202         -0.247399        1.000000        0.01174894        0.17533798        0.11928729        0.08684323
     203         -0.245442        1.000000        0.01770157        0.18035039        0.12983911        0.05984451
     204         -0.245006        1.000000        0.03184894        0.23140970        0.03849296        0.05703490
     205         -0.243288        1.000000        0.01212149        0.14095628        0.23873569        0.07733214
     206         -0.242185        1.000000        0.00630196        0.09315494        0.10641706        0.04619463
     207         -0.240327        1.000000        0.00686983        0.07058274        0.02689970        0.02626468
     208         -0.239640        1.000000        0.00161557        0.09950260        0.08897723        0.04736187
     209         -0.238620        1.000000        0.02989991        0.28008566        0.31622932        0.26588886
     210         -0.237395        1.000000        0.00840251        0.06812954        0.06646279        0.06300759
     211         -0.236718        1.000000        0.01945474        0.19089021        0.16386187        0.12549253
     212         -0.236343        1.000000        0.04922403        0.25674447        0.39835548        0.10644769
     213         -0.236028        1.000000        0.01578409        0.19126773        0.17706200        0.28641603
     214         -0.235925        1.000000        0.01320024        0.40583202        0.30068636        0.15642236
     215         -0.235747        1.000000        0.00863720        0.20685350        0.25336255        0.23748795
     216         -0.235461        1.000000        0.00448328        0.32764668        0.37716052        0.06682943
     217         -0.235178        1.000000        0.00539080        0.13792690        0.33615193        0.13747634
     218         -0.233796        1.000000        0.01362095        0.10695279        0.28957536        0.03501672
     219         -0.233142        1.000000        0.00882689        0.10408740        0.21637085        0.01778229
     220         -0.232378        1.000000        0.02512708        0.57642685        0.18378115        0.06255684
     221         -0.231996        1.000000        0.03834932        0.50622833        0.13535369        0.07572070
     222         -0.230502        1.000000        0.02610897        0.31149503        0.48987897        0.02185775
     223         -0.230159        1.000000        0.03312255        0.18931453        0.27126615        0.05120352
     224         -0.229228        1.000000        0.02849010        0.23989596        0.06473016        0.05802857
     225         -0.228754        1.000000        0.03252866        0.19918596        0.21605011        0.06207931
     226         -0.227323        1.000000        0.00899903        0.07466801        0.09129655        0.02563918
     227         -0.226492        1.000000        0.03570657        0.06984750        0.41947771        0.07971877
     228         -0.225328        1.000000        0.02581359        0.49419430        0.11234437        0.03316961
     229         -0.224308        1.000000        0.01601997        0.21773595        0.22008828        0.11286470
     230         -0.222953        1.000000        0.00972604        0.11035228        0.09059842        0.07065237
     231         -0.221926        1.000000        0.13688665        0.16842825        0.28888199        0.20391422
     232         -0.221581        1.000000        0.16527562        0.51263628        0.08353326        0.15666658
     233         -0.221382        1.000000        0.00295781        0.42263072        0.08489249        0.30664873
     234         -0.220920        1.000000        0.04891672        0.10510618        0.24622043        0.07822724
     235         -0.219668        1.000000        0.05931953        0.13548940        0.17558544        0.05588189
     236         -0.218507        1.000000        0.11990357        0.29869622        0.19995233        0.08560801
     237         -0.218245        1.000000        0.04330711        0.37408567        0.23744881        0.08453297
     238         -0.216471        1.000000        0.00928110        0.15589316        0.40054620        0.05821150
     239         -0.215542        1.000000        0.13662941        0.35147321        0.23490465        0.06464419
     240         -0.215277        1.000000        0.03387103        0.10170095        0.10952840        0.06173932
     241         -0.215020        1.000000        0.01094498        0.08717556        0.09798376        0.04398568
     242         -0.214640        1.000000        0.01056084        0.04044915        0.07942570        0.19829459
     243         -0.213601        1.000000        0.00837518        0.05179610        0.07065411        0.03615654
     244         -0.212182        1.000000        0.00693746        0.03573171        0.06652870        0.08531788
     245         -0.211022        1.000000        0.00558678        0.03977251        0.11658567        0.27951330
     246         -0.210207        1.000000        0.10674469        0.17087277        0.60899841        0.02152855
     247         -0.209091        1.000000        0.00719541        0.13539929        0.14206526        0.02342449
     248         -0.207983        1.000000        0.01124791        0.49143715        0.07465804        0.04352681
     249         -0.207249        1.000000        0.01202766        0.21440215        0.09092608        0.04510144
     250         -0.206452        1.000000        0.01184980        0.17481558        0.10138095        0.08686801
     251         -0.206111        1.000000        0.04176037        0.33791441        0.12846864        0.10535457
     252         -0.205643        1.000000        0.00362178        0.20879792        0.26690446        0.04291090
     253         -0.204680        1.000000        0.01881775        0.25200314        0.21475996        0.12022872
     254         -0.204533        1.000000        0.00258052        0.25306501        0.15255206        0.07455052
     255         -0.203911        1.000000        0.00156226        0.27567969        0.32753342        0.29495429
     256         -0.203736        1.000000        0.00197260        0.27958196        0.11062048        0.09297091
     257         -0.202465        1.000000        0.00725922        0.10342872        0.31676975        0.18173328
     258         -0.200226        1.000000        0.00158085        0.02483806        0.01747186        0.01776190
     259         -0.199897        1.000000        0.01012824        0.05663682        0.09522662        0.17133174