# Projected DOS for atomic kind Pb at iteration step i = 0, E(Fermi) =    -0.147204 a.u.
#     MO Eigenvalue [a.u.]      Occupation                 s                py                pz                px
       1         -0.932601        1.000000        0.00000006        0.00000025        0.00000000        0.00000002
       2         -0.927664        1.000000        0.00000018        0.00000022        0.00000018        0.00000140
       3         -0.917399        1.000000        0.00000027        0.00000102        0.00000016        0.00000001
       4         -0.915157        1.000000        0.00000003        0.00000011        0.00000000        0.00000001
       5         -0.914287        1.000000        0.00000008        0.00000000        0.00000030        0.00000001
       6         -0.914271        1.000000        0.00000032        0.00000407        0.00000640        0.00000356
       7         -0.913618        1.000000        0.00000022        0.00000219        0.00000076        0.00000001
       8         -0.910380        1.000000        0.00000008        0.00000003        0.00000001        0.00000033
       9         -0.910074        1.000000        0.00000023        0.00000075        0.00000039        0.00000265
      10         -0.909818        1.000000        0.00000081        0.00000539        0.00000003        0.00001164
      11         -0.908270        1.000000        0.00000022        0.00000009        0.00000073        0.00000002
      12         -0.906450        1.000000        0.00000021        0.00000000        0.00000003        0.00000069
      13         -0.902559        1.000000        0.00000011        0.00000167        0.00000049        0.00000045
      14         -0.899685        1.000000        0.00000031        0.00000320        0.00000316        0.00000193
      15         -0.898768        1.000000        0.00000034        0.00000383        0.00000456        0.00000217
      16         -0.896304        1.000000        0.00000028        0.00000655        0.00000043        0.00000218
      17         -0.893825        1.000000        0.00000085        0.00000223        0.00000939        0.00000550
      18         -0.889254        1.000000        0.00000009        0.00000061        0.00000007        0.00000001
      19         -0.886911        1.000000        0.00000000        0.00000001        0.00000000        0.00000000
      20         -0.885845        1.000000        0.00000036        0.00000001        0.00000116        0.00000002
      21         -0.879739        1.000000        0.00000035        0.00000038        0.00000001        0.00000079
      22         -0.878850        1.000000        0.00000002        0.00000066        0.00000275        0.00000035
      23         -0.878192        1.000000        0.00000029        0.00000016        0.00000087        0.00001281
      24         -0.876584        1.000000        0.00000275        0.00002000        0.00003500        0.00000720
      25         -0.870920        1.000000        0.00000004        0.00000019        0.00000010        0.00000009
      26         -0.869373        1.000000        0.00000003        0.00000000        0.00000001        0.00000010
      27         -0.866703        1.000000        0.00000003        0.00000083        0.00000028        0.00000034
      28         -0.864538        1.000000        0.00000003        0.00000000        0.00000009        0.00000001
      29         -0.860287        1.000000        0.00000039        0.00000011        0.00000018        0.00000163
      30         -0.860056        1.000000        0.00000297        0.00000796        0.00000095        0.00000003
      31         -0.856540        1.000000        0.00000016        0.00000246        0.00000122        0.00000031
      32         -0.855185        1.000000        0.00000248        0.00000053        0.00000692        0.00000011
      33         -0.849988        1.000000        0.00000000        0.00000000        0.00000000        0.00000000
      34         -0.848266        1.000000        0.00000036        0.00000140        0.00000363        0.00000106
      35         -0.845173        1.000000        0.00000129        0.00001219        0.00000045        0.00000020
      36         -0.844364        1.000000        0.00000003        0.00000054        0.00000105        0.00000061
      37         -0.844057        1.000000        0.00000000        0.00000000        0.00000000        0.00000000
      38         -0.842460        1.000000        0.00000045        0.00000001        0.00000002        0.00000133
      39         -0.841009        1.000000        0.00000035        0.00000032        0.00000274        0.00000161
      40         -0.840749        1.000000        0.00000020        0.00000026        0.00000028        0.00000091
      41         -0.840304        1.000000        0.00000019        0.00000037        0.00000106        0.00000080
      42         -0.837257        1.000000        0.00000043        0.00000007        0.00000005        0.00000141
      43         -0.837131        1.000000        0.00000051        0.00000543        0.00000162        0.00000001
      44         -0.830499        1.000000        0.00000037        0.00000380        0.00000368        0.00000108
      45         -0.827251        1.000000        0.00000002        0.00000066        0.00000042        0.00000022
      46         -0.825005        1.000000        0.00000006        0.00000000        0.00000020        0.00000000
      47         -0.651897        1.000000        0.00001597        0.00000812        0.00001066        0.00001815
      48         -0.648160        1.000000        0.00003116        0.00002622        0.00002630        0.00000795
      49         -0.646541        1.000000        0.00004408        0.00004550        0.00002495        0.00002099
      50         -0.621140        1.000000        0.00001568        0.00001748        0.00000330        0.00000290
      51         -0.611515        1.000000        0.00007166        0.00002941        0.00002470        0.00004768
      52         -0.611438        1.000000        0.00017653        0.00008337        0.00008726        0.00001056
      53         -0.609278        1.000000        0.00010090        0.00004645        0.00005545        0.00003277
      54         -0.598164        1.000000        0.00119171        0.00005856        0.00143058        0.00081905
      55         -0.597766        1.000000        0.00704557        0.00303675        0.00211665        0.00001609
      56         -0.570013        1.000000        0.11784632        0.00029858        0.00213375        0.00013854
      57         -0.567667        1.000000        0.09115085        0.00362641        0.00322266        0.00037914
      58         -0.563300        1.000000        0.09062603        0.00553445        0.00375285        0.00168756
      59         -0.560081        1.000000        0.06789542        0.01346818        0.00996570        0.00253542
      60         -0.558359        1.000000        0.03054938        0.00298500        0.00345860        0.02183383
      61         -0.556976        1.000000        0.05383501        0.00241039        0.01587259        0.00219543
      62         -0.556070        1.000000        0.11485358        0.00433805        0.00188549        0.00244391
      63         -0.554165        1.000000        0.05235153        0.00625900        0.00524409        0.00678627
      64         -0.553688        1.000000        0.03749642        0.00423984        0.01409618        0.00244541
      65         -0.551180        1.000000        0.00387872        0.01687240        0.01984516        0.00074555
      66         -0.549893        1.000000        0.04528288        0.00378422        0.00887090        0.00770299
      67         -0.547784        1.000000        0.08185124        0.00589072        0.00557427        0.00677965
      68         -0.546127        1.000000        0.02651632        0.00463866        0.01347324        0.00835231
      69         -0.545527        1.000000        0.02987145        0.00688812        0.00609139        0.00970230
      70         -0.545120        1.000000        0.08238259        0.00390390        0.00282592        0.02115821
      71         -0.544052        1.000000        0.01130802        0.00861059        0.02897387        0.00110108
      72         -0.543255        1.000000        0.01534051        0.00684922        0.01666491        0.00702638
      73         -0.541492        1.000000        0.00469557        0.01540602        0.00613111        0.01636022
      74         -0.541047        1.000000        0.01486619        0.01825859        0.01534087        0.00858678
      75         -0.538704        1.000000        0.00487255        0.03200314        0.00451163        0.00368387
      76         -0.538480        1.000000        0.00548596        0.02396504        0.00491006        0.00371190
      77         -0.538359        1.000000        0.00310592        0.00675003        0.00559929        0.02001079
      78         -0.536829        1.000000        0.00863649        0.00330959        0.00191981        0.00381169
      79         -0.536566        1.000000        0.00030594        0.00033870        0.00006001        0.00386876
      80         -0.534539        1.000000        0.01701682        0.00821654        0.00985708        0.01104135
      81         -0.534011        1.000000        0.01065852        0.00391450        0.01005280        0.01620539
      82         -0.533515        1.000000        0.00756363        0.00647505        0.00300003        0.01850120
      83         -0.532510        1.000000        0.01914692        0.00936595        0.01326462        0.00754254
      84         -0.532063        1.000000        0.00701053        0.01952968        0.00125032        0.00636925
      85         -0.530632        1.000000        0.00317267        0.01332939        0.00497210        0.00536048
      86         -0.530478        1.000000        0.00565536        0.00021905        0.00081782        0.02465377
      87         -0.529789        1.000000        0.00096221        0.00047035        0.02442514        0.00689505
      88         -0.529542        1.000000        0.01445318        0.00278561        0.00089296        0.01409482
      89         -0.527806        1.000000        0.00087048        0.01088488        0.00005977        0.01631699
      90         -0.527426        1.000000        0.00265972        0.00204736        0.00018101        0.00608755
      91         -0.525596        1.000000        0.00505588        0.01665978        0.01354750        0.00076117
      92         -0.516804        1.000000        0.00122977        0.00011983        0.00281568        0.00066107
      93         -0.516735        1.000000        0.00255716        0.00050173        0.00113804        0.00079763
      94         -0.515385        1.000000        0.00088063        0.00140557        0.00291148        0.00049646
      95         -0.510503        1.000000        0.00607948        0.00029692        0.00578814        0.00096691
      96         -0.495347        1.000000        0.00078499        0.00046013        0.00001548        0.00000185
      97         -0.492672        1.000000        0.00125411        0.00000475        0.00033658        0.00125987
      98         -0.487358        1.000000        0.00269944        0.00131252        0.00001035        0.00003147
      99         -0.484721        1.000000        0.00035866        0.00001127        0.00004701        0.00000878
     100         -0.481282        1.000000        0.00162182        0.00000144        0.00002503        0.00042164
     101         -0.480864        1.000000        0.00140202        0.00020971        0.00005373        0.00000070
     102         -0.478723        1.000000        0.00199996        0.00025182        0.00004412        0.00003648
     103         -0.477550        1.000000        0.00343507        0.00001160        0.00015718        0.00017495
     104         -0.476059        1.000000        0.00049530        0.00000461        0.00013128        0.00002294
     105         -0.475910        1.000000        0.00066503        0.00002390        0.00011240        0.00005375
     106         -0.474289        1.000000        0.00024565        0.00000011        0.00010640        0.00000210
     107         -0.473439        1.000000        0.00210182        0.00006242        0.00053475        0.00001284
     108         -0.472459        1.000000        0.00269605        0.00006377        0.00000515        0.00042562
     109         -0.471999        1.000000        0.00478927        0.00112185        0.00003624        0.00002501
     110         -0.471829        1.000000        0.00069952        0.00000702        0.00001215        0.00013121
     111         -0.470481        1.000000        0.00117132        0.00003209        0.00009151        0.00009612
     112         -0.469965        1.000000        0.00216369        0.00000753        0.00001801        0.00030897
     113         -0.469843        1.000000        0.00521090        0.00000347        0.00004687        0.00033217
     114         -0.469584        1.000000        0.00190250        0.00000292        0.00000969        0.00007013
     115         -0.468896        1.000000        0.00031652        0.00002057        0.00004651        0.00000063
     116         -0.466355        1.000000        0.00011955        0.00001943        0.00000009        0.00000050
     117         -0.461796        1.000000        0.00085707        0.00003249        0.00001688        0.00000518
     118         -0.455765        1.000000        0.00032129        0.00004850        0.00000458        0.00003217
     119         -0.455671        1.000000        0.00044109        0.00000123        0.00000186        0.00003417
     120         -0.454673        1.000000        0.00060903        0.00001064        0.00001172        0.00000551
     121         -0.454550        1.000000        0.00102540        0.00024066        0.00001089        0.00001902
     122         -0.453021        1.000000        0.00493756        0.00003753        0.00044992        0.00004110
     123         -0.451525        1.000000        0.00000263        0.00001752        0.00000159        0.00002094
     124         -0.445580        1.000000        0.00032380        0.00000235        0.00000225        0.00000069
     125         -0.444478        1.000000        0.00059616        0.00000155        0.00000546        0.00000055
     126         -0.442913        1.000000        0.00102725        0.00000206        0.00000387        0.00001413
     127         -0.440331        1.000000        0.00130926        0.00000545        0.00000324        0.00001594
     128         -0.439302        1.000000        0.00063459        0.00000076        0.00000475        0.00000040
     129         -0.434825        1.000000        0.00033765        0.00009534        0.00005147        0.00002923
     130         -0.434677        1.000000        0.00231582        0.00001690        0.00004096        0.00000491
     131         -0.433154        1.000000        0.62911998        0.00062044        0.00050575        0.00017610
     132         -0.432881        1.000000        0.00188294        0.00000091        0.00000115        0.00000050
     133         -0.431256        1.000000        0.13646745        0.00014087        0.00012813        0.00008469
     134         -0.430707        1.000000        0.58748306        0.00062305        0.00035906        0.00020593
     135         -0.428462        1.000000        0.00116511        0.00000849        0.00000541        0.00002715
     136         -0.427734        1.000000        0.06331075        0.00008949        0.00004970        0.00002995
     137         -0.426930        1.000000        0.34367603        0.00014555        0.00013221        0.00026706
     138         -0.426619        1.000000        0.03729714        0.00003418        0.00011258        0.00001579
     139         -0.425452        1.000000        0.46786936        0.00046976        0.00016375        0.00024523
     140         -0.424772        1.000000        0.54319236        0.00114162        0.00063662        0.00098333
     141         -0.422355        1.000000        0.69324058        0.00097043        0.00029202        0.00135796
     142         -0.415794        1.000000        0.73372477        0.00068765        0.00044307        0.00045305
     143         -0.414198        1.000000        0.73526516        0.00058550        0.00030503        0.00035747
     144         -0.412600        1.000000        0.00022046        0.00000011        0.00000014        0.00000078
     145         -0.411428        1.000000        0.42790172        0.00023213        0.00008149        0.00028163
     146         -0.411226        1.000000        0.31106772        0.00017508        0.00005216        0.00017847
     147         -0.408676        1.000000        0.00000067        0.00000000        0.00000002        0.00000007
     148         -0.406736        1.000000        0.00446547        0.00001670        0.00002080        0.00000152
     149         -0.403502        1.000000        0.00060835        0.00000022        0.00001007        0.00000015
     150         -0.402987        1.000000        0.00000274        0.00000007        0.00000004        0.00000016
     151         -0.401760        1.000000        0.00013858        0.00000051        0.00000643        0.00000229
     152         -0.400387        1.000000        0.00536919        0.00005173        0.00000098        0.00000618
     153         -0.395709        1.000000        0.00266736        0.00000589        0.00037372        0.00001709
     154         -0.394701        1.000000        0.00207476        0.00000556        0.00000388        0.00003669
     155         -0.389757        1.000000        0.00027674        0.00006974        0.00004627        0.00001913
     156         -0.389654        1.000000        0.00111979        0.00007342        0.00002402        0.00002420
     157         -0.388132        1.000000        0.00149284        0.00031040        0.00001396        0.00002449
     158         -0.386249        1.000000        0.00087758        0.00002601        0.00001882        0.00004842
     159         -0.368548        1.000000        0.00015558        0.00000832        0.00004134        0.00005437
     160         -0.366408        1.000000        0.00016935        0.00000340        0.00002505        0.00008637
     161         -0.365566        1.000000        0.00006139        0.00003371        0.00007023        0.00001081
     162         -0.365096        1.000000        0.00029036        0.00009207        0.00007785        0.00008962
     163         -0.363699        1.000000        0.00004107        0.00002417        0.00005108        0.00002632
     164         -0.362148        1.000000        0.00010088        0.00008205        0.00004725        0.00001901
     165         -0.353240        1.000000        0.00004290        0.00002405        0.00000984        0.00001075
     166         -0.345984        1.000000        0.00009632        0.00012940        0.00012725        0.00002792
     167         -0.342519        1.000000        0.00002539        0.00000812        0.00000476        0.00001235
     168         -0.342061        1.000000        0.00007768        0.00009371        0.00006035        0.00014033
     169         -0.342014        1.000000        0.00010203        0.00006832        0.00001951        0.00002469
     170         -0.334285        1.000000        0.00001164        0.00005193        0.00012185        0.00010101
     171         -0.333105        1.000000        0.00002325        0.00016031        0.00018719        0.00031251
     172         -0.332611        1.000000        0.00010822        0.00009283        0.00013518        0.00010813
     173         -0.332134        1.000000        0.00030984        0.00044285        0.00010436        0.00043206
     174         -0.331920        1.000000        0.00064557        0.00009312        0.00007368        0.00008530
     175         -0.327802        1.000000        0.00001707        0.00002073        0.00000358        0.00000641
     176         -0.321941        1.000000        0.00007789        0.00004314        0.00004324        0.00002533
     177         -0.315533        1.000000        0.00026784        0.00005702        0.00000948        0.00050279
     178         -0.314688        1.000000        0.00015446        0.00000188        0.00022793        0.00000135
     179         -0.312353        1.000000        0.00000911        0.00000824        0.00000146        0.00001034
     180         -0.309858        1.000000        0.00009653        0.00025521        0.00001194        0.00002756
     181         -0.308708        1.000000        0.00027083        0.00307369        0.00072932        0.00010104
     182         -0.305956        1.000000        0.00004789        0.00020828        0.00014387        0.00013549
     183         -0.303496        1.000000        0.00011628        0.00000738        0.00015627        0.00001408
     184         -0.296031        1.000000        0.00004754        0.00000559        0.00000099        0.00009573
     185         -0.291957        1.000000        0.00040422        0.00086226        0.00341235        0.00064722
     186         -0.291516        1.000000        0.00014091        0.00003096        0.00002820        0.00054799
     187         -0.287501        1.000000        0.00000091        0.00004729        0.00000449        0.00000033
     188         -0.283565        1.000000        0.00005688        0.00013370        0.00020244        0.00054021
     189         -0.275133        1.000000        0.00020615        0.00063810        0.00051462        0.00073286
     190         -0.270440        1.000000        0.00005087        0.00060868        0.00129832        0.00027468
     191         -0.268117        1.000000        0.00010972        0.00026799        0.00008175        0.00245133
     192         -0.267425        1.000000        0.00001133        0.00012787        0.00006942        0.00001570
     193         -0.265546        1.000000        0.00001982        0.00041456        0.00006137        0.00001812
     194         -0.265281        1.000000        0.00000946        0.00008112        0.00358867        0.00002938
     195         -0.261404        1.000000        0.00005505        0.00002640        0.00076441        0.00003780
     196         -0.260278        1.000000        0.00010294        0.00031963        0.00530078        0.00002811
     197         -0.253534        1.000000        0.00028386        0.06413309        0.08136627        0.01679823
     198         -0.253198        1.000000        0.00001735        0.00021920        0.00059742        0.00028946
     199         -0.251214        1.000000        0.00123584        0.03768866        0.05104937        0.04717064
     200         -0.250226        1.000000        0.00021761        0.00690597        0.01115689        0.01758322
     201         -0.248409        1.000000        0.00065719        0.00790424        0.04386409        0.03435066
     202         -0.247399        1.000000        0.00182070        0.07282778        0.05733284        0.01712912
     203         -0.245442        1.000000        0.00084221        0.03807761        0.08328782        0.00804506
     204         -0.245006        1.000000        0.00101208        0.04726645        0.02221958        0.05538382
     205         -0.243288        1.000000        0.00079320        0.01724931        0.06476730        0.03054315
     206         -0.242185        1.000000        0.00250691        0.07579676        0.06425116        0.04748012
     207         -0.240327        1.000000        0.00075760        0.17644499        0.01332195        0.05405432
     208         -0.239640        1.000000        0.00169775        0.09100255        0.06138413        0.03994123
     209         -0.238620        1.000000        0.00014445        0.01245840        0.00226679        0.00882828
     210         -0.237395        1.000000        0.00204896        0.08813408        0.01795164        0.11310712
     211         -0.236718        1.000000        0.00165178        0.02924269        0.03361941        0.06015251
     212         -0.236343        1.000000        0.00018597        0.01575489        0.01484406        0.00413111
     213         -0.236028        1.000000        0.00057269        0.01354215        0.01375554        0.05126482
     214         -0.235925        1.000000        0.00048879        0.01905847        0.00283937        0.00699533
     215         -0.235747        1.000000        0.00054086        0.05380600        0.01294442        0.00436465
     216         -0.235461        1.000000        0.00018778        0.02605735        0.00729651        0.02169052
     217         -0.235178        1.000000        0.00068325        0.01927766        0.02424286        0.03965470
     218         -0.233796        1.000000        0.00080703        0.07276356        0.01643022        0.03806790
     219         -0.233142        1.000000        0.00065608        0.04278349        0.01370630        0.11336243
     220         -0.232378        1.000000        0.00033673        0.00715990        0.01419620        0.00990242
     221         -0.231996        1.000000        0.00058284        0.03462800        0.00997375        0.00995584
     222         -0.230502        1.000000        0.00019543        0.00161001        0.01761295        0.01425029
     223         -0.230159        1.000000        0.00037596        0.00490537        0.07770466        0.01639077
     224         -0.229228        1.000000        0.00116329        0.02600488        0.09131588        0.03072291
     225         -0.228754        1.000000        0.00055254        0.01060786        0.05359991        0.04506828
     226         -0.227323        1.000000        0.00055683        0.01270599        0.12436265        0.07978023
     227         -0.226492        1.000000        0.00106302        0.02202732        0.02956676        0.00643173
     228         -0.225328        1.000000        0.00035830        0.00899250        0.00549751        0.03936414
     229         -0.224308        1.000000        0.00034723        0.01985597        0.00756851        0.02337447
     230         -0.222953        1.000000        0.00065227        0.01994634        0.02035462        0.11072136
     231         -0.221926        1.000000        0.00011096        0.00258436        0.00521809        0.00435498
     232         -0.221581        1.000000        0.00001466        0.00013188        0.00022798        0.00014983
     233         -0.221382        1.000000        0.00103562        0.02479951        0.00209048        0.00639451
     234         -0.220920        1.000000        0.00137679        0.00906073        0.04407274        0.04295911
     235         -0.219668        1.000000        0.00177047        0.02106772        0.05148616        0.00668440
     236         -0.218507        1.000000        0.00026136        0.00424637        0.01673988        0.01027453
     237         -0.218245        1.000000        0.00197389        0.00772465        0.01653037        0.00777842
     238         -0.216471        1.000000        0.00079885        0.00352554        0.00851623        0.00952502
     239         -0.215542        1.000000        0.00021047        0.00372189        0.00640896        0.01400185
     240         -0.215277        1.000000        0.00057393        0.01553833        0.02270488        0.06256307
     241         -0.215020        1.000000        0.00026291        0.02998651        0.05262200        0.09508445
     242         -0.214640        1.000000        0.00209155        0.01852260        0.03866767        0.00921573
     243         -0.213601        1.000000        0.00043209        0.07336835        0.09696975        0.01302517
     244         -0.212182        1.000000        0.00096036        0.05956180        0.05306417        0.06163262
     245         -0.211022        1.000000        0.00657432        0.02764219        0.01878574        0.04823819
     246         -0.210207        1.000000        0.00017028        0.00359759        0.00229239        0.00249681
     247         -0.209091        1.000000        0.00095591        0.02618657        0.01042471        0.01000627
     248         -0.207983        1.000000        0.00159500        0.02615361        0.02277396        0.01249788
     249         -0.207249        1.000000        0.00194147        0.01210924        0.02808631        0.02393628
     250         -0.206452        1.000000        0.00257570        0.03298068        0.05024268        0.01531545
     251         -0.206111        1.000000        0.00479365        0.02287124        0.01613504        0.01790556
     252         -0.205643        1.000000        0.01014452        0.02084130        0.00316796        0.00263408
     253         -0.204680        1.000000        0.00296415        0.02998401        0.00189751        0.02280411
     254         -0.204533        1.000000        0.00449538        0.03975666        0.00791221        0.01871922
     255         -0.203911        1.000000        0.00069048        0.01104769        0.00332801        0.00418140
     256         -0.203736        1.000000        0.00119522        0.06657749        0.00829378        0.01651026
     257         -0.202465        1.000000        0.00244541        0.06125091        0.00400990        0.01450005
     258         -0.200226        1.000000        0.00300031        0.00602495        0.00607078        0.00824120
     259         -0.199897        1.000000        0.01204730        0.04938839        0.02836100        0.04486971