# Projected DOS for atomic kind N at iteration step i = 0, E(Fermi) =    -0.145048 a.u.
#     MO Eigenvalue [a.u.]      Occupation                 s                py                pz                px
       1         -0.932605        1.000000        0.00033871        0.00002435        0.00000788        0.00000581
       2         -0.927662        1.000000        0.00000005        0.00000000        0.00000000        0.00000000
       3         -0.917441        1.000000        0.00000000        0.00000000        0.00000000        0.00000000
       4         -0.915157        1.000000        0.00032776        0.00002460        0.00000032        0.00000535
       5         -0.914290        1.000000        0.00012601        0.00000022        0.00000053        0.00000021
       6         -0.914275        1.000000        0.61313246        0.00000059        0.00007095        0.00025262
       7         -0.913614        1.000000        0.00000003        0.00000000        0.00000000        0.00000000
       8         -0.910413        1.000000        0.00101597        0.00000016        0.00000002        0.00000274
       9         -0.910075        1.000000        0.00003755        0.00000122        0.00000026        0.00000100
      10         -0.909810        1.000000        0.00000040        0.00000000        0.00000000        0.00000000
      11         -0.908270        1.000000        0.00000001        0.00000000        0.00000000        0.00000000
      12         -0.906459        1.000000        0.00000190        0.00000008        0.00000033        0.00000012
      13         -0.902555        1.000000        0.00000000        0.00000000        0.00000000        0.00000000
      14         -0.899691        1.000000        0.61108826        0.00000132        0.00010343        0.00000577
      15         -0.898778        1.000000        0.61108966        0.00000272        0.00014701        0.00001979
      16         -0.896288        1.000000        0.00000004        0.00000000        0.00000000        0.00000000
      17         -0.893826        1.000000        0.00011923        0.00000230        0.00000347        0.00000005
      18         -0.889260        1.000000        0.05212847        0.00035464        0.00009710        0.00015798
      19         -0.886917        1.000000        0.00142630        0.00003586        0.00000495        0.00000025
      20         -0.886034        1.000000        0.00000000        0.00000000        0.00000000        0.00000000
      21         -0.879705        1.000000        0.02062373        0.00007563        0.00002260        0.00010808
      22         -0.878832        1.000000        0.00000000        0.00000000        0.00000000        0.00000000
      23         -0.878157        1.000000        0.00000022        0.00000002        0.00000001        0.00000000
      24         -0.876584        1.000000        0.00000003        0.00000001        0.00000000        0.00000000
      25         -0.870908        1.000000        0.08377591        0.00030241        0.00001546        0.00005721
      26         -0.869383        1.000000        0.00007262        0.00000075        0.00000002        0.00000758
      27         -0.866704        1.000000        0.03747670        0.00007933        0.00011017        0.00000387
      28         -0.864614        1.000000        0.00004185        0.00000021        0.00000412        0.00000010
      29         -0.862350        1.000000        0.00000293        0.00000001        0.00000000        0.00000002
      30         -0.860249        1.000000        0.18706150        0.00006031        0.00000026        0.00001811
      31         -0.856545        1.000000        0.55019138        0.00244562        0.00042934        0.00007146
      32         -0.855167        1.000000        0.00000021        0.00000000        0.00000000        0.00000000
      33         -0.849987        1.000000        0.00000000        0.00000000        0.00000000        0.00000000
      34         -0.848264        1.000000        0.22762631        0.00003030        0.00019886        0.00000154
      35         -0.845102        1.000000        0.00000001        0.00000000        0.00000000        0.00000000
      36         -0.844363        1.000000        0.00000000        0.00000000        0.00000000        0.00000000
      37         -0.844072        1.000000        0.00000000        0.00000000        0.00000000        0.00000000
      38         -0.842918        1.000000        0.00071366        0.00001130        0.00000197        0.00000137
      39         -0.841130        1.000000        0.00000003        0.00000001        0.00000000        0.00000002
      40         -0.840718        1.000000        0.39164867        0.00383719        0.00058215        0.00127824
      41         -0.840308        1.000000        0.51002118        0.00448353        0.00006319        0.00076277
      42         -0.837308        1.000000        0.00000000        0.00000016        0.00000018        0.00000001
      43         -0.835470        1.000000        0.00000007        0.00000000        0.00000001        0.00000001
      44         -0.830495        1.000000        0.32904399        0.00148650        0.00439756        0.00001807
      45         -0.827265        1.000000        0.00000000        0.00000000        0.00000000        0.00000000
      46         -0.826297        1.000000        0.00000484        0.00000047        0.00000243        0.00000025
      47         -0.651901        1.000000        0.01528756        0.01391709        0.01811672        0.16947608
      48         -0.648168        1.000000        0.01875146        0.00001102        0.07822862        0.11188259
      49         -0.646546        1.000000        0.01764161        0.00000848        0.04824914        0.14340319
      50         -0.621137        1.000000        0.02337697        0.00018332        0.00183322        0.16795147
      51         -0.611521        1.000000        0.02523932        0.02689823        0.01615752        0.12215433
      52         -0.611467        1.000000        0.02704093        0.00359457        0.07686087        0.07830451
      53         -0.609278        1.000000        0.02927338        0.00198619        0.00338401        0.15434604
      54         -0.598505        1.000000        0.00052703        0.00021647        0.00205070        0.00181749
      55         -0.598137        1.000000        0.00015447        0.00408267        0.00011117        0.00025689
      56         -0.571531        1.000000        0.00013843        0.00305587        0.00103555        0.00056202
      57         -0.568832        1.000000        0.00008718        0.00231114        0.01848792        0.00419359
      58         -0.565124        1.000000        0.00005447        0.00052902        0.00016637        0.00042847
      59         -0.561571        1.000000        0.00003867        0.00085275        0.00618771        0.00089011
      60         -0.558534        1.000000        0.00060011        0.02942574        0.03268046        0.01068549
      61         -0.557188        1.000000        0.00048242        0.01998414        0.01603323        0.00555641
      62         -0.556475        1.000000        0.00052520        0.01128680        0.00217349        0.00015306
      63         -0.554972        1.000000        0.00024374        0.00351329        0.00825636        0.00183902
      64         -0.553901        1.000000        0.00027584        0.00960504        0.00677308        0.00157485
      65         -0.552222        1.000000        0.00002392        0.01233927        0.00526903        0.00015643
      66         -0.550249        1.000000        0.00028109        0.01707827        0.00628155        0.00108559
      67         -0.548401        1.000000        0.00021437        0.01070195        0.00098489        0.00121062
      68         -0.546773        1.000000        0.00021563        0.03145833        0.00772870        0.00224947
      69         -0.546079        1.000000        0.00009920        0.03799236        0.00888488        0.00320326
      70         -0.545669        1.000000        0.00002498        0.00536456        0.00039755        0.00048113
      71         -0.545135        1.000000        0.00002348        0.00276509        0.00049971        0.00036725
      72         -0.543508        1.000000        0.00010425        0.04191022        0.01313231        0.00326153
      73         -0.542755        1.000000        0.00010066        0.00859753        0.00294373        0.00049322
      74         -0.541878        1.000000        0.00025944        0.02440479        0.00077214        0.00036665
      75         -0.541284        1.000000        0.00071924        0.00236995        0.00224144        0.00191138
      76         -0.540325        1.000000        0.00000761        0.00030685        0.00025646        0.00019080
      77         -0.538746        1.000000        0.00013066        0.00136022        0.03303644        0.01834327
      78         -0.537925        1.000000        0.00003023        0.00230576        0.01939143        0.00570103
      79         -0.536613        1.000000        0.00013120        0.31739786        0.17978863        0.00025530
      80         -0.534595        1.000000        0.00013764        0.00897416        0.00620195        0.00181652
      81         -0.534316        1.000000        0.00026338        0.03080935        0.00944403        0.00310478
      82         -0.533771        1.000000        0.00014235        0.01055861        0.00218101        0.00099144
      83         -0.532650        1.000000        0.00004272        0.00675741        0.01201369        0.00781925
      84         -0.532398        1.000000        0.00008025        0.00250297        0.00846048        0.00453848
      85         -0.530795        1.000000        0.00014281        0.00137486        0.00279809        0.00021906
      86         -0.530630        1.000000        0.00000919        0.02907719        0.01628151        0.00030310
      87         -0.530471        1.000000        0.00036792        0.00461649        0.00340190        0.00094705
      88         -0.529946        1.000000        0.00013244        0.01018319        0.00515441        0.00333502
      89         -0.527676        1.000000        0.00047365        0.03059960        0.06542565        0.01983803
      90         -0.527531        1.000000        0.00052534        0.09059968        0.17277516        0.05830401
      91         -0.525483        1.000000        0.00001394        0.00109629        0.00164909        0.00073821
      92         -0.516776        1.000000        0.00008027        0.48610789        0.00620870        0.00367766
      93         -0.516763        1.000000        0.00055417        0.01043482        0.34771500        0.16174525
      94         -0.515422        1.000000        0.00033675        0.00183953        0.36879711        0.14412446
      95         -0.510486        1.000000        0.00004160        0.43781523        0.00447301        0.00435823
      96         -0.495356        1.000000        0.00000447        0.00062390        0.00044796        0.00000016
      97         -0.492689        1.000000        0.00000042        0.00005115        0.00008722        0.00001335
      98         -0.487356        1.000000        0.00000625        0.00829769        0.51568055        0.00544768
      99         -0.484724        1.000000        0.00064590        0.49519040        0.00181765        0.00213248
     100         -0.481290        1.000000        0.00005954        0.00153803        0.48857792        0.08054786
     101         -0.480892        1.000000        0.00000001        0.00000148        0.00000194        0.00000101
     102         -0.478734        1.000000        0.00000167        0.01109224        0.05734390        0.05102632
     103         -0.477561        1.000000        0.00000005        0.00000802        0.00000489        0.00000311
     104         -0.476057        1.000000        0.00000042        0.00000894        0.00010882        0.00006702
     105         -0.475919        1.000000        0.00001659        0.01183595        0.21985139        0.19896200
     106         -0.474294        1.000000        0.00000005        0.00000078        0.00000487        0.00000312
     107         -0.473440        1.000000        0.00002192        0.48560937        0.05910507        0.00316046
     108         -0.472503        1.000000        0.00002063        0.00083313        0.00033560        0.00207683
     109         -0.471986        1.000000        0.00000053        0.00014239        0.00002123        0.00001187
     110         -0.471824        1.000000        0.00146364        0.40068629        0.01068340        0.03955040
     111         -0.470493        1.000000        0.00136466        0.39956653        0.01181354        0.01718436
     112         -0.469975        1.000000        0.00000239        0.00144969        0.00138717        0.00001078
     113         -0.469853        1.000000        0.00000211        0.00056234        0.00002604        0.00003308
     114         -0.469585        1.000000        0.00001858        0.00422323        0.00046688        0.00020843
     115         -0.468894        1.000000        0.00000121        0.00067204        0.00002084        0.00000755
     116         -0.466359        1.000000        0.00000845        0.00263072        0.01289240        0.00045262
     117         -0.461797        1.000000        0.00182768        0.02737044        0.38876056        0.03744765
     118         -0.455775        1.000000        0.00000089        0.00003238        0.00001177        0.00001248
     119         -0.455663        1.000000        0.00000006        0.00000038        0.00000192        0.00000339
     120         -0.454679        1.000000        0.00032096        0.04030148        0.00405758        0.00335010
     121         -0.454538        1.000000        0.00000004        0.00000029        0.00001257        0.00000271
     122         -0.453018        1.000000        0.00000866        0.00003207        0.00302345        0.00019337
     123         -0.451525        1.000000        0.00002121        0.00084044        0.00014941        0.00000093
     124         -0.445586        1.000000        0.00005682        0.00565077        0.00029577        0.00032772
     125         -0.444537        1.000000        0.00000008        0.00000033        0.00000100        0.00000353
     126         -0.442922        1.000000        0.00096407        0.00593536        0.00419508        0.04792459
     127         -0.440297        1.000000        0.00057132        0.00996230        0.00125726        0.00076426
     128         -0.439308        1.000000        0.00011276        0.00004773        0.00380300        0.00252347
     129         -0.434833        1.000000        0.00011547        0.00021968        0.00109469        0.00121096
     130         -0.434677        1.000000        0.00001370        0.00201601        0.00002424        0.00022785
     131         -0.433578        1.000000        0.00000186        0.00001449        0.00000711        0.00009338
     132         -0.433294        1.000000        0.00071798        0.00119224        0.00101705        0.01856157
     133         -0.431969        1.000000        0.00032064        0.00103703        0.00247578        0.01325428
     134         -0.431189        1.000000        0.00671599        0.02540920        0.04168712        0.26194986
     135         -0.428463        1.000000        0.00002776        0.00247779        0.00049466        0.00013697
     136         -0.428099        1.000000        0.00211528        0.00069963        0.02873759        0.07835848
     137         -0.427708        1.000000        0.00682512        0.00048295        0.12799533        0.22656046
     138         -0.426632        1.000000        0.00007980        0.00002674        0.00098712        0.00274343
     139         -0.425956        1.000000        0.00559532        0.00027857        0.06356420        0.20708099
     140         -0.424994        1.000000        0.00210922        0.00035980        0.02660412        0.09265607
     141         -0.422540        1.000000        0.00009888        0.00052089        0.00259450        0.00526579
     142         -0.416133        1.000000        0.00010458        0.00032176        0.00115308        0.00207703
     143         -0.414235        1.000000        0.00011342        0.00012455        0.00120847        0.00551939
     144         -0.412735        1.000000        0.00001013        0.00000013        0.00013873        0.00004238
     145         -0.411493        1.000000        0.00014085        0.00017309        0.00118050        0.00353117
     146         -0.411264        1.000000        0.00011918        0.00036488        0.00236948        0.00342911
     147         -0.408673        1.000000        0.00000000        0.00000000        0.00000003        0.00000005
     148         -0.406398        1.000000        0.00000773        0.00005314        0.00000940        0.00005257
     149         -0.403693        1.000000        0.00000612        0.00000011        0.00003974        0.00178530
     150         -0.402995        1.000000        0.00000000        0.00000001        0.00000000        0.00000011
     151         -0.401760        1.000000        0.00000011        0.00000006        0.00000017        0.00000463
     152         -0.400384        1.000000        0.00973862        0.00001131        0.00775835        0.41075080
     153         -0.395845        1.000000        0.00000222        0.00000930        0.00001025        0.00006354
     154         -0.394768        1.000000        0.00000524        0.00003674        0.00003999        0.00030281
     155         -0.389756        1.000000        0.00741222        0.03364242        0.10118148        0.22861701
     156         -0.389654        1.000000        0.00729925        0.03562472        0.09476851        0.22937598
     157         -0.388105        1.000000        0.00220440        0.00099956        0.05431607        0.05524660
     158         -0.386251        1.000000        0.00766936        0.00687253        0.01634056        0.39657905
     159         -0.368551        1.000000        0.00002676        0.00006467        0.02886083        0.00517250
     160         -0.366416        1.000000        0.00000071        0.03104363        0.00057210        0.00182842
     161         -0.365575        1.000000        0.00000407        0.03951271        0.00407479        0.00165716
     162         -0.365106        1.000000        0.00000064        0.04110903        0.00011033        0.00006895
     163         -0.363706        1.000000        0.00001406        0.00510931        0.02234538        0.01437071
     164         -0.362154        1.000000        0.00000695        0.00008246        0.03214307        0.01026558
     165         -0.353237        1.000000        0.00128003        0.00020904        0.00004288        0.01525538
     166         -0.345981        1.000000        0.00091691        0.00281700        0.00123461        0.01540300
     167         -0.342525        1.000000        0.00064726        0.00326457        0.00667374        0.00762726
     168         -0.342062        1.000000        0.00065032        0.00157418        0.00459663        0.01445290
     169         -0.342010        1.000000        0.00007847        0.01039465        0.03387457        0.00229220
     170         -0.334294        1.000000        0.00000228        0.00142390        0.02927363        0.02104553
     171         -0.333104        1.000000        0.00000212        0.00014736        0.00189917        0.00190052
     172         -0.332616        1.000000        0.00002361        0.00013426        0.04270976        0.00540178
     173         -0.332119        1.000000        0.00000314        0.01337258        0.00562118        0.00013977
     174         -0.331914        1.000000        0.00000388        0.02560835        0.01086750        0.00029670
     175         -0.327804        1.000000        0.00108308        0.04251588        0.01068734        0.00145819
     176         -0.321936        1.000000        0.00060786        0.02350765        0.00088704        0.00585084
     177         -0.315582        1.000000        0.00000011        0.00000008        0.00002001        0.00000149
     178         -0.314730        1.000000        0.00000002        0.00000037        0.00000210        0.00000129
     179         -0.312706        1.000000        0.00000047        0.00001333        0.00000520        0.00001776
     180         -0.309865        1.000000        0.00100051        0.02830857        0.00019276        0.00432955
     181         -0.308795        1.000000        0.00000638        0.00094506        0.00004959        0.00089090
     182         -0.305955        1.000000        0.00142120        0.01100637        0.02950539        0.00008609
     183         -0.303494        1.000000        0.00000005        0.00000152        0.00000171        0.00000036
     184         -0.296092        1.000000        0.00000017        0.00000050        0.00000155        0.00000037
     185         -0.291938        1.000000        0.00002307        0.00011101        0.00001230        0.00004772
     186         -0.291508        1.000000        0.00000120        0.00000038        0.00000275        0.00000394
     187         -0.287295        1.000000        0.00000968        0.00002518        0.00002507        0.00002165
     188         -0.283551        1.000000        0.00569472        0.06081246        0.00793251        0.02757825
     189         -0.275138        1.000000        0.00008647        0.00033396        0.00006732        0.00011993
     190         -0.270435        1.000000        0.00599310        0.02187672        0.06971100        0.00001070
     191         -0.268166        1.000000        0.00002050        0.00001537        0.00001971        0.00007436
     192         -0.267437        1.000000        0.00003062        0.00053527        0.00002244        0.00006091
     193         -0.265555        1.000000        0.01124702        0.10068908        0.01924667        0.01156739
     194         -0.265375        1.000000        0.00002150        0.00008160        0.00001944        0.00003362
     195         -0.261579        1.000000        0.00000060        0.00000346        0.00000960        0.00000044
     196         -0.260466        1.000000        0.00000049        0.00000149        0.00001105        0.00000207
     197         -0.255402        1.000000        0.00024298        0.00073485        0.00022525        0.00008364
     198         -0.253204        1.000000        0.00101315        0.00721717        0.00140488        0.00097560
     199         -0.251631        1.000000        0.00161619        0.00789190        0.00098012        0.00206164
     200         -0.250444        1.000000        0.00151171        0.00772261        0.00068518        0.00206725
     201         -0.249424        1.000000        0.00239217        0.01462977        0.00066605        0.00294473
     202         -0.248381        1.000000        0.00017179        0.00131679        0.00004774        0.00012361
     203         -0.246026        1.000000        0.00258810        0.02381275        0.00032663        0.00384789
     204         -0.245125        1.000000        0.00885649        0.08726697        0.00144674        0.01381834
     205         -0.244032        1.000000        0.00052510        0.00597267        0.00025404        0.00114642
     206         -0.243659        1.000000        0.00001687        0.00017390        0.00018237        0.00002456
     207         -0.241125        1.000000        0.00028793        0.00654583        0.00025482        0.00076516
     208         -0.240461        1.000000        0.00002769        0.00117692        0.00027139        0.00011895
     209         -0.238862        1.000000        0.00000494        0.00005644        0.00001792        0.00001190
     210         -0.237557        1.000000        0.00017673        0.00149077        0.00026080        0.00055127
     211         -0.236983        1.000000        0.00099172        0.00437898        0.00240722        0.00154976
     212         -0.236478        1.000000        0.00141173        0.00796157        0.00165455        0.00433543
     213         -0.236400        1.000000        0.00127756        0.00671848        0.00165072        0.00273343
     214         -0.236027        1.000000        0.00059605        0.00282572        0.00089489        0.00135753
     215         -0.235997        1.000000        0.00006527        0.00028244        0.00012080        0.00016143
     216         -0.235557        1.000000        0.00101710        0.00665012        0.00028787        0.00156841
     217         -0.235423        1.000000        0.00011204        0.00097613        0.00008520        0.00022353
     218         -0.234335        1.000000        0.00020322        0.00245633        0.00020129        0.00031217
     219         -0.233559        1.000000        0.00022718        0.00299478        0.00027349        0.00043076
     220         -0.232393        1.000000        0.00010929        0.00017150        0.00066309        0.00009064
     221         -0.232020        1.000000        0.00025960        0.00075388        0.00078868        0.00027890
     222         -0.230629        1.000000        0.00012873        0.00055852        0.00173201        0.00009726
     223         -0.230379        1.000000        0.00050278        0.00125837        0.00521359        0.00005819
     224         -0.229722        1.000000        0.00022611        0.00069989        0.00066855        0.00010985
     225         -0.229250        1.000000        0.00394481        0.00936412        0.02844937        0.00004823
     226         -0.227883        1.000000        0.00018172        0.00059059        0.00093304        0.00005815
     227         -0.227127        1.000000        0.00054364        0.00109222        0.00270853        0.00007744
     228         -0.225536        1.000000        0.00406917        0.01932081        0.00274618        0.01003052
     229         -0.224674        1.000000        0.00346824        0.01955122        0.00387620        0.00977550
     230         -0.223333        1.000000        0.00091135        0.00668376        0.00165645        0.00328998
     231         -0.222037        1.000000        0.00103104        0.00277835        0.00655168        0.00031324
     232         -0.221582        1.000000        0.00097540        0.00342828        0.00122606        0.00138888
     233         -0.221581        1.000000        0.00009449        0.00037384        0.00018648        0.00013671
     234         -0.221186        1.000000        0.00022161        0.00103611        0.00061647        0.00032425
     235         -0.220041        1.000000        0.00027817        0.00087850        0.00098751        0.00033361
     236         -0.218621        1.000000        0.00009444        0.00025549        0.00023996        0.00013360
     237         -0.218471        1.000000        0.00023300        0.00008257        0.00011616        0.00015433
     238         -0.216732        1.000000        0.00013092        0.00055024        0.00014203        0.00021391
     239         -0.216065        1.000000        0.00046116        0.00061339        0.00042823        0.00041429
     240         -0.215507        1.000000        0.00000457        0.00004040        0.00002219        0.00001730
     241         -0.215223        1.000000        0.00030725        0.00025762        0.00016485        0.00031904
     242         -0.215158        1.000000        0.00033908        0.00068567        0.00015827        0.00045212
     243         -0.213958        1.000000        0.00009639        0.00005972        0.00084870        0.00035776
     244         -0.212301        1.000000        0.00010251        0.00034404        0.00041217        0.00008830
     245         -0.210936        1.000000        0.00047271        0.00185221        0.00090678        0.00052564
     246         -0.210421        1.000000        0.00001694        0.00007698        0.00004756        0.00002090
     247         -0.210241        1.000000        0.00010066        0.00059532        0.00027982        0.00031404
     248         -0.208243        1.000000        0.00045914        0.00147459        0.00171599        0.00010506
     249         -0.207943        1.000000        0.00419565        0.00693894        0.01999613        0.00036490
     250         -0.206836        1.000000        0.00127351        0.00202037        0.00739721        0.00013056
     251         -0.206634        1.000000        0.00031851        0.00048840        0.00115921        0.00057284
     252         -0.206286        1.000000        0.00023664        0.00125112        0.00117780        0.00011424
     253         -0.205096        1.000000        0.00027877        0.00108711        0.00096490        0.00016953
     254         -0.204774        1.000000        0.00023698        0.00088664        0.00006847        0.00004557
     255         -0.203931        1.000000        0.00008725        0.00143919        0.00053103        0.00017727
     256         -0.203899        1.000000        0.00017167        0.00040133        0.00008167        0.00007592
     257         -0.202568        1.000000        0.00074807        0.00345007        0.00111340        0.00052070
     258         -0.200354        1.000000        0.00541963        0.00566648        0.00248370        0.00310912
     259         -0.199934        1.000000        0.00095375        0.00018529        0.00112494        0.00053597