# Projected DOS for atomic kind Pb at iteration step i = 0, E(Fermi) =    -0.145048 a.u.
#     MO Eigenvalue [a.u.]      Occupation                 s                py                pz                px
       1         -0.932605        1.000000        0.00000006        0.00000025        0.00000000        0.00000002
       2         -0.927662        1.000000        0.00000018        0.00000022        0.00000018        0.00000140
       3         -0.917441        1.000000        0.00000028        0.00000105        0.00000016        0.00000001
       4         -0.915157        1.000000        0.00000003        0.00000011        0.00000000        0.00000001
       5         -0.914290        1.000000        0.00000008        0.00000000        0.00000030        0.00000001
       6         -0.914275        1.000000        0.00000032        0.00000407        0.00000640        0.00000356
       7         -0.913614        1.000000        0.00000022        0.00000219        0.00000077        0.00000001
       8         -0.910413        1.000000        0.00000008        0.00000003        0.00000001        0.00000033
       9         -0.910075        1.000000        0.00000023        0.00000075        0.00000039        0.00000265
      10         -0.909810        1.000000        0.00000081        0.00000539        0.00000003        0.00001163
      11         -0.908270        1.000000        0.00000022        0.00000009        0.00000073        0.00000002
      12         -0.906459        1.000000        0.00000021        0.00000000        0.00000004        0.00000069
      13         -0.902555        1.000000        0.00000011        0.00000167        0.00000049        0.00000045
      14         -0.899691        1.000000        0.00000031        0.00000320        0.00000316        0.00000193
      15         -0.898778        1.000000        0.00000035        0.00000384        0.00000456        0.00000217
      16         -0.896288        1.000000        0.00000028        0.00000652        0.00000042        0.00000218
      17         -0.893826        1.000000        0.00000085        0.00000223        0.00000939        0.00000549
      18         -0.889260        1.000000        0.00000009        0.00000061        0.00000007        0.00000001
      19         -0.886917        1.000000        0.00000000        0.00000001        0.00000000        0.00000000
      20         -0.886034        1.000000        0.00000036        0.00000001        0.00000117        0.00000002
      21         -0.879705        1.000000        0.00000035        0.00000038        0.00000001        0.00000079
      22         -0.878832        1.000000        0.00000002        0.00000066        0.00000276        0.00000035
      23         -0.878157        1.000000        0.00000029        0.00000016        0.00000087        0.00001282
      24         -0.876584        1.000000        0.00000275        0.00001999        0.00003499        0.00000720
      25         -0.870908        1.000000        0.00000004        0.00000019        0.00000010        0.00000009
      26         -0.869383        1.000000        0.00000003        0.00000000        0.00000001        0.00000010
      27         -0.866704        1.000000        0.00000003        0.00000083        0.00000028        0.00000034
      28         -0.864614        1.000000        0.00000003        0.00000000        0.00000009        0.00000001
      29         -0.862350        1.000000        0.00000295        0.00000792        0.00000094        0.00000003
      30         -0.860249        1.000000        0.00000039        0.00000011        0.00000018        0.00000163
      31         -0.856545        1.000000        0.00000016        0.00000246        0.00000122        0.00000031
      32         -0.855167        1.000000        0.00000248        0.00000053        0.00000692        0.00000011
      33         -0.849987        1.000000        0.00000000        0.00000000        0.00000000        0.00000000
      34         -0.848264        1.000000        0.00000036        0.00000140        0.00000363        0.00000106
      35         -0.845102        1.000000        0.00000130        0.00001223        0.00000045        0.00000020
      36         -0.844363        1.000000        0.00000004        0.00000054        0.00000105        0.00000061
      37         -0.844072        1.000000        0.00000000        0.00000000        0.00000000        0.00000000
      38         -0.842918        1.000000        0.00000045        0.00000001        0.00000002        0.00000132
      39         -0.841130        1.000000        0.00000035        0.00000032        0.00000273        0.00000161
      40         -0.840718        1.000000        0.00000020        0.00000026        0.00000028        0.00000093
      41         -0.840308        1.000000        0.00000019        0.00000037        0.00000106        0.00000080
      42         -0.837308        1.000000        0.00000043        0.00000007        0.00000005        0.00000141
      43         -0.835470        1.000000        0.00000053        0.00000556        0.00000165        0.00000001
      44         -0.830495        1.000000        0.00000037        0.00000381        0.00000368        0.00000108
      45         -0.827265        1.000000        0.00000002        0.00000067        0.00000042        0.00000022
      46         -0.826297        1.000000        0.00000006        0.00000000        0.00000020        0.00000000
      47         -0.651901        1.000000        0.00001609        0.00000808        0.00001079        0.00001824
      48         -0.648168        1.000000        0.00003130        0.00002628        0.00002635        0.00000796
      49         -0.646546        1.000000        0.00004514        0.00004621        0.00002509        0.00002130
      50         -0.621137        1.000000        0.00001600        0.00001752        0.00000336        0.00000304
      51         -0.611521        1.000000        0.00007379        0.00003042        0.00002661        0.00004779
      52         -0.611467        1.000000        0.00021415        0.00009635        0.00010608        0.00001072
      53         -0.609278        1.000000        0.00010115        0.00004644        0.00005550        0.00003276
      54         -0.598505        1.000000        0.00783155        0.00316280        0.00252815        0.00001872
      55         -0.598137        1.000000        0.00129866        0.00003357        0.00144137        0.00081914
      56         -0.571531        1.000000        0.07604869        0.00065175        0.00338430        0.00010552
      57         -0.568832        1.000000        0.11314637        0.00218804        0.00306380        0.00029463
      58         -0.565124        1.000000        0.10171230        0.00565879        0.00293498        0.00173807
      59         -0.561571        1.000000        0.08108072        0.01449893        0.00947000        0.00112107
      60         -0.558534        1.000000        0.02947422        0.00241911        0.00299579        0.02255287
      61         -0.557188        1.000000        0.05513884        0.00254776        0.01548871        0.00214855
      62         -0.556475        1.000000        0.10071425        0.00582084        0.00227221        0.00337155
      63         -0.554972        1.000000        0.05011680        0.00828890        0.00374089        0.00690758
      64         -0.553901        1.000000        0.04718428        0.00300254        0.01665816        0.00348296
      65         -0.552222        1.000000        0.00144351        0.01709782        0.01933145        0.00072195
      66         -0.550249        1.000000        0.03542320        0.00349701        0.00664081        0.00835847
      67         -0.548401        1.000000        0.07266824        0.00586353        0.00471807        0.00712608
      68         -0.546773        1.000000        0.04187149        0.00543264        0.00551738        0.00826122
      69         -0.546079        1.000000        0.02694414        0.00618284        0.01704376        0.00521880
      70         -0.545669        1.000000        0.01381475        0.00732660        0.02801029        0.00285020
      71         -0.545135        1.000000        0.08096285        0.00608765        0.00197978        0.02089634
      72         -0.543508        1.000000        0.02160546        0.01314304        0.01174528        0.00571658
      73         -0.542755        1.000000        0.00457159        0.01747851        0.00513842        0.00448091
      74         -0.541878        1.000000        0.00658167        0.01648732        0.00313059        0.01737913
      75         -0.541284        1.000000        0.01106622        0.01198256        0.01995423        0.00975670
      76         -0.540325        1.000000        0.00258587        0.00423911        0.00747014        0.02031945
      77         -0.538746        1.000000        0.00989960        0.01906373        0.00747130        0.00270358
      78         -0.537925        1.000000        0.00534851        0.02119216        0.00096917        0.00321460
      79         -0.536613        1.000000        0.00030149        0.00032040        0.00005859        0.00397254
      80         -0.534595        1.000000        0.00842372        0.00775695        0.00541831        0.01524084
      81         -0.534316        1.000000        0.01787739        0.00867610        0.00374373        0.01511346
      82         -0.533771        1.000000        0.00824530        0.00246956        0.01364349        0.01478073
      83         -0.532650        1.000000        0.00896572        0.01861191        0.00331911        0.00612588
      84         -0.532398        1.000000        0.01524263        0.01175440        0.00964310        0.00786572
      85         -0.530795        1.000000        0.00475856        0.00917525        0.01077099        0.00596078
      86         -0.530630        1.000000        0.00747984        0.00009191        0.00091133        0.02233865
      87         -0.530471        1.000000        0.00147823        0.00239413        0.02119270        0.00548156
      88         -0.529946        1.000000        0.01463968        0.00260216        0.00064378        0.01697893
      89         -0.527676        1.000000        0.00142871        0.00891975        0.00007139        0.01472099
      90         -0.527531        1.000000        0.00263978        0.00371810        0.00018965        0.00847995
      91         -0.525483        1.000000        0.00467718        0.01705944        0.01311785        0.00079405
      92         -0.516776        1.000000        0.00130511        0.00017943        0.00284038        0.00049655
      93         -0.516763        1.000000        0.00257716        0.00042134        0.00112969        0.00094972
      94         -0.515422        1.000000        0.00087109        0.00133416        0.00296102        0.00047577
      95         -0.510486        1.000000        0.00612252        0.00028977        0.00582024        0.00099491
      96         -0.495356        1.000000        0.00077109        0.00045203        0.00001545        0.00000184
      97         -0.492689        1.000000        0.00132641        0.00000443        0.00032567        0.00126103
      98         -0.487356        1.000000        0.00268485        0.00131724        0.00001057        0.00003152
      99         -0.484724        1.000000        0.00036091        0.00001137        0.00004818        0.00000889
     100         -0.481290        1.000000        0.00161085        0.00000147        0.00002443        0.00040795
     101         -0.480892        1.000000        0.00144761        0.00019719        0.00005268        0.00000070
     102         -0.478734        1.000000        0.00200110        0.00024588        0.00004444        0.00003631
     103         -0.477561        1.000000        0.00353608        0.00001166        0.00015133        0.00017485
     104         -0.476057        1.000000        0.00049543        0.00000465        0.00013225        0.00002308
     105         -0.475919        1.000000        0.00066627        0.00002382        0.00011240        0.00005385
     106         -0.474294        1.000000        0.00024490        0.00000012        0.00010188        0.00000213
     107         -0.473440        1.000000        0.00210459        0.00006075        0.00052262        0.00001275
     108         -0.472503        1.000000        0.00282786        0.00006527        0.00000525        0.00040564
     109         -0.471986        1.000000        0.00482467        0.00113108        0.00003660        0.00002559
     110         -0.471824        1.000000        0.00070238        0.00000697        0.00001181        0.00012812
     111         -0.470493        1.000000        0.00118876        0.00003207        0.00009199        0.00009592
     112         -0.469975        1.000000        0.00218913        0.00000749        0.00001814        0.00030556
     113         -0.469853        1.000000        0.00540198        0.00000366        0.00004445        0.00033141
     114         -0.469585        1.000000        0.00189668        0.00000289        0.00000984        0.00007030
     115         -0.468894        1.000000        0.00031562        0.00002076        0.00004650        0.00000063
     116         -0.466359        1.000000        0.00011878        0.00001945        0.00000009        0.00000049
     117         -0.461797        1.000000        0.00085414        0.00003053        0.00001673        0.00000495
     118         -0.455775        1.000000        0.00033088        0.00004738        0.00000464        0.00003234
     119         -0.455663        1.000000        0.00047567        0.00000122        0.00000187        0.00003420
     120         -0.454679        1.000000        0.00062184        0.00001041        0.00001184        0.00000552
     121         -0.454538        1.000000        0.00103317        0.00024206        0.00001098        0.00001891
     122         -0.453018        1.000000        0.00496216        0.00003711        0.00045107        0.00004146
     123         -0.451525        1.000000        0.00000272        0.00001728        0.00000162        0.00002091
     124         -0.445586        1.000000        0.00032881        0.00000231        0.00000228        0.00000071
     125         -0.444537        1.000000        0.00069017        0.00000175        0.00000537        0.00000060
     126         -0.442922        1.000000        0.00120007        0.00000263        0.00000384        0.00001370
     127         -0.440297        1.000000        0.00131771        0.00000539        0.00000334        0.00001582
     128         -0.439308        1.000000        0.00085124        0.00000103        0.00000444        0.00000046
     129         -0.434833        1.000000        0.00037290        0.00009605        0.00005192        0.00002954
     130         -0.434677        1.000000        0.00234542        0.00001687        0.00004083        0.00000492
     131         -0.433578        1.000000        0.00328609        0.00000062        0.00000234        0.00000139
     132         -0.433294        1.000000        0.63521685        0.00062277        0.00052817        0.00018215
     133         -0.431969        1.000000        0.65089812        0.00075917        0.00033766        0.00025955
     134         -0.431189        1.000000        0.08059439        0.00010508        0.00012068        0.00002922
     135         -0.428463        1.000000        0.00181918        0.00000864        0.00000554        0.00002855
     136         -0.428099        1.000000        0.52448616        0.00025329        0.00012777        0.00020882
     137         -0.427708        1.000000        0.12116402        0.00008750        0.00004867        0.00004981
     138         -0.426632        1.000000        0.02664612        0.00003896        0.00012162        0.00003525
     139         -0.425956        1.000000        0.25472444        0.00044526        0.00020415        0.00029793
     140         -0.424994        1.000000        0.51377399        0.00109989        0.00061308        0.00090060
     141         -0.422540        1.000000        0.69283211        0.00096767        0.00030676        0.00141654
     142         -0.416133        1.000000        0.73481740        0.00074857        0.00047697        0.00048918
     143         -0.414235        1.000000        0.73346129        0.00050787        0.00031382        0.00035071
     144         -0.412735        1.000000        0.00024081        0.00000012        0.00000015        0.00000079
     145         -0.411493        1.000000        0.53374180        0.00031017        0.00010099        0.00035779
     146         -0.411264        1.000000        0.20666083        0.00012531        0.00003418        0.00012304
     147         -0.408673        1.000000        0.00000063        0.00000000        0.00000002        0.00000007
     148         -0.406398        1.000000        0.00328357        0.00001588        0.00001997        0.00000120
     149         -0.403693        1.000000        0.00061783        0.00000022        0.00001017        0.00000015
     150         -0.402995        1.000000        0.00000268        0.00000007        0.00000004        0.00000016
     151         -0.401760        1.000000        0.00012036        0.00000046        0.00000640        0.00000229
     152         -0.400384        1.000000        0.00542327        0.00005175        0.00000098        0.00000618
     153         -0.395845        1.000000        0.00268249        0.00000586        0.00037594        0.00001709
     154         -0.394768        1.000000        0.00213918        0.00000559        0.00000385        0.00003671
     155         -0.389756        1.000000        0.00026929        0.00006630        0.00004552        0.00001952
     156         -0.389654        1.000000        0.00106510        0.00007487        0.00002352        0.00002399
     157         -0.388105        1.000000        0.00145311        0.00031835        0.00001274        0.00002448
     158         -0.386251        1.000000        0.00084767        0.00002609        0.00001898        0.00004859
     159         -0.368551        1.000000        0.00014855        0.00000862        0.00004206        0.00005396
     160         -0.366416        1.000000        0.00016502        0.00000349        0.00002550        0.00008662
     161         -0.365575        1.000000        0.00006082        0.00003388        0.00007056        0.00001098
     162         -0.365106        1.000000        0.00027954        0.00009272        0.00007848        0.00008984
     163         -0.363706        1.000000        0.00004104        0.00002418        0.00005140        0.00002652
     164         -0.362154        1.000000        0.00009841        0.00008185        0.00004751        0.00001918
     165         -0.353237        1.000000        0.00004357        0.00002459        0.00000989        0.00001135
     166         -0.345981        1.000000        0.00009571        0.00012982        0.00012762        0.00002800
     167         -0.342525        1.000000        0.00002526        0.00000831        0.00000476        0.00001242
     168         -0.342062        1.000000        0.00007735        0.00009404        0.00006202        0.00014190
     169         -0.342010        1.000000        0.00010319        0.00006849        0.00001820        0.00002360
     170         -0.334294        1.000000        0.00001204        0.00005220        0.00012663        0.00010205
     171         -0.333104        1.000000        0.00002535        0.00016613        0.00018195        0.00031429
     172         -0.332616        1.000000        0.00010703        0.00009323        0.00013508        0.00010903
     173         -0.332119        1.000000        0.00026649        0.00046023        0.00010369        0.00045205
     174         -0.331914        1.000000        0.00068784        0.00007655        0.00007670        0.00006563
     175         -0.327804        1.000000        0.00001756        0.00002144        0.00000355        0.00000694
     176         -0.321936        1.000000        0.00007769        0.00004322        0.00004324        0.00002566
     177         -0.315582        1.000000        0.00026766        0.00005915        0.00000945        0.00052783
     178         -0.314730        1.000000        0.00015101        0.00000208        0.00023718        0.00000133
     179         -0.312706        1.000000        0.00000990        0.00000983        0.00000153        0.00001068
     180         -0.309865        1.000000        0.00009634        0.00028659        0.00001745        0.00002818
     181         -0.308795        1.000000        0.00029304        0.00318958        0.00081837        0.00010287
     182         -0.305955        1.000000        0.00004789        0.00020932        0.00014396        0.00013562
     183         -0.303494        1.000000        0.00011624        0.00000732        0.00015678        0.00001414
     184         -0.296092        1.000000        0.00004821        0.00000567        0.00000103        0.00009858
     185         -0.291938        1.000000        0.00041249        0.00090385        0.00354072        0.00066829
     186         -0.291508        1.000000        0.00013882        0.00003208        0.00003224        0.00055162
     187         -0.287295        1.000000        0.00000084        0.00004644        0.00000429        0.00000031
     188         -0.283551        1.000000        0.00005675        0.00013412        0.00020299        0.00054233
     189         -0.275138        1.000000        0.00020530        0.00063954        0.00051307        0.00073491
     190         -0.270435        1.000000        0.00005026        0.00062128        0.00128999        0.00027402
     191         -0.268166        1.000000        0.00010812        0.00030540        0.00009141        0.00261455
     192         -0.267437        1.000000        0.00001233        0.00013749        0.00010082        0.00001734
     193         -0.265555        1.000000        0.00002098        0.00045837        0.00006512        0.00002383
     194         -0.265375        1.000000        0.00001043        0.00010825        0.00452922        0.00003212
     195         -0.261579        1.000000        0.00005263        0.00003168        0.00085733        0.00004167
     196         -0.260466        1.000000        0.00006919        0.00018416        0.00895985        0.00003241
     197         -0.255402        1.000000        0.00027680        0.06921941        0.08657126        0.00778689
     198         -0.253204        1.000000        0.00001684        0.00015385        0.00015305        0.00022644
     199         -0.251631        1.000000        0.00166225        0.05458804        0.06212254        0.03860596
     200         -0.250444        1.000000        0.00058841        0.00356354        0.03168970        0.03693939
     201         -0.249424        1.000000        0.00139265        0.02456083        0.06875890        0.03718125
     202         -0.248381        1.000000        0.00091100        0.04532384        0.01164782        0.00547178
     203         -0.246026        1.000000        0.00101755        0.05963458        0.07491584        0.01093910
     204         -0.245125        1.000000        0.00083404        0.03666206        0.01750673        0.05273062
     205         -0.244032        1.000000        0.00064731        0.00928522        0.04011007        0.03394700
     206         -0.243659        1.000000        0.00330544        0.04607214        0.08205381        0.04115956
     207         -0.241125        1.000000        0.00085912        0.17541731        0.01219449        0.05812133
     208         -0.240461        1.000000        0.00155656        0.12250175        0.04797487        0.04865982
     209         -0.238862        1.000000        0.00004187        0.00646883        0.00033403        0.00663648
     210         -0.237557        1.000000        0.00089511        0.09787245        0.01991528        0.09098518
     211         -0.236983        1.000000        0.00265783        0.05690182        0.04929054        0.09974134
     212         -0.236478        1.000000        0.00049780        0.02327455        0.00491122        0.03606825
     213         -0.236400        1.000000        0.00099016        0.02928412        0.01938766        0.04937688
     214         -0.236027        1.000000        0.00050409        0.05013378        0.00901037        0.00575966
     215         -0.235997        1.000000        0.00047017        0.01298557        0.00245154        0.00949397
     216         -0.235557        1.000000        0.00010214        0.00386587        0.00192964        0.01735193
     217         -0.235423        1.000000        0.00049389        0.01386359        0.00878956        0.01734411
     218         -0.234335        1.000000        0.00055276        0.05673983        0.01338376        0.02363874
     219         -0.233559        1.000000        0.00046357        0.04750584        0.01206445        0.12913137
     220         -0.232393        1.000000        0.00021144        0.00567635        0.02256805        0.00839379
     221         -0.232020        1.000000        0.00066131        0.02425781        0.01115041        0.00839171
     222         -0.230629        1.000000        0.00033634        0.00122122        0.04700889        0.01514088
     223         -0.230379        1.000000        0.00020435        0.00502102        0.05398749        0.00905086
     224         -0.229722        1.000000        0.00086254        0.02281709        0.11211783        0.06087140
     225         -0.229250        1.000000        0.00053404        0.00687581        0.02069461        0.02047939
     226         -0.227883        1.000000        0.00078683        0.02038637        0.10903257        0.05078305
     227         -0.227127        1.000000        0.00110598        0.02139676        0.06595989        0.01033996
     228         -0.225536        1.000000        0.00049159        0.01226881        0.00754447        0.05643057
     229         -0.224674        1.000000        0.00019368        0.00876717        0.00359669        0.00910728
     230         -0.223333        1.000000        0.00064412        0.01844289        0.01758008        0.10961080
     231         -0.222037        1.000000        0.00009317        0.00267212        0.00628424        0.00387727
     232         -0.221582        1.000000        0.00110595        0.02174433        0.00273618        0.00737579
     233         -0.221581        1.000000        0.00009748        0.00273489        0.00032979        0.00028333
     234         -0.221186        1.000000        0.00123214        0.01330593        0.04771883        0.03392896
     235         -0.220041        1.000000        0.00191697        0.01472521        0.05891763        0.00595565
     236         -0.218621        1.000000        0.00016215        0.00194052        0.01219344        0.00720494
     237         -0.218471        1.000000        0.00218041        0.00939187        0.01510067        0.01165538
     238         -0.216732        1.000000        0.00077004        0.01338280        0.01567011        0.03352787
     239         -0.216065        1.000000        0.00090008        0.02916920        0.04218863        0.08410254
     240         -0.215507        1.000000        0.00003894        0.00337765        0.00447269        0.00523033
     241         -0.215223        1.000000        0.00043874        0.00866834        0.01802545        0.04333569
     242         -0.215158        1.000000        0.00171505        0.01349373        0.03095516        0.02497418
     243         -0.213958        1.000000        0.00018409        0.08085935        0.10740280        0.00773626
     244         -0.212301        1.000000        0.00100114        0.03865955        0.05640296        0.07065002
     245         -0.210936        1.000000        0.00622596        0.03324884        0.01828338        0.04241571
     246         -0.210421        1.000000        0.00021019        0.00351864        0.00222646        0.00208882
     247         -0.210241        1.000000        0.00157849        0.00665713        0.00611876        0.01181349
     248         -0.208243        1.000000        0.00440502        0.03583598        0.03495840        0.02369273
     249         -0.207943        1.000000        0.00302341        0.02982574        0.00665571        0.00824889
     250         -0.206836        1.000000        0.00717187        0.01774693        0.05669959        0.01918389
     251         -0.206634        1.000000        0.00464987        0.02031964        0.01070019        0.00548578
     252         -0.206286        1.000000        0.00483110        0.01885810        0.01805480        0.01503831
     253         -0.205096        1.000000        0.00294575        0.05982462        0.00770412        0.02981853
     254         -0.204774        1.000000        0.00332957        0.04595681        0.00255238        0.01706887
     255         -0.203931        1.000000        0.00082323        0.02697896        0.00106998        0.00482825
     256         -0.203899        1.000000        0.00114061        0.04102373        0.01035887        0.01517942
     257         -0.202568        1.000000        0.00214681        0.05172870        0.00312899        0.01175274
     258         -0.200354        1.000000        0.00562817        0.00856483        0.01050395        0.01562075
     259         -0.199934        1.000000        0.01028856        0.04707733        0.02594304        0.03994253