# Projected DOS for atomic kind H at iteration step i = 0, E(Fermi) =    -0.147204 a.u.
#     MO Eigenvalue [a.u.]      Occupation                 s
       1         -0.932601        1.000000        0.25527556
       2         -0.927664        1.000000        0.26115850
       3         -0.917399        1.000000        0.25452662
       4         -0.915157        1.000000        0.25452833
       5         -0.914287        1.000000        0.25374364
       6         -0.914271        1.000000        0.28283039
       7         -0.913618        1.000000        0.25332794
       8         -0.910380        1.000000        0.25434609
       9         -0.910074        1.000000        0.25701487
      10         -0.909818        1.000000        0.25660304
      11         -0.908270        1.000000        0.25386305
      12         -0.906450        1.000000        0.25386115
      13         -0.902559        1.000000        0.25444668
      14         -0.899685        1.000000        0.28063330
      15         -0.898768        1.000000        0.27839313
      16         -0.896304        1.000000        0.25400609
      17         -0.893825        1.000000        0.26036479
      18         -0.889254        1.000000        0.25071751
      19         -0.886911        1.000000        0.25601835
      20         -0.885845        1.000000        0.25525555
      21         -0.879739        1.000000        0.26058964
      22         -0.878850        1.000000        0.21521844
      23         -0.878192        1.000000        0.21707526
      24         -0.876584        1.000000        0.25517299
      25         -0.870920        1.000000        0.25263148
      26         -0.869373        1.000000        0.24988398
      27         -0.866703        1.000000        0.26260526
      28         -0.864538        1.000000        0.25000258
      29         -0.860287        1.000000        0.24827373
      30         -0.860056        1.000000        0.23641749
      31         -0.856540        1.000000        0.26215062
      32         -0.855185        1.000000        0.23555815
      33         -0.849988        1.000000        0.25787594
      34         -0.848266        1.000000        0.24851388
      35         -0.845173        1.000000        0.14975406
      36         -0.844364        1.000000        0.25740810
      37         -0.844057        1.000000        0.25768548
      38         -0.842460        1.000000        0.24544820
      39         -0.841009        1.000000        0.25438306
      40         -0.840749        1.000000        0.23864308
      41         -0.840304        1.000000        0.25308309
      42         -0.837257        1.000000        0.23441760
      43         -0.837131        1.000000        0.23007421
      44         -0.830499        1.000000        0.23031617
      45         -0.827251        1.000000        0.23821366
      46         -0.825005        1.000000        0.23862150
      47         -0.651897        1.000000        0.33986180
      48         -0.648160        1.000000        0.34882401
      49         -0.646541        1.000000        0.34775337
      50         -0.621140        1.000000        0.36190563
      51         -0.611515        1.000000        0.36534991
      52         -0.611438        1.000000        0.36285954
      53         -0.609278        1.000000        0.37121045
      54         -0.598164        1.000000        0.00455721
      55         -0.597766        1.000000        0.01087956
      56         -0.570013        1.000000        0.01090553
      57         -0.567667        1.000000        0.01479709
      58         -0.563300        1.000000        0.00247237
      59         -0.560081        1.000000        0.01061646
      60         -0.558359        1.000000        0.04784602
      61         -0.556976        1.000000        0.02984223
      62         -0.556070        1.000000        0.01152136
      63         -0.554165        1.000000        0.01383314
      64         -0.553688        1.000000        0.01281280
      65         -0.551180        1.000000        0.01617993
      66         -0.549893        1.000000        0.01861164
      67         -0.547784        1.000000        0.01121877
      68         -0.546127        1.000000        0.04414129
      69         -0.545527        1.000000        0.02037382
      70         -0.545120        1.000000        0.00794501
      71         -0.544052        1.000000        0.00599694
      72         -0.543255        1.000000        0.04306343
      73         -0.541492        1.000000        0.01918404
      74         -0.541047        1.000000        0.00600321
      75         -0.538704        1.000000        0.01624060
      76         -0.538480        1.000000        0.02340723
      77         -0.538359        1.000000        0.00581559
      78         -0.536829        1.000000        0.02085276
      79         -0.536566        1.000000        0.26798861
      80         -0.534539        1.000000        0.03615770
      81         -0.534011        1.000000        0.01980154
      82         -0.533515        1.000000        0.00506847
      83         -0.532510        1.000000        0.01507421
      84         -0.532063        1.000000        0.02271889
      85         -0.530632        1.000000        0.01035672
      86         -0.530478        1.000000        0.04782365
      87         -0.529789        1.000000        0.00918029
      88         -0.529542        1.000000        0.01025470
      89         -0.527806        1.000000        0.01869113
      90         -0.527426        1.000000        0.20299038
      91         -0.525596        1.000000        0.01278153
      92         -0.516804        1.000000        0.26213910
      93         -0.516735        1.000000        0.27289210
      94         -0.515385        1.000000        0.27155560
      95         -0.510503        1.000000        0.22841963
      96         -0.495347        1.000000        0.34972025
      97         -0.492672        1.000000        0.33043302
      98         -0.487358        1.000000        0.31399283
      99         -0.484721        1.000000        0.32359152
     100         -0.481282        1.000000        0.33515613
     101         -0.480864        1.000000        0.35636252
     102         -0.478723        1.000000        0.34641384
     103         -0.477550        1.000000        0.34166466
     104         -0.476059        1.000000        0.35569180
     105         -0.475910        1.000000        0.33889616
     106         -0.474289        1.000000        0.35092295
     107         -0.473439        1.000000        0.32935131
     108         -0.472459        1.000000        0.35211248
     109         -0.471999        1.000000        0.33380101
     110         -0.471829        1.000000        0.32243725
     111         -0.470481        1.000000        0.32017697
     112         -0.469965        1.000000        0.35834201
     113         -0.469843        1.000000        0.32966170
     114         -0.469584        1.000000        0.35085208
     115         -0.468896        1.000000        0.35703618
     116         -0.466355        1.000000        0.34604546
     117         -0.461796        1.000000        0.31988461
     118         -0.455765        1.000000        0.35663076
     119         -0.455671        1.000000        0.32815813
     120         -0.454673        1.000000        0.34953397
     121         -0.454550        1.000000        0.34164989
     122         -0.453021        1.000000        0.34563107
     123         -0.451525        1.000000        0.34663911
     124         -0.445580        1.000000        0.36260794
     125         -0.444478        1.000000        0.36783886
     126         -0.442913        1.000000        0.32608186
     127         -0.440331        1.000000        0.34205708
     128         -0.439302        1.000000        0.34641583
     129         -0.434825        1.000000        0.35346494
     130         -0.434677        1.000000        0.34326243
     131         -0.433154        1.000000        0.02417707
     132         -0.432881        1.000000        0.35001923
     133         -0.431256        1.000000        0.16577159
     134         -0.430707        1.000000        0.03091110
     135         -0.428462        1.000000        0.34805505
     136         -0.427734        1.000000        0.16607206
     137         -0.426930        1.000000        0.09736867
     138         -0.426619        1.000000        0.33138699
     139         -0.425452        1.000000        0.06157914
     140         -0.424772        1.000000        0.04296409
     141         -0.422355        1.000000        0.00682014
     142         -0.415794        1.000000        0.00366350
     143         -0.414198        1.000000        0.00458806
     144         -0.412600        1.000000        0.35417988
     145         -0.411428        1.000000        0.15144377
     146         -0.411226        1.000000        0.20696843
     147         -0.408676        1.000000        0.37133332
     148         -0.406736        1.000000        0.34423161
     149         -0.403502        1.000000        0.35549031
     150         -0.402987        1.000000        0.37139759
     151         -0.401760        1.000000        0.36975436
     152         -0.400387        1.000000        0.17466876
     153         -0.395709        1.000000        0.36093508
     154         -0.394701        1.000000        0.35051205
     155         -0.389757        1.000000        0.17409472
     156         -0.389654        1.000000        0.17409952
     157         -0.388132        1.000000        0.17174107
     158         -0.386249        1.000000        0.17506844
     159         -0.368548        1.000000        0.41955010
     160         -0.366408        1.000000        0.41850021
     161         -0.365566        1.000000        0.42568997
     162         -0.365096        1.000000        0.42414475
     163         -0.363699        1.000000        0.42281770
     164         -0.362148        1.000000        0.42244130
     165         -0.353240        1.000000        0.31025061
     166         -0.345984        1.000000        0.33784964
     167         -0.342519        1.000000        0.36164831
     168         -0.342061        1.000000        0.37590064
     169         -0.342014        1.000000        0.42141183
     170         -0.334285        1.000000        0.40853064
     171         -0.333105        1.000000        0.13767385
     172         -0.332611        1.000000        0.42622979
     173         -0.332134        1.000000        0.20474673
     174         -0.331920        1.000000        0.33904765
     175         -0.327802        1.000000        0.19151267
     176         -0.321941        1.000000        0.16990713
     177         -0.315533        1.000000        0.11489051
     178         -0.314688        1.000000        0.11506116
     179         -0.312353        1.000000        0.10552301
     180         -0.309858        1.000000        0.12899053
     181         -0.308708        1.000000        0.03348199
     182         -0.305956        1.000000        0.15065453
     183         -0.303496        1.000000        0.10641644
     184         -0.296031        1.000000        0.10164931
     185         -0.291957        1.000000        0.01720493
     186         -0.291516        1.000000        0.07507584
     187         -0.287501        1.000000        0.10821966
     188         -0.283565        1.000000        0.11519170
     189         -0.275133        1.000000        0.10871819
     190         -0.270440        1.000000        0.10567886
     191         -0.268117        1.000000        0.08872832
     192         -0.267425        1.000000        0.08052018
     193         -0.265546        1.000000        0.07706568
     194         -0.265281        1.000000        0.04452208
     195         -0.261404        1.000000        0.08922091
     196         -0.260278        1.000000        0.07026134
     197         -0.253534        1.000000        0.00588155
     198         -0.253198        1.000000        0.00268658
     199         -0.251214        1.000000        0.01683881
     200         -0.250226        1.000000        0.02980469
     201         -0.248409        1.000000        0.01574633
     202         -0.247399        1.000000        0.00722405
     203         -0.245442        1.000000        0.01659914
     204         -0.245006        1.000000        0.03553828
     205         -0.243288        1.000000        0.00629605
     206         -0.242185        1.000000        0.00351032
     207         -0.240327        1.000000        0.00444067
     208         -0.239640        1.000000        0.00140377
     209         -0.238620        1.000000        0.01630676
     210         -0.237395        1.000000        0.00501634
     211         -0.236718        1.000000        0.01466102
     212         -0.236343        1.000000        0.02680422
     213         -0.236028        1.000000        0.00905392
     214         -0.235925        1.000000        0.00768348
     215         -0.235747        1.000000        0.00542963
     216         -0.235461        1.000000        0.00411307
     217         -0.235178        1.000000        0.00368936
     218         -0.233796        1.000000        0.00859684
     219         -0.233142        1.000000        0.00521163
     220         -0.232378        1.000000        0.01251749
     221         -0.231996        1.000000        0.01860066
     222         -0.230502        1.000000        0.01266385
     223         -0.230159        1.000000        0.01912046
     224         -0.229228        1.000000        0.01951999
     225         -0.228754        1.000000        0.01871236
     226         -0.227323        1.000000        0.00481886
     227         -0.226492        1.000000        0.01599501
     228         -0.225328        1.000000        0.02091073
     229         -0.224308        1.000000        0.01071855
     230         -0.222953        1.000000        0.00640521
     231         -0.221926        1.000000        0.07204870
     232         -0.221581        1.000000        0.07914824
     233         -0.221382        1.000000        0.00290784
     234         -0.220920        1.000000        0.02486549
     235         -0.219668        1.000000        0.02946428
     236         -0.218507        1.000000        0.05877113
     237         -0.218245        1.000000        0.02013690
     238         -0.216471        1.000000        0.00497011
     239         -0.215542        1.000000        0.06551613
     240         -0.215277        1.000000        0.01653389
     241         -0.215020        1.000000        0.00505615
     242         -0.214640        1.000000        0.00555241
     243         -0.213601        1.000000        0.00436825
     244         -0.212182        1.000000        0.00332028
     245         -0.211022        1.000000        0.00293507
     246         -0.210207        1.000000        0.05022146
     247         -0.209091        1.000000        0.00432347
     248         -0.207983        1.000000        0.01033535
     249         -0.207249        1.000000        0.00806266
     250         -0.206452        1.000000        0.00729906
     251         -0.206111        1.000000        0.02033578
     252         -0.205643        1.000000        0.00258848
     253         -0.204680        1.000000        0.00963313
     254         -0.204533        1.000000        0.00178379
     255         -0.203911        1.000000        0.00129448
     256         -0.203736        1.000000        0.00159458
     257         -0.202465        1.000000        0.00391689
     258         -0.200226        1.000000        0.00388552
     259         -0.199897        1.000000        0.00532997
     260         -0.198815        1.000000        0.02267331
     261         -0.197039        1.000000        0.00541959
     262         -0.195149        1.000000        0.01141932
     263         -0.194220        1.000000        0.00287171
     264         -0.194154        1.000000        0.00380439
     265         -0.193084        1.000000        0.02988696
     266         -0.192708        1.000000        0.00260671
     267         -0.192106        1.000000        0.00434191
     268         -0.191565        1.000000        0.00160429
     269         -0.190566        1.000000        0.00637507
     270         -0.190225        1.000000        0.00283148
     271         -0.189713        1.000000        0.00258436
     272         -0.188314        1.000000        0.00177100
     273         -0.188048        1.000000        0.00478374
     274         -0.187638        1.000000        0.00258513
     275         -0.186614        1.000000        0.00186109
     276         -0.185807        1.000000        0.00204826
     277         -0.184503        1.000000        0.01680634
     278         -0.184322        1.000000        0.00238891
     279         -0.183745        1.000000        0.00162032
     280         -0.182402        1.000000        0.00175234
     281         -0.180773        1.000000        0.00212844
     282         -0.180722        1.000000        0.00132412
     283         -0.179209        1.000000        0.00129318
     284         -0.178910        1.000000        0.00126511
     285         -0.178359        1.000000        0.00124749
     286         -0.177933        1.000000        0.00089598
     287         -0.177150        1.000000        0.00079683
     288         -0.176295        1.000000        0.00106513
     289         -0.175518        1.000000        0.00090507
     290         -0.175183        1.000000        0.00084416
     291         -0.174773        1.000000        0.00144838
     292         -0.174068        1.000000        0.00184350
     293         -0.173582        1.000000        0.00099120
     294         -0.173184        1.000000        0.00121687
     295         -0.172576        1.000000        0.00102611
     296         -0.171801        1.000000        0.00085852
     297         -0.171629        1.000000        0.00089962
     298         -0.170934        1.000000        0.00079877
     299         -0.170274        1.000000        0.00110101
     300         -0.169987        1.000000        0.00107809
     301         -0.169391        1.000000        0.00109930
     302         -0.168708        1.000000        0.00126233
     303         -0.168163        1.000000        0.00090011
     304         -0.167692        1.000000        0.00123649
     305         -0.167430        1.000000        0.00090277
     306         -0.167204        1.000000        0.00073258
     307         -0.166995        1.000000        0.00088582
     308         -0.165753        1.000000        0.00092664
     309         -0.165447        1.000000        0.00096964
     310         -0.165003        1.000000        0.00083687
     311         -0.164598        1.000000        0.00134263
     312         -0.164441        1.000000        0.00052461
     313         -0.163924        1.000000        0.00106963
     314         -0.163699        1.000000        0.00094406
     315         -0.163203        1.000000        0.00160411
     316         -0.162825        1.000000        0.00008138
     317         -0.162736        1.000000        0.00083538
     318         -0.162173        1.000000        0.00152478
     319         -0.161780        1.000000        0.00082847
     320         -0.161242        1.000000        0.00102374
     321         -0.160804        1.000000        0.00067233
     322         -0.159851        1.000000        0.00050742
     323         -0.159668        1.000000        0.00062508
     324         -0.159541        1.000000        0.00079719
     325         -0.159204        1.000000        0.00055593
     326         -0.158489        1.000000        0.00068409
     327         -0.158089        1.000000        0.00024684
     328         -0.157830        1.000000        0.00021305
     329         -0.157808        1.000000        0.00026714
     330         -0.157454        1.000000        0.00078047
     331         -0.157241        1.000000        0.00026390
     332         -0.157086        1.000000        0.00061306
     333         -0.156748        1.000000        0.00038610
     334         -0.155975        1.000000        0.00061707
     335         -0.155341        1.000000        0.00063133
     336         -0.154884        1.000000        0.00048302
     337         -0.154396        1.000000        0.00064818
     338         -0.153913        1.000000        0.00066776
     339         -0.153653        1.000000        0.00074270
     340         -0.152838        1.000000        0.00039950
     341         -0.152301        1.000000        0.00046664
     342         -0.151195        1.000000        0.00060080
     343         -0.151159        1.000000        0.00048323
     344         -0.150888        1.000000        0.00091123
     345         -0.150665        1.000000        0.00019707
     346         -0.149523        1.000000        0.00024118
     347         -0.149107        1.000000        0.00042605
     348         -0.149061        1.000000        0.00020464
     349         -0.148369        1.000000        0.00026063
     350         -0.147204        1.000000        0.00032837
     351         -0.144292        0.000000        0.00035743
     352         -0.142037        0.000000        0.00039706
     353         -0.140754        0.000000        0.00027458
     354         -0.139824        0.000000        0.00037686
     355         -0.136376        0.000000        0.00057256
     356         -0.106038        0.000000        0.00221513
     357         -0.098956        0.000000        0.00507865
     358         -0.034131        0.000000        0.00049636
     359         -0.027678        0.000000        0.00040097
     360         -0.023796        0.000000        0.00084406
     361         -0.018241        0.000000        0.00060683
     362         -0.017606        0.000000        0.00052054
     363         -0.015581        0.000000        0.00042544
     364         -0.012566        0.000000        0.00052812
     365         -0.010197        0.000000        0.00046851
     366         -0.008253        0.000000        0.00058954
     367         -0.006948        0.000000        0.00084569
     368         -0.004792        0.000000        0.00045366
     369         -0.003427        0.000000        0.00058289
     370         -0.000470        0.000000        0.00072072
     371          0.000905        0.000000        0.00049514
     372          0.005561        0.000000        0.00063221
     373          0.006302        0.000000        0.00045609
     374          0.011276        0.000000        0.00109738
     375          0.012962        0.000000        0.00051163
     376          0.015122        0.000000        0.00060269
     377          0.017038        0.000000        0.00129371
     378          0.020081        0.000000        0.00028012
     379          0.024875        0.000000        0.00063275
     380          0.025782        0.000000        0.00088219
     381          0.027392        0.000000        0.00038330
     382          0.133804        0.000000        0.00495077
     383          0.144670        0.000000        0.00493683
     384          0.147704        0.000000        0.00431477
     385          0.177344        0.000000        0.00524997
     386          0.188832        0.000000        0.00593707
     387          0.197555        0.000000        0.00652356
     388          0.201848        0.000000        0.00603085
     389          0.283836        0.000000        0.68375158
     390          0.287242        0.000000        0.68821881
     391          0.295889        0.000000        0.68750065
     392          0.299516        0.000000        0.68147702
     393          0.300784        0.000000        0.68161958
     394          0.300908        0.000000        0.67904457
     395          0.300980        0.000000        0.68034612
     396          0.303475        0.000000        0.68906125
     397          0.303624        0.000000        0.68250762
     398          0.309181        0.000000        0.68023263
     399          0.311404        0.000000        0.67503102
     400          0.321865        0.000000        0.65897202
     401          0.325045        0.000000        0.67956349
     402          0.326275        0.000000        0.68294014
     403          0.327201        0.000000        0.66137448
     404          0.331621        0.000000        0.68372892
     405          0.332482        0.000000        0.66842813
     406          0.333411        0.000000        0.66406220
     407          0.335053        0.000000        0.66428885
     408          0.336408        0.000000        0.66762793
     409          0.341854        0.000000        0.66346236
     410          0.343940        0.000000        0.66579043
     411          0.344623        0.000000        0.66610395
     412          0.347814        0.000000        0.67395593
     413          0.351155        0.000000        0.67048349
     414          0.357185        0.000000        0.63422684
     415          0.360884        0.000000        0.66714084
     416          0.361344        0.000000        0.66163538
     417          0.365979        0.000000        0.66305423
     418          0.368119        0.000000        0.66171317
     419          0.368541        0.000000        0.66393948
     420          0.370726        0.000000        0.64819374
     421          0.373437        0.000000        0.65388756
     422          0.374791        0.000000        0.65669012
     423          0.378812        0.000000        0.66256438
     424          0.379719        0.000000        0.64837351
     425          0.381044        0.000000        0.65805789
     426          0.381145        0.000000        0.63541631
     427          0.381329        0.000000        0.66256190
     428          0.382448        0.000000        0.63612811
     429          0.382831        0.000000        0.65558288
     430          0.384553        0.000000        0.66313688
     431          0.385556        0.000000        0.65949779
     432          0.386386        0.000000        0.65217189
     433          0.386566        0.000000        0.64442120
     434          0.388891        0.000000        0.64256645
     435          0.389636        0.000000        0.64644030
     436          0.389815        0.000000        0.64009675
     437          0.390721        0.000000        0.66029858
     438          0.391574        0.000000        0.64743410
     439          0.391813        0.000000        0.65121480
     440          0.391838        0.000000        0.64903781
     441          0.393596        0.000000        0.64451247
     442          0.394201        0.000000        0.65834236
     443          0.396328        0.000000        0.64041609
     444          0.397507        0.000000        0.64825962
     445          0.398189        0.000000        0.65068762
     446          0.398457        0.000000        0.65474031
     447          0.400560        0.000000        0.65602930
     448          0.402913        0.000000        0.64508653
     449          0.405876        0.000000        0.64937107
     450          0.406596        0.000000        0.64602880
     451          0.407635        0.000000        0.64482324
     452          0.410104        0.000000        0.63174442
     453          0.410984        0.000000        0.64277323
     454          0.413458        0.000000        0.64461916
     455          0.415805        0.000000        0.65159929
     456          0.418458        0.000000        0.64427975
     457          0.419432        0.000000        0.64104946
     458          0.419531        0.000000        0.64699620
     459          0.424751        0.000000        0.64136022
     460          0.428050        0.000000        0.66399600
     461          0.440717        0.000000        0.64791548
     462          0.444096        0.000000        0.62866878
     463          0.444769        0.000000        0.64478437
     464          0.446211        0.000000        0.63003201
     465          0.450438        0.000000        0.64352985
     466          0.450753        0.000000        0.62862887
     467          0.451102        0.000000        0.65951838
     468          0.452900        0.000000        0.64830528
     469          0.453174        0.000000        0.63583248
     470          0.456878        0.000000        0.65212082
     471          0.457510        0.000000        0.66404395
     472          0.463811        0.000000        0.65010161
     473          0.464903        0.000000        0.65229844
     474          0.466104        0.000000        0.65615203
     475          0.467068        0.000000        0.65104916
     476          0.467940        0.000000        0.65461360
     477          0.470345        0.000000        0.65657002
     478          0.471658        0.000000        0.65385026
     479          0.476802        0.000000        0.64472285
     480          0.477438        0.000000        0.64639297
     481          0.485004        0.000000        0.66732227
     482          0.486068        0.000000        0.65207321
     483          0.494979        0.000000        0.65175449
     484          0.498859        0.000000        0.58533199
     485          0.502064        0.000000        0.64720809
     486          0.502577        0.000000        0.57964240
     487          0.503401        0.000000        0.58272095
     488          0.506221        0.000000        0.58218640
     489          0.508854        0.000000        0.66077312