# Projected DOS for atomic kind O at iteration step i = 0, E(Fermi) =    -0.145048 a.u.
#     MO Eigenvalue [a.u.]      Occupation                 s                py                pz                px
       1         -0.932605        1.000000        0.71158489        0.00510804        0.02368001        0.00377752
       2         -0.927662        1.000000        0.71220100        0.01951462        0.00320279        0.00347735
       3         -0.917441        1.000000        0.70840989        0.00856976        0.01568569        0.01234375
       4         -0.915157        1.000000        0.70993259        0.00229081        0.00588703        0.02686158
       5         -0.914290        1.000000        0.71022591        0.01558445        0.00448834        0.01562186
       6         -0.914275        1.000000        0.00127073        0.00001141        0.00003703        0.00000675
       7         -0.913614        1.000000        0.71357133        0.01118914        0.01997637        0.00034398
       8         -0.910413        1.000000        0.70831926        0.01215863        0.02367262        0.00000871
       9         -0.910075        1.000000        0.71011982        0.00532583        0.00014553        0.02706906
      10         -0.909810        1.000000        0.71415176        0.01632981        0.00356365        0.00779751
      11         -0.908270        1.000000        0.70847400        0.01638435        0.00919900        0.01184678
      12         -0.906459        1.000000        0.70664305        0.01099756        0.02514786        0.00309003
      13         -0.902555        1.000000        0.72461582        0.00774855        0.00534861        0.00641841
      14         -0.899691        1.000000        0.00000010        0.00000000        0.00000000        0.00000000
      15         -0.898778        1.000000        0.00013299        0.00000880        0.00000342        0.00000365
      16         -0.896288        1.000000        0.70706337        0.01885307        0.01592305        0.00395196
      17         -0.893826        1.000000        0.70465993        0.00604716        0.02670801        0.00121905
      18         -0.889260        1.000000        0.66178176        0.00553710        0.00893233        0.01125838
      19         -0.886917        1.000000        0.69887381        0.00145118        0.02237774        0.01951933
      20         -0.886034        1.000000        0.69535965        0.03542193        0.01331978        0.00045319
      21         -0.879705        1.000000        0.69282033        0.00938512        0.00751782        0.00490445
      22         -0.878832        1.000000        0.74871421        0.01936496        0.00626003        0.00366555
      23         -0.878157        1.000000        0.73253759        0.00975719        0.01961034        0.01533801
      24         -0.876584        1.000000        0.70585584        0.00031808        0.01628710        0.02190090
      25         -0.870908        1.000000        0.62816258        0.01128064        0.00283238        0.00507877
      26         -0.869383        1.000000        0.71380410        0.03142733        0.00393065        0.00058115
      27         -0.866704        1.000000        0.67180923        0.00436412        0.00726163        0.00892525
      28         -0.864614        1.000000        0.71362104        0.03190459        0.00085181        0.00335371
      29         -0.862350        1.000000        0.71513509        0.00816170        0.03126669        0.00846809
      30         -0.860249        1.000000        0.50743472        0.01120480        0.00857918        0.00189530
      31         -0.856545        1.000000        0.06689808        0.00394844        0.00196373        0.00277375
      32         -0.855167        1.000000        0.71469049        0.03136073        0.00026040        0.01662150
      33         -0.849987        1.000000        0.69143775        0.03490082        0.00570524        0.01008338
      34         -0.848264        1.000000        0.45647439        0.00527819        0.00303944        0.01183327
      35         -0.845102        1.000000        0.78612383        0.01580352        0.00943737        0.01155729
      36         -0.844363        1.000000        0.69198383        0.02823979        0.01655618        0.00579405
      37         -0.844072        1.000000        0.69173630        0.02788020        0.01810307        0.00460164
      38         -0.842918        1.000000        0.70477372        0.00249476        0.04553400        0.00080398
      39         -0.841130        1.000000        0.69542926        0.00883141        0.02372184        0.01719592
      40         -0.840718        1.000000        0.26418330        0.00669454        0.00822322        0.00332286
      41         -0.840308        1.000000        0.11158421        0.00913114        0.00022985        0.00059472
      42         -0.837308        1.000000        0.71627201        0.03387591        0.01419348        0.00088486
      43         -0.835470        1.000000        0.72106490        0.03530124        0.00451796        0.00725040
      44         -0.830495        1.000000        0.33904145        0.00578670        0.00739863        0.00768590
      45         -0.827265        1.000000        0.71280313        0.00061509        0.03146707        0.01674691
      46         -0.826297        1.000000        0.71352648        0.02394806        0.00144409        0.02340524
      47         -0.651901        1.000000        0.00018786        0.00028990        0.00023343        0.00028364
      48         -0.648168        1.000000        0.00001904        0.00007518        0.00003634        0.00005157
      49         -0.646546        1.000000        0.00000009        0.00000015        0.00000013        0.00000015
      50         -0.621137        1.000000        0.00013726        0.00142524        0.00052711        0.00013481
      51         -0.611521        1.000000        0.00023916        0.00161620        0.00025194        0.00031162
      52         -0.611467        1.000000        0.00026184        0.00183164        0.00033257        0.00006075
      53         -0.609278        1.000000        0.00031337        0.00060036        0.00107392        0.00001462
      54         -0.598505        1.000000        0.00603188        0.00443173        0.02272683        0.00095305
      55         -0.598137        1.000000        0.00034978        0.00015743        0.00419362        0.00088701
      56         -0.571531        1.000000        0.00149761        0.00126114        0.00714323        0.00040264
      57         -0.568832        1.000000        0.00052136        0.00047565        0.00262452        0.00033009
      58         -0.565124        1.000000        0.00030323        0.00095533        0.00131700        0.00042950
      59         -0.561571        1.000000        0.00037330        0.00110815        0.00106355        0.00089164
      60         -0.558534        1.000000        0.00007743        0.00023823        0.00026409        0.00043663
      61         -0.557188        1.000000        0.00011590        0.00021187        0.00065322        0.00046145
      62         -0.556475        1.000000        0.00033818        0.00056776        0.00037864        0.00057972
      63         -0.554972        1.000000        0.00026129        0.00074875        0.00126865        0.00075822
      64         -0.553901        1.000000        0.00013237        0.00020418        0.00098851        0.00047162
      65         -0.552222        1.000000        0.00048368        0.00146638        0.00139920        0.00260833
      66         -0.550249        1.000000        0.00015890        0.00024969        0.00109054        0.00052280
      67         -0.548401        1.000000        0.00029763        0.00027838        0.00061020        0.00052231
      68         -0.546773        1.000000        0.00018992        0.00043138        0.00050543        0.00053621
      69         -0.546079        1.000000        0.00027085        0.00042778        0.00025144        0.00057007
      70         -0.545669        1.000000        0.00021041        0.00105634        0.00022026        0.00082014
      71         -0.545135        1.000000        0.00026110        0.00047077        0.00059713        0.00268176
      72         -0.543508        1.000000        0.00023441        0.00031273        0.00045774        0.00079522
      73         -0.542755        1.000000        0.00009998        0.00013124        0.00024126        0.00027718
      74         -0.541878        1.000000        0.00014933        0.00034278        0.00029558        0.00137084
      75         -0.541284        1.000000        0.00021739        0.00031057        0.00028493        0.00104109
      76         -0.540325        1.000000        0.00031507        0.00015878        0.00033843        0.00330649
      77         -0.538746        1.000000        0.00014274        0.00022626        0.00024652        0.00045634
      78         -0.537925        1.000000        0.00005681        0.00011893        0.00013929        0.00032832
      79         -0.536613        1.000000        0.00006529        0.00009518        0.00075108        0.00103326
      80         -0.534595        1.000000        0.00020766        0.00068115        0.00088354        0.00167112
      81         -0.534316        1.000000        0.00013752        0.00063965        0.00074733        0.00101762
      82         -0.533771        1.000000        0.00056554        0.00140283        0.00121579        0.00452384
      83         -0.532650        1.000000        0.00016778        0.00178545        0.00089923        0.00208397
      84         -0.532398        1.000000        0.00034919        0.00211067        0.00119745        0.00563614
      85         -0.530795        1.000000        0.00024051        0.00223541        0.00089181        0.00435882
      86         -0.530630        1.000000        0.00046014        0.00073904        0.01061300        0.02062942
      87         -0.530471        1.000000        0.00011896        0.00082238        0.00046043        0.00124283
      88         -0.529946        1.000000        0.00005059        0.00034838        0.00033054        0.00093800
      89         -0.527676        1.000000        0.00014453        0.00040643        0.00017633        0.00027132
      90         -0.527531        1.000000        0.00004590        0.00021353        0.00013420        0.00020635
      91         -0.525483        1.000000        0.00037739        0.00189466        0.00138760        0.00868516
      92         -0.516776        1.000000        0.00000533        0.00016474        0.00003687        0.00007270
      93         -0.516763        1.000000        0.00002097        0.00022737        0.00016892        0.00018866
      94         -0.515422        1.000000        0.00001874        0.00015001        0.00011090        0.00013118
      95         -0.510486        1.000000        0.00008536        0.00071265        0.00047634        0.00047506
      96         -0.495356        1.000000        0.00075974        0.30710998        0.04333392        0.28248838
      97         -0.492689        1.000000        0.00288840        0.00085491        0.10006452        0.50949243
      98         -0.487356        1.000000        0.00021303        0.01466434        0.00221527        0.01324256
      99         -0.484724        1.000000        0.00120391        0.05907987        0.00617439        0.03379073
     100         -0.481290        1.000000        0.00002397        0.00184305        0.00145278        0.00103655
     101         -0.480892        1.000000        0.00080349        0.32015131        0.00352293        0.31119763
     102         -0.478734        1.000000        0.00044147        0.24707018        0.10032312        0.15674798
     103         -0.477561        1.000000        0.00113082        0.34574621        0.15464393        0.14248099
     104         -0.476057        1.000000        0.00036952        0.01746099        0.36682563        0.25348881
     105         -0.475919        1.000000        0.00005173        0.08372189        0.04296802        0.02817001
     106         -0.474294        1.000000        0.00023088        0.31736650        0.18445909        0.14130321
     107         -0.473440        1.000000        0.00002951        0.00081466        0.00999857        0.00333989
     108         -0.472503        1.000000        0.00012550        0.02165978        0.00552608        0.59979063
     109         -0.471986        1.000000        0.00217445        0.22192059        0.06893615        0.32127831
     110         -0.471824        1.000000        0.00071534        0.09090334        0.01999941        0.03906050
     111         -0.470493        1.000000        0.00040065        0.09811509        0.01724398        0.05493384
     112         -0.469975        1.000000        0.00037138        0.08020666        0.01259342        0.53479828
     113         -0.469853        1.000000        0.00505234        0.11129346        0.15331822        0.38174651
     114         -0.469585        1.000000        0.00078255        0.26078591        0.34930149        0.02409827
     115         -0.468894        1.000000        0.00002123        0.23653600        0.01319328        0.39012086
     116         -0.466359        1.000000        0.00342105        0.04289641        0.42288036        0.16543715
     117         -0.461797        1.000000        0.00054307        0.03735273        0.08417568        0.01017588
     118         -0.455775        1.000000        0.00024644        0.04726924        0.22367800        0.36637362
     119         -0.455663        1.000000        0.00485250        0.09960658        0.08103743        0.48113322
     120         -0.454679        1.000000        0.00200619        0.04161598        0.21870258        0.32846881
     121         -0.454538        1.000000        0.00325027        0.45364190        0.08715580        0.10327973
     122         -0.453018        1.000000        0.00027518        0.05289199        0.10342085        0.46733559
     123         -0.451525        1.000000        0.00280608        0.04729815        0.25177732        0.34873673
     124         -0.445586        1.000000        0.00059361        0.02801056        0.28558266        0.31515838
     125         -0.444537        1.000000        0.00001327        0.00007208        0.02549759        0.60541212
     126         -0.442922        1.000000        0.00419720        0.03220784        0.50107929        0.02467358
     127         -0.440297        1.000000        0.00455728        0.34177341        0.23133579        0.05841409
     128         -0.439308        1.000000        0.00569855        0.04785593        0.03936930        0.54733530
     129         -0.434833        1.000000        0.00023346        0.34404730        0.19881115        0.08652983
     130         -0.434677        1.000000        0.00131581        0.30411803        0.14577057        0.19711561
     131         -0.433578        1.000000        0.00485995        0.04708105        0.16472922        0.42931222
     132         -0.433294        1.000000        0.00023489        0.00427243        0.00664130        0.01371627
     133         -0.431969        1.000000        0.00017462        0.00061644        0.00804483        0.00564282
     134         -0.431189        1.000000        0.00100501        0.00679529        0.06496185        0.01133976
     135         -0.428463        1.000000        0.00306791        0.08242597        0.27427675        0.28430358
     136         -0.428099        1.000000        0.00014628        0.00139066        0.00496817        0.00359057
     137         -0.427708        1.000000        0.00010920        0.00277577        0.00230089        0.00894070
     138         -0.426632        1.000000        0.00466250        0.16933196        0.00361532        0.43909134
     139         -0.425956        1.000000        0.00015037        0.00338297        0.00059643        0.00858429
     140         -0.424994        1.000000        0.00011704        0.00128838        0.00073096        0.00299330
     141         -0.422540        1.000000        0.00026670        0.00167959        0.00204302        0.00333024
     142         -0.416133        1.000000        0.00008905        0.00118228        0.00082204        0.00157942
     143         -0.414235        1.000000        0.00016969        0.00176198        0.00122622        0.00141837
     144         -0.412735        1.000000        0.00620054        0.55912634        0.04854394        0.03132565
     145         -0.411493        1.000000        0.00171051        0.06230547        0.11186143        0.00296165
     146         -0.411264        1.000000        0.00377924        0.15761486        0.28832121        0.00448986
     147         -0.408673        1.000000        0.00001442        0.14511134        0.00001280        0.48352546
     148         -0.406398        1.000000        0.00505713        0.14330507        0.21640986        0.28210945
     149         -0.403693        1.000000        0.00659554        0.34968925        0.00471706        0.27604396
     150         -0.402995        1.000000        0.00000154        0.00001081        0.13182679        0.49673790
     151         -0.401760        1.000000        0.00000658        0.00230833        0.20692973        0.41992891
     152         -0.400384        1.000000        0.00185627        0.01840878        0.00309437        0.00546618
     153         -0.395845        1.000000        0.00004540        0.10527807        0.33329268        0.18687615
     154         -0.394768        1.000000        0.00446899        0.29882172        0.08790562        0.25166752
     155         -0.389756        1.000000        0.01380725        0.02763633        0.06525849        0.02061936
     156         -0.389654        1.000000        0.01470715        0.02733099        0.06963267        0.02187289
     157         -0.388105        1.000000        0.07496336        0.08521143        0.31652781        0.08452562
     158         -0.386251        1.000000        0.00135665        0.00538479        0.02405915        0.00206819
     159         -0.368551        1.000000        0.00029233        0.00196622        0.00746560        0.00859124
     160         -0.366416        1.000000        0.00012659        0.00016658        0.00080261        0.00394801
     161         -0.365575        1.000000        0.00001871        0.00103290        0.00006836        0.00031226
     162         -0.365106        1.000000        0.00001084        0.00002430        0.00004515        0.00002691
     163         -0.363706        1.000000        0.00019800        0.00324755        0.00029544        0.00434754
     164         -0.362154        1.000000        0.00000504        0.00003775        0.00002930        0.00004128
     165         -0.353237        1.000000        0.04364052        0.08599307        0.09625352        0.06543263
     166         -0.345981        1.000000        0.03207728        0.05389828        0.08334717        0.05779777
     167         -0.342525        1.000000        0.01819110        0.10962769        0.01415381        0.02373883
     168         -0.342062        1.000000        0.01676614        0.03342432        0.07217127        0.02498199
     169         -0.342010        1.000000        0.00203128        0.00409671        0.00877204        0.00298371
     170         -0.334294        1.000000        0.00819864        0.02363694        0.01246979        0.01437126
     171         -0.333104        1.000000        0.11241562        0.30859507        0.16917593        0.19004391
     172         -0.332616        1.000000        0.00062238        0.00105474        0.00099616        0.00081187
     173         -0.332119        1.000000        0.08384840        0.17350377        0.18530932        0.08630837
     174         -0.331914        1.000000        0.04361155        0.09018745        0.09699947        0.04507119
     175         -0.327804        1.000000        0.10009460        0.04628761        0.38747996        0.08708109
     176         -0.321936        1.000000        0.12387320        0.19179000        0.13653057        0.26994279
     177         -0.315582        1.000000        0.14908660        0.26791051        0.44353606        0.01501177
     178         -0.314730        1.000000        0.14614049        0.29828922        0.08475396        0.35199814
     179         -0.312706        1.000000        0.14857690        0.13915580        0.30388891        0.30124316
     180         -0.309865        1.000000        0.12434170        0.03360333        0.18429892        0.43107931
     181         -0.308795        1.000000        0.05853565        0.17431086        0.29987529        0.06166038
     182         -0.305955        1.000000        0.13161079        0.08363149        0.32626458        0.21799818
     183         -0.303494        1.000000        0.14906365        0.31929114        0.06703168        0.35522057
     184         -0.296092        1.000000        0.14872844        0.32286228        0.35923181        0.06590434
     185         -0.291938        1.000000        0.02346135        0.19082697        0.07503966        0.08736638
     186         -0.291508        1.000000        0.10061938        0.42776037        0.13922157        0.23696598
     187         -0.287295        1.000000        0.14561434        0.27861299        0.32385031        0.13724893
     188         -0.283551        1.000000        0.11023745        0.22680043        0.09100878        0.31020479
     189         -0.275138        1.000000        0.15002169        0.05617189        0.24140488        0.41404865
     190         -0.270435        1.000000        0.11678796        0.15998177        0.39950027        0.06504805
     191         -0.268166        1.000000        0.13704946        0.46281058        0.28011812        0.00961581
     192         -0.267437        1.000000        0.15093728        0.02357422        0.37265913        0.36905935
     193         -0.265555        1.000000        0.08445738        0.22752267        0.27569083        0.15894069
     194         -0.265375        1.000000        0.08792033        0.47261090        0.15743476        0.10062001
     195         -0.261579        1.000000        0.13612259        0.52260203        0.01410515        0.23170925
     196         -0.260466        1.000000        0.13813025        0.46839209        0.23319978        0.03230569
     197         -0.255402        1.000000        0.00851056        0.07630307        0.04445581        0.01860647
     198         -0.253204        1.000000        0.00070589        0.33771487        0.21416484        0.42850249
     199         -0.251631        1.000000        0.02308238        0.12224920        0.08857679        0.06065932
     200         -0.250444        1.000000        0.05420111        0.15736366        0.13936564        0.18786045
     201         -0.249424        1.000000        0.02470490        0.16014899        0.09486879        0.09396062
     202         -0.248381        1.000000        0.01697297        0.30339348        0.21330516        0.16791157
     203         -0.246026        1.000000        0.01289189        0.14271693        0.15649979        0.04309786
     204         -0.245125        1.000000        0.03762662        0.27110315        0.02639994        0.06694057
     205         -0.244032        1.000000        0.01369419        0.18966695        0.27078866        0.09368360
     206         -0.243659        1.000000        0.00612692        0.12442151        0.09762922        0.04843200
     207         -0.241125        1.000000        0.00617530        0.06322223        0.02265047        0.02393120
     208         -0.240461        1.000000        0.00337343        0.06978477        0.05102031        0.03331395
     209         -0.238862        1.000000        0.03275990        0.27926722        0.33443861        0.28237384
     210         -0.237557        1.000000        0.00905008        0.08313315        0.07024042        0.07118379
     211         -0.236983        1.000000        0.01162721        0.08488822        0.07333822        0.05607734
     212         -0.236478        1.000000        0.02107673        0.24314784        0.20081175        0.23284454
     213         -0.236400        1.000000        0.03135623        0.18544872        0.24392331        0.12062770
     214         -0.236027        1.000000        0.02563259        0.22065699        0.31280812        0.15819967
     215         -0.235997        1.000000        0.01811653        0.38988150        0.32427586        0.15340875
     216         -0.235557        1.000000        0.00241513        0.37683849        0.43717916        0.07229083
     217         -0.235423        1.000000        0.00412213        0.17277506        0.34174574        0.28183060
     218         -0.234335        1.000000        0.01069714        0.11273059        0.36510075        0.07110578
     219         -0.233559        1.000000        0.00552001        0.08649449        0.18090787        0.01568077
     220         -0.232393        1.000000        0.01639878        0.53364292        0.22613699        0.05378864
     221         -0.232020        1.000000        0.04905196        0.52951471        0.11210846        0.08806363
     222         -0.230629        1.000000        0.02791169        0.25753263        0.41374749        0.02971430
     223         -0.230379        1.000000        0.03306458        0.22063109        0.39404199        0.03943149
     224         -0.229722        1.000000        0.00924913        0.11018025        0.11750613        0.02535495
     225         -0.229250        1.000000        0.05317052        0.37509821        0.16957858        0.09108823
     226         -0.227883        1.000000        0.01679853        0.07696065        0.18071999        0.03004840
     227         -0.227127        1.000000        0.03121903        0.08880599        0.32256455        0.06501669
     228         -0.225536        1.000000        0.01776185        0.35344615        0.13115947        0.05507909
     229         -0.224674        1.000000        0.01875703        0.34663413        0.21109140        0.11428690
     230         -0.223333        1.000000        0.00985779        0.13902630        0.08775657        0.06906903
     231         -0.222037        1.000000        0.13555066        0.16909293        0.28599183        0.20269502
     232         -0.221582        1.000000        0.01932095        0.41603376        0.08903958        0.28217536
     233         -0.221581        1.000000        0.14983665        0.50531131        0.08266316        0.17123525
     234         -0.221186        1.000000        0.03809678        0.09873719        0.19994333        0.07329608
     235         -0.220041        1.000000        0.05694518        0.12011945        0.21920341        0.06620989
     236         -0.218621        1.000000        0.13440391        0.33524089        0.21238709        0.08612587
     237         -0.218471        1.000000        0.04042275        0.35044755        0.23389617        0.08475859
     238         -0.216732        1.000000        0.00672118        0.11992082        0.33477439        0.05451809
     239         -0.216065        1.000000        0.01116838        0.05801304        0.06710599        0.01949634
     240         -0.215507        1.000000        0.14807250        0.39281997        0.25913386        0.06829388
     241         -0.215223        1.000000        0.02493685        0.14395491        0.16313601        0.06486983
     242         -0.215158        1.000000        0.01239719        0.04173829        0.07491935        0.22441361
     243         -0.213958        1.000000        0.00584167        0.04367617        0.05411375        0.03229842
     244         -0.212301        1.000000        0.00899258        0.03898907        0.08305489        0.09433729
     245         -0.210936        1.000000        0.00548324        0.04572807        0.11811210        0.25536466
     246         -0.210421        1.000000        0.10602277        0.17230324        0.60533113        0.02145995
     247         -0.210241        1.000000        0.00451611        0.11871895        0.17411296        0.03679179
     248         -0.208243        1.000000        0.01266436        0.15083033        0.11513121        0.03788525
     249         -0.207943        1.000000        0.00923577        0.50776322        0.09813027        0.03702228
     250         -0.206836        1.000000        0.00763127        0.23984075        0.12909291        0.05873049
     251         -0.206634        1.000000        0.00404123        0.13052540        0.14148714        0.06054688
     252         -0.206286        1.000000        0.04800055        0.37067315        0.10995190        0.10691933
     253         -0.205096        1.000000        0.00371609        0.12411067        0.12606446        0.09361470
     254         -0.204774        1.000000        0.01968804        0.32961686        0.18499548        0.09658199
     255         -0.203931        1.000000        0.00180555        0.43712517        0.21037765        0.17500960
     256         -0.203899        1.000000        0.00259608        0.18577348        0.24096641        0.21808127
     257         -0.202568        1.000000        0.00658677        0.11361133        0.34830199        0.19746168
     258         -0.200354        1.000000        0.00125042        0.02016304        0.02435046        0.02251510
     259         -0.199934        1.000000        0.00786047        0.04679626        0.09010879        0.15081811