# Projected DOS for atomic kind H at iteration step i = 0, E(Fermi) =    -0.145048 a.u.
#     MO Eigenvalue [a.u.]      Occupation                 s
       1         -0.932605        1.000000        0.25527435
       2         -0.927662        1.000000        0.26116200
       3         -0.917441        1.000000        0.25465473
       4         -0.915157        1.000000        0.25453044
       5         -0.914290        1.000000        0.25374333
       6         -0.914275        1.000000        0.28283127
       7         -0.913614        1.000000        0.25332314
       8         -0.910413        1.000000        0.25432621
       9         -0.910075        1.000000        0.25701216
      10         -0.909810        1.000000        0.25660254
      11         -0.908270        1.000000        0.25385992
      12         -0.906459        1.000000        0.25387182
      13         -0.902555        1.000000        0.25445026
      14         -0.899691        1.000000        0.28062758
      15         -0.898778        1.000000        0.27839646
      16         -0.896288        1.000000        0.25392488
      17         -0.893826        1.000000        0.26036629
      18         -0.889260        1.000000        0.25071402
      19         -0.886917        1.000000        0.25601611
      20         -0.886034        1.000000        0.25514606
      21         -0.879705        1.000000        0.26055681
      22         -0.878832        1.000000        0.21524640
      23         -0.878157        1.000000        0.21709905
      24         -0.876584        1.000000        0.25518047
      25         -0.870908        1.000000        0.25266384
      26         -0.869383        1.000000        0.24989129
      27         -0.866704        1.000000        0.26260470
      28         -0.864614        1.000000        0.25015034
      29         -0.862350        1.000000        0.23512315
      30         -0.860249        1.000000        0.24845446
      31         -0.856545        1.000000        0.26215269
      32         -0.855167        1.000000        0.23556587
      33         -0.849987        1.000000        0.25787277
      34         -0.848264        1.000000        0.24849707
      35         -0.845102        1.000000        0.14976932
      36         -0.844363        1.000000        0.25740299
      37         -0.844072        1.000000        0.25767839
      38         -0.842918        1.000000        0.24519762
      39         -0.841130        1.000000        0.25440108
      40         -0.840718        1.000000        0.23853551
      41         -0.840308        1.000000        0.25307281
      42         -0.837308        1.000000        0.23438260
      43         -0.835470        1.000000        0.23109777
      44         -0.830495        1.000000        0.23032599
      45         -0.827265        1.000000        0.23825171
      46         -0.826297        1.000000        0.23759890
      47         -0.651901        1.000000        0.33985866
      48         -0.648168        1.000000        0.34882070
      49         -0.646546        1.000000        0.34774100
      50         -0.621137        1.000000        0.36188919
      51         -0.611521        1.000000        0.36530686
      52         -0.611467        1.000000        0.36177273
      53         -0.609278        1.000000        0.37121391
      54         -0.598505        1.000000        0.01176483
      55         -0.598137        1.000000        0.00449310
      56         -0.571531        1.000000        0.00538592
      57         -0.568832        1.000000        0.01886459
      58         -0.565124        1.000000        0.00153268
      59         -0.561571        1.000000        0.00705503
      60         -0.558534        1.000000        0.05141562
      61         -0.557188        1.000000        0.02982531
      62         -0.556475        1.000000        0.01154365
      63         -0.554972        1.000000        0.01079731
      64         -0.553901        1.000000        0.01244965
      65         -0.552222        1.000000        0.01615650
      66         -0.550249        1.000000        0.01835432
      67         -0.548401        1.000000        0.00996449
      68         -0.546773        1.000000        0.02924866
      69         -0.546079        1.000000        0.03592960
      70         -0.545669        1.000000        0.00533006
      71         -0.545135        1.000000        0.00629743
      72         -0.543508        1.000000        0.04206438
      73         -0.542755        1.000000        0.00837291
      74         -0.541878        1.000000        0.01908995
      75         -0.541284        1.000000        0.00736661
      76         -0.540325        1.000000        0.00457562
      77         -0.538746        1.000000        0.03551265
      78         -0.537925        1.000000        0.01719064
      79         -0.536613        1.000000        0.26901556
      80         -0.534595        1.000000        0.01461175
      81         -0.534316        1.000000        0.03084337
      82         -0.533771        1.000000        0.01560942
      83         -0.532650        1.000000        0.02078638
      84         -0.532398        1.000000        0.01774365
      85         -0.530795        1.000000        0.00923594
      86         -0.530630        1.000000        0.04869946
      87         -0.530471        1.000000        0.00957999
      88         -0.529946        1.000000        0.01096073
      89         -0.527676        1.000000        0.06278978
      90         -0.527531        1.000000        0.16460643
      91         -0.525483        1.000000        0.01272624
      92         -0.516776        1.000000        0.26007774
      93         -0.516763        1.000000        0.27541221
      94         -0.515422        1.000000        0.27211516
      95         -0.510486        1.000000        0.22766943
      96         -0.495356        1.000000        0.34981181
      97         -0.492689        1.000000        0.33070134
      98         -0.487356        1.000000        0.31392466
      99         -0.484724        1.000000        0.32356693
     100         -0.481290        1.000000        0.33527985
     101         -0.480892        1.000000        0.35638343
     102         -0.478734        1.000000        0.34645799
     103         -0.477561        1.000000        0.34171635
     104         -0.476057        1.000000        0.35567210
     105         -0.475919        1.000000        0.33892150
     106         -0.474294        1.000000        0.35097717
     107         -0.473440        1.000000        0.32948477
     108         -0.472503        1.000000        0.35224535
     109         -0.471986        1.000000        0.33365865
     110         -0.471824        1.000000        0.32246932
     111         -0.470493        1.000000        0.32018074
     112         -0.469975        1.000000        0.35833390
     113         -0.469853        1.000000        0.32965594
     114         -0.469585        1.000000        0.35085566
     115         -0.468894        1.000000        0.35703178
     116         -0.466359        1.000000        0.34604256
     117         -0.461797        1.000000        0.31992367
     118         -0.455775        1.000000        0.35664974
     119         -0.455663        1.000000        0.32815821
     120         -0.454679        1.000000        0.34954337
     121         -0.454538        1.000000        0.34164298
     122         -0.453018        1.000000        0.34559412
     123         -0.451525        1.000000        0.34664685
     124         -0.445586        1.000000        0.36260495
     125         -0.444537        1.000000        0.36769435
     126         -0.442922        1.000000        0.32600606
     127         -0.440297        1.000000        0.34207199
     128         -0.439308        1.000000        0.34629753
     129         -0.434833        1.000000        0.35341922
     130         -0.434677        1.000000        0.34324472
     131         -0.433578        1.000000        0.34867787
     132         -0.433294        1.000000        0.02254284
     133         -0.431969        1.000000        0.01355342
     134         -0.431189        1.000000        0.18130718
     135         -0.428463        1.000000        0.34769280
     136         -0.428099        1.000000        0.04839052
     137         -0.427708        1.000000        0.15149290
     138         -0.426632        1.000000        0.33715991
     139         -0.425956        1.000000        0.11686272
     140         -0.424994        1.000000        0.05026839
     141         -0.422540        1.000000        0.00698265
     142         -0.416133        1.000000        0.00340625
     143         -0.414235        1.000000        0.00478301
     144         -0.412735        1.000000        0.35405079
     145         -0.411493        1.000000        0.10158473
     146         -0.411264        1.000000        0.25640231
     147         -0.408673        1.000000        0.37132806
     148         -0.406398        1.000000        0.34536309
     149         -0.403693        1.000000        0.35499530
     150         -0.402995        1.000000        0.37139119
     151         -0.401760        1.000000        0.36975889
     152         -0.400384        1.000000        0.17466523
     153         -0.395845        1.000000        0.36093833
     154         -0.394768        1.000000        0.35050726
     155         -0.389756        1.000000        0.17426354
     156         -0.389654        1.000000        0.17399696
     157         -0.388105        1.000000        0.17170240
     158         -0.386251        1.000000        0.17507818
     159         -0.368551        1.000000        0.41955091
     160         -0.366416        1.000000        0.41849867
     161         -0.365575        1.000000        0.42568377
     162         -0.365106        1.000000        0.42413748
     163         -0.363706        1.000000        0.42281472
     164         -0.362154        1.000000        0.42243809
     165         -0.353237        1.000000        0.31018329
     166         -0.345981        1.000000        0.33799936
     167         -0.342525        1.000000        0.36165255
     168         -0.342062        1.000000        0.37448286
     169         -0.342010        1.000000        0.42281742
     170         -0.334294        1.000000        0.40863361
     171         -0.333104        1.000000        0.13749643
     172         -0.332616        1.000000        0.42622041
     173         -0.332119        1.000000        0.22148433
     174         -0.331914        1.000000        0.32233304
     175         -0.327804        1.000000        0.19153277
     176         -0.321936        1.000000        0.16982196
     177         -0.315582        1.000000        0.11485817
     178         -0.314730        1.000000        0.11503471
     179         -0.312706        1.000000        0.10554751
     180         -0.309865        1.000000        0.12820038
     181         -0.308795        1.000000        0.03413207
     182         -0.305955        1.000000        0.15065086
     183         -0.303494        1.000000        0.10641612
     184         -0.296092        1.000000        0.10163422
     185         -0.291938        1.000000        0.01716045
     186         -0.291508        1.000000        0.07507665
     187         -0.287295        1.000000        0.10819491
     188         -0.283551        1.000000        0.11514293
     189         -0.275138        1.000000        0.10870337
     190         -0.270435        1.000000        0.10568186
     191         -0.268166        1.000000        0.08871082
     192         -0.267437        1.000000        0.08049711
     193         -0.265555        1.000000        0.07702083
     194         -0.265375        1.000000        0.04455142
     195         -0.261579        1.000000        0.08931698
     196         -0.260466        1.000000        0.06851713
     197         -0.255402        1.000000        0.00511097
     198         -0.253204        1.000000        0.00263177
     199         -0.251631        1.000000        0.01412722
     200         -0.250444        1.000000        0.02802931
     201         -0.249424        1.000000        0.01648696
     202         -0.248381        1.000000        0.00909401
     203         -0.246026        1.000000        0.01279395
     204         -0.245125        1.000000        0.04208529
     205         -0.244032        1.000000        0.00728867
     206         -0.243659        1.000000        0.00349671
     207         -0.241125        1.000000        0.00444128
     208         -0.240461        1.000000        0.00231488
     209         -0.238862        1.000000        0.01737654
     210         -0.237557        1.000000        0.00548305
     211         -0.236983        1.000000        0.00778828
     212         -0.236478        1.000000        0.01336133
     213         -0.236400        1.000000        0.01869586
     214         -0.236027        1.000000        0.01385532
     215         -0.235997        1.000000        0.00993850
     216         -0.235557        1.000000        0.00309963
     217         -0.235423        1.000000        0.00333570
     218         -0.234335        1.000000        0.00702902
     219         -0.233559        1.000000        0.00370482
     220         -0.232393        1.000000        0.00836341
     221         -0.232020        1.000000        0.02361221
     222         -0.230629        1.000000        0.01384653
     223         -0.230379        1.000000        0.01718547
     224         -0.229722        1.000000        0.00514321
     225         -0.229250        1.000000        0.03444341
     226         -0.227883        1.000000        0.00805358
     227         -0.227127        1.000000        0.01493508
     228         -0.225536        1.000000        0.01390818
     229         -0.224674        1.000000        0.01461592
     230         -0.223333        1.000000        0.00723659
     231         -0.222037        1.000000        0.07138065
     232         -0.221582        1.000000        0.01059435
     233         -0.221581        1.000000        0.07189543
     234         -0.221186        1.000000        0.01958951
     235         -0.220041        1.000000        0.02858783
     236         -0.218621        1.000000        0.06592727
     237         -0.218471        1.000000        0.01901323
     238         -0.216732        1.000000        0.00385035
     239         -0.216065        1.000000        0.00602546
     240         -0.215507        1.000000        0.07078583
     241         -0.215223        1.000000        0.01163086
     242         -0.215158        1.000000        0.00614981
     243         -0.213958        1.000000        0.00326363
     244         -0.212301        1.000000        0.00422320
     245         -0.210936        1.000000        0.00296455
     246         -0.210421        1.000000        0.04994573
     247         -0.210241        1.000000        0.00351249
     248         -0.208243        1.000000        0.00698128
     249         -0.207943        1.000000        0.00907446
     250         -0.206836        1.000000        0.00530106
     251         -0.206634        1.000000        0.00406705
     252         -0.206286        1.000000        0.02313964
     253         -0.205096        1.000000        0.00274236
     254         -0.204774        1.000000        0.00965706
     255         -0.203931        1.000000        0.00141730
     256         -0.203899        1.000000        0.00176075
     257         -0.202568        1.000000        0.00362588
     258         -0.200354        1.000000        0.00354354
     259         -0.199934        1.000000        0.00440387
     260         -0.198459        1.000000        0.02484232
     261         -0.197202        1.000000        0.00497215
     262         -0.195847        1.000000        0.00178516
     263         -0.195354        1.000000        0.01126592
     264         -0.194943        1.000000        0.00645155
     265         -0.193498        1.000000        0.02651720
     266         -0.193109        1.000000        0.00331448
     267         -0.192921        1.000000        0.00602820
     268         -0.191571        1.000000        0.00150177
     269         -0.190833        1.000000        0.00469482
     270         -0.190637        1.000000        0.00503247
     271         -0.189843        1.000000        0.00284052
     272         -0.189518        1.000000        0.00205177
     273         -0.188030        1.000000        0.00399513
     274         -0.186931        1.000000        0.00281431
     275         -0.186864        1.000000        0.00185233
     276         -0.186419        1.000000        0.00161875
     277         -0.184511        1.000000        0.00973276
     278         -0.184425        1.000000        0.00907694
     279         -0.184152        1.000000        0.00235332
     280         -0.183069        1.000000        0.00166177
     281         -0.181202        1.000000        0.00129165
     282         -0.180816        1.000000        0.00203235
     283         -0.179524        1.000000        0.00178024
     284         -0.179339        1.000000        0.00093276
     285         -0.178766        1.000000        0.00119295
     286         -0.178433        1.000000        0.00089630
     287         -0.177635        1.000000        0.00072306
     288         -0.176891        1.000000        0.00098972
     289         -0.175869        1.000000        0.00087944
     290         -0.175673        1.000000        0.00099954
     291         -0.175100        1.000000        0.00118635
     292         -0.174542        1.000000        0.00192027
     293         -0.174157        1.000000        0.00095406
     294         -0.173717        1.000000        0.00140574
     295         -0.173075        1.000000        0.00105877
     296         -0.172369        1.000000        0.00084545
     297         -0.172205        1.000000        0.00087283
     298         -0.171601        1.000000        0.00081600
     299         -0.170629        1.000000        0.00074667
     300         -0.170335        1.000000        0.00118158
     301         -0.169799        1.000000        0.00128055
     302         -0.169141        1.000000        0.00116313
     303         -0.168733        1.000000        0.00085809
     304         -0.168420        1.000000        0.00115528
     305         -0.168005        1.000000        0.00115208
     306         -0.167741        1.000000        0.00063882
     307         -0.167407        1.000000        0.00091671
     308         -0.166081        1.000000        0.00085846
     309         -0.165864        1.000000        0.00071987
     310         -0.165729        1.000000        0.00084836
     311         -0.164973        1.000000        0.00101055
     312         -0.164799        1.000000        0.00063774
     313         -0.164600        1.000000        0.00118425
     314         -0.164360        1.000000        0.00112112
     315         -0.163567        1.000000        0.00198301
     316         -0.162914        1.000000        0.00082914
     317         -0.162818        1.000000        0.00004642
     318         -0.162511        1.000000        0.00105999
     319         -0.162286        1.000000        0.00119529
     320         -0.161519        1.000000        0.00100007
     321         -0.161257        1.000000        0.00068912
     322         -0.160538        1.000000        0.00053289
     323         -0.160314        1.000000        0.00072481
     324         -0.159771        1.000000        0.00075482
     325         -0.159672        1.000000        0.00045484
     326         -0.159112        1.000000        0.00048338
     327         -0.158563        1.000000        0.00065855
     328         -0.158328        1.000000        0.00059953
     329         -0.158212        1.000000        0.00026587
     330         -0.157931        1.000000        0.00004126
     331         -0.157556        1.000000        0.00095679
     332         -0.157199        1.000000        0.00044609
     333         -0.157057        1.000000        0.00024772
     334         -0.156499        1.000000        0.00042219
     335         -0.155723        1.000000        0.00059566
     336         -0.155162        1.000000        0.00040800
     337         -0.155007        1.000000        0.00055123
     338         -0.154373        1.000000        0.00077431
     339         -0.154340        1.000000        0.00058770
     340         -0.153787        1.000000        0.00090510
     341         -0.152538        1.000000        0.00054543
     342         -0.152304        1.000000        0.00055023
     343         -0.151487        1.000000        0.00015574
     344         -0.151383        1.000000        0.00037876
     345         -0.150876        1.000000        0.00104066
     346         -0.149618        1.000000        0.00020514
     347         -0.149548        1.000000        0.00028401
     348         -0.149066        1.000000        0.00047567
     349         -0.148122        1.000000        0.00026931
     350         -0.147132        1.000000        0.00032444
     351         -0.145048        1.000000        0.00031200
     352         -0.144852        0.000000        0.00039554
     353         -0.143672        0.000000        0.00037486
     354         -0.141062        0.000000        0.00036164
     355         -0.136763        0.000000        0.00059471
     356         -0.106099        0.000000        0.00222597
     357         -0.099257        0.000000        0.00513695
     358         -0.034111        0.000000        0.00049706
     359         -0.029040        0.000000        0.00038923
     360         -0.024146        0.000000        0.00082830
     361         -0.018439        0.000000        0.00063763
     362         -0.017862        0.000000        0.00050894
     363         -0.015769        0.000000        0.00042085
     364         -0.013033        0.000000        0.00052148
     365         -0.011138        0.000000        0.00049017
     366         -0.008483        0.000000        0.00056892
     367         -0.007231        0.000000        0.00084996
     368         -0.005073        0.000000        0.00051805
     369         -0.004439        0.000000        0.00051984
     370         -0.001121        0.000000        0.00079074
     371          0.000307        0.000000        0.00049554
     372          0.004863        0.000000        0.00052339
     373          0.006175        0.000000        0.00045737
     374          0.009806        0.000000        0.00106419
     375          0.012618        0.000000        0.00055126
     376          0.015043        0.000000        0.00065357
     377          0.016549        0.000000        0.00121711
     378          0.019948        0.000000        0.00028098
     379          0.024430        0.000000        0.00062031
     380          0.025615        0.000000        0.00089641
     381          0.027448        0.000000        0.00037515
     382          0.133801        0.000000        0.00495180
     383          0.144662        0.000000        0.00493771
     384          0.147697        0.000000        0.00431488
     385          0.177346        0.000000        0.00524937
     386          0.188828        0.000000        0.00593718
     387          0.197556        0.000000        0.00652342
     388          0.201845        0.000000        0.00603162
     389          0.283830        0.000000        0.68376082
     390          0.287239        0.000000        0.68822394
     391          0.295884        0.000000        0.68749661
     392          0.299503        0.000000        0.68152884
     393          0.300763        0.000000        0.67926963
     394          0.300788        0.000000        0.68160266
     395          0.300955        0.000000        0.68044338
     396          0.303478        0.000000        0.68905122
     397          0.303624        0.000000        0.68253417
     398          0.309184        0.000000        0.68023322
     399          0.311374        0.000000        0.67509147
     400          0.321858        0.000000        0.65897278
     401          0.325116        0.000000        0.67939280
     402          0.326278        0.000000        0.68292879
     403          0.327194        0.000000        0.66138157
     404          0.331621        0.000000        0.68372356
     405          0.332477        0.000000        0.66842799
     406          0.333401        0.000000        0.66405895
     407          0.335058        0.000000        0.66430593
     408          0.336397        0.000000        0.66762784
     409          0.341840        0.000000        0.66346107
     410          0.343936        0.000000        0.66579270
     411          0.344560        0.000000        0.66619636
     412          0.347830        0.000000        0.67394415
     413          0.351145        0.000000        0.67047577
     414          0.357176        0.000000        0.63422833
     415          0.360886        0.000000        0.66721575
     416          0.361347        0.000000        0.66160170
     417          0.365971        0.000000        0.66303331
     418          0.368115        0.000000        0.66172512
     419          0.368452        0.000000        0.66419553
     420          0.370719        0.000000        0.64822992
     421          0.373393        0.000000        0.65417305
     422          0.374417        0.000000        0.65715844
     423          0.378817        0.000000        0.66256762
     424          0.379716        0.000000        0.64837410
     425          0.381047        0.000000        0.65805437
     426          0.381132        0.000000        0.63533462
     427          0.381323        0.000000        0.66265456
     428          0.382448        0.000000        0.63611082
     429          0.382835        0.000000        0.65557092
     430          0.384545        0.000000        0.66314368
     431          0.385558        0.000000        0.65950337
     432          0.386387        0.000000        0.65217764
     433          0.386567        0.000000        0.64443522
     434          0.388610        0.000000        0.64272516
     435          0.389635        0.000000        0.64644620
     436          0.389785        0.000000        0.64014311
     437          0.390736        0.000000        0.66027772
     438          0.391569        0.000000        0.64744021
     439          0.391793        0.000000        0.64742350
     440          0.391821        0.000000        0.65292624
     441          0.393604        0.000000        0.64429681
     442          0.394356        0.000000        0.65806151
     443          0.396332        0.000000        0.64041747
     444          0.397504        0.000000        0.64839032
     445          0.398181        0.000000        0.65068866
     446          0.398441        0.000000        0.65470424
     447          0.400515        0.000000        0.65584400
     448          0.402884        0.000000        0.64515561
     449          0.405785        0.000000        0.64937570
     450          0.406580        0.000000        0.64603993
     451          0.407753        0.000000        0.64475881
     452          0.410057        0.000000        0.63183629
     453          0.410977        0.000000        0.64277920
     454          0.413443        0.000000        0.64456260
     455          0.415761        0.000000        0.65155160
     456          0.418258        0.000000        0.64477056
     457          0.419422        0.000000        0.64102759
     458          0.419557        0.000000        0.64701547
     459          0.424741        0.000000        0.64135402
     460          0.428070        0.000000        0.66397092
     461          0.440706        0.000000        0.64793192
     462          0.444100        0.000000        0.62867403
     463          0.444784        0.000000        0.64476755
     464          0.446214        0.000000        0.63004188
     465          0.450435        0.000000        0.64353182
     466          0.450748        0.000000        0.62863545
     467          0.451109        0.000000        0.65950747
     468          0.452858        0.000000        0.64850102
     469          0.453060        0.000000        0.63580910
     470          0.456879        0.000000        0.65212391
     471          0.457515        0.000000        0.66403640
     472          0.463805        0.000000        0.65009309
     473          0.464908        0.000000        0.65229403
     474          0.466107        0.000000        0.65614781
     475          0.466609        0.000000        0.65175293
     476          0.467942        0.000000        0.65460571
     477          0.470341        0.000000        0.65658081
     478          0.471874        0.000000        0.65326851
     479          0.476808        0.000000        0.64471120
     480          0.477342        0.000000        0.64654789
     481          0.485006        0.000000        0.66732272
     482          0.486032        0.000000        0.65205173
     483          0.494974        0.000000        0.65174739
     484          0.498852        0.000000        0.58533268
     485          0.502052        0.000000        0.64723611
     486          0.502569        0.000000        0.57964488
     487          0.503400        0.000000        0.58273854
     488          0.506217        0.000000        0.58218594
     489          0.508865        0.000000        0.66074809