# Projected DOS for atomic kind C at iteration step i = 0, E(Fermi) =    -0.145048 a.u.
#     MO Eigenvalue [a.u.]      Occupation                 s                py                pz                px
       1         -0.932605        1.000000        0.00002472        0.00000295        0.00000029        0.00002745
       2         -0.927662        1.000000        0.00000000        0.00000000        0.00000001        0.00000000
       3         -0.917441        1.000000        0.00000001        0.00000010        0.00000015        0.00000008
       4         -0.915157        1.000000        0.00002731        0.00000161        0.00001191        0.00001786
       5         -0.914290        1.000000        0.00002410        0.00002113        0.00000398        0.00000765
       6         -0.914275        1.000000        0.05811503        0.00310391        0.00447919        0.03593047
       7         -0.913614        1.000000        0.00000001        0.00000000        0.00000001        0.00000003
       8         -0.910413        1.000000        0.00004223        0.00006822        0.00000652        0.00018571
       9         -0.910075        1.000000        0.00000305        0.00000001        0.00000047        0.00000274
      10         -0.909810        1.000000        0.00000005        0.00000000        0.00000000        0.00000000
      11         -0.908270        1.000000        0.00000003        0.00000004        0.00000018        0.00000025
      12         -0.906459        1.000000        0.00000020        0.00000008        0.00000006        0.00000038
      13         -0.902555        1.000000        0.00000000        0.00000000        0.00000001        0.00000003
      14         -0.899691        1.000000        0.06244780        0.00000242        0.01072876        0.03370253
      15         -0.898778        1.000000        0.06430730        0.00000694        0.01756872        0.02731324
      16         -0.896288        1.000000        0.00000000        0.00000000        0.00000000        0.00000000
      17         -0.893826        1.000000        0.00001114        0.00000117        0.00000170        0.00000811
      18         -0.889260        1.000000        0.00488141        0.00011537        0.00000558        0.00385113
      19         -0.886917        1.000000        0.00014540        0.00000578        0.00007581        0.00005517
      20         -0.886034        1.000000        0.00000000        0.00000000        0.00000000        0.00000000
      21         -0.879705        1.000000        0.00196922        0.00007942        0.00019683        0.00132023
      22         -0.878832        1.000000        0.00000001        0.00000000        0.00000004        0.00000012
      23         -0.878157        1.000000        0.00000000        0.00000009        0.00000007        0.00000005
      24         -0.876584        1.000000        0.00000000        0.00000000        0.00000000        0.00000000
      25         -0.870908        1.000000        0.00897745        0.00001924        0.00314656        0.00355904
      26         -0.869383        1.000000        0.00001493        0.00002410        0.00005650        0.00010679
      27         -0.866704        1.000000        0.00409543        0.00013274        0.00031806        0.00260062
      28         -0.864614        1.000000        0.00000036        0.00000099        0.00002064        0.00000233
      29         -0.862350        1.000000        0.00000097        0.00000076        0.00000029        0.00000025
      30         -0.860249        1.000000        0.02067094        0.00118782        0.00166171        0.01144725
      31         -0.856545        1.000000        0.06684057        0.00030088        0.00028736        0.04119686
      32         -0.855167        1.000000        0.00000001        0.00000008        0.00000001        0.00000006
      33         -0.849987        1.000000        0.00000000        0.00000000        0.00000000        0.00000000
      34         -0.848264        1.000000        0.02854981        0.00051852        0.00134153        0.01632481
      35         -0.845102        1.000000        0.00000005        0.00000000        0.00000013        0.00000045
      36         -0.844363        1.000000        0.00000000        0.00000000        0.00000000        0.00000000
      37         -0.844072        1.000000        0.00000000        0.00000000        0.00000000        0.00000000
      38         -0.842918        1.000000        0.00009110        0.00000753        0.00000545        0.00004344
      39         -0.841130        1.000000        0.00000001        0.00000000        0.00000000        0.00000000
      40         -0.840718        1.000000        0.05118689        0.00356700        0.00327417        0.02343992
      41         -0.840308        1.000000        0.06905336        0.00010004        0.01978361        0.02057633
      42         -0.837308        1.000000        0.00000059        0.00000642        0.00000051        0.00000002
      43         -0.835470        1.000000        0.00000001        0.00000000        0.00000000        0.00000000
      44         -0.830495        1.000000        0.04804455        0.00050904        0.00132029        0.02459081
      45         -0.827265        1.000000        0.00000000        0.00000000        0.00000000        0.00000000
      46         -0.826297        1.000000        0.00000002        0.00000180        0.00000559        0.00000184
      47         -0.651901        1.000000        0.43994224        0.00006453        0.00009946        0.00061556
      48         -0.648168        1.000000        0.43808880        0.00001350        0.00067647        0.00126236
      49         -0.646546        1.000000        0.43708891        0.00000022        0.00032001        0.00135706
      50         -0.621137        1.000000        0.43637096        0.00000218        0.00007942        0.00460492
      51         -0.611521        1.000000        0.43347012        0.00075710        0.00059046        0.00438020
      52         -0.611467        1.000000        0.42046285        0.00013562        0.00304631        0.00385293
      53         -0.609278        1.000000        0.42700147        0.00018140        0.00011158        0.00753400
      54         -0.598505        1.000000        0.00899253        0.00004830        0.00002339        0.00002956
      55         -0.598137        1.000000        0.00012290        0.00052065        0.00001280        0.00001044
      56         -0.571531        1.000000        0.00030968        0.00040567        0.00003782        0.00028126
      57         -0.568832        1.000000        0.00035277        0.00027013        0.00183413        0.00037579
      58         -0.565124        1.000000        0.00024980        0.00026040        0.00018365        0.00008916
      59         -0.561571        1.000000        0.00013599        0.00017910        0.00070762        0.00016410
      60         -0.558534        1.000000        0.00028707        0.00270632        0.00255255        0.00130554
      61         -0.557188        1.000000        0.00039259        0.00195332        0.00157287        0.00055131
      62         -0.556475        1.000000        0.00031001        0.00147883        0.00038045        0.00024082
      63         -0.554972        1.000000        0.00039897        0.00058497        0.00104068        0.00020904
      64         -0.553901        1.000000        0.00039707        0.00100709        0.00094273        0.00048299
      65         -0.552222        1.000000        0.00004037        0.00093387        0.00064259        0.00006343
      66         -0.550249        1.000000        0.00013153        0.00169458        0.00049341        0.00021789
      67         -0.548401        1.000000        0.00025186        0.00095879        0.00027264        0.00009303
      68         -0.546773        1.000000        0.00015705        0.00305792        0.00081888        0.00021674
      69         -0.546079        1.000000        0.00008221        0.00303600        0.00099582        0.00030174
      70         -0.545669        1.000000        0.00003283        0.00059880        0.00006614        0.00001669
      71         -0.545135        1.000000        0.00022625        0.00029714        0.00011243        0.00003153
      72         -0.543508        1.000000        0.00012434        0.00410655        0.00125431        0.00040790
      73         -0.542755        1.000000        0.00003805        0.00082105        0.00025726        0.00012781
      74         -0.541878        1.000000        0.00030402        0.00238495        0.00039926        0.00014806
      75         -0.541284        1.000000        0.00076925        0.00027564        0.00060243        0.00019174
      76         -0.540325        1.000000        0.00005857        0.00004402        0.00021699        0.00000742
      77         -0.538746        1.000000        0.00009405        0.00021724        0.00340216        0.00173871
      78         -0.537925        1.000000        0.00008191        0.00024842        0.00198595        0.00058522
      79         -0.536613        1.000000        0.00001110        0.03101858        0.01893253        0.00011355
      80         -0.534595        1.000000        0.00008757        0.00093429        0.00080373        0.00022340
      81         -0.534316        1.000000        0.00010253        0.00328936        0.00109926        0.00022364
      82         -0.533771        1.000000        0.00043968        0.00120409        0.00030613        0.00010495
      83         -0.532650        1.000000        0.00011986        0.00061919        0.00157444        0.00069016
      84         -0.532398        1.000000        0.00008116        0.00036280        0.00103335        0.00044862
      85         -0.530795        1.000000        0.00008577        0.00011831        0.00037599        0.00009694
      86         -0.530630        1.000000        0.00010222        0.00164007        0.00065498        0.00002057
      87         -0.530471        1.000000        0.00025054        0.00065239        0.00023197        0.00016421
      88         -0.529946        1.000000        0.00003678        0.00130123        0.00054634        0.00035013
      89         -0.527676        1.000000        0.00024627        0.00349668        0.00719842        0.00156005
      90         -0.527531        1.000000        0.00021211        0.01017057        0.01935761        0.00409029
      91         -0.525483        1.000000        0.00025045        0.00035160        0.00021914        0.00016768
      92         -0.516776        1.000000        0.00004848        0.05678456        0.00080427        0.00032448
      93         -0.516763        1.000000        0.00019767        0.00112088        0.03613577        0.02439018
      94         -0.515422        1.000000        0.00005222        0.00019645        0.03950716        0.01985963
      95         -0.510486        1.000000        0.00007484        0.05660277        0.00100198        0.00025506
      96         -0.495356        1.000000        0.00001735        0.00005332        0.00006663        0.00003353
      97         -0.492689        1.000000        0.00000356        0.00000269        0.00000527        0.00000755
      98         -0.487356        1.000000        0.00000780        0.00117747        0.07093698        0.00030504
      99         -0.484724        1.000000        0.00000727        0.06840770        0.00020881        0.00086419
     100         -0.481290        1.000000        0.00004617        0.00030502        0.06629293        0.00874304
     101         -0.480892        1.000000        0.00000013        0.00000047        0.00000028        0.00000059
     102         -0.478734        1.000000        0.00000332        0.00163790        0.00826456        0.00755328
     103         -0.477561        1.000000        0.00000030        0.00000244        0.00000190        0.00000242
     104         -0.476057        1.000000        0.00001300        0.00008766        0.00002400        0.00001107
     105         -0.475919        1.000000        0.00000516        0.00190109        0.03228954        0.03073205
     106         -0.474294        1.000000        0.00000002        0.00000030        0.00000055        0.00000102
     107         -0.473440        1.000000        0.00000352        0.07425943        0.00915722        0.00037236
     108         -0.472503        1.000000        0.00000061        0.00110487        0.00017221        0.00165439
     109         -0.471986        1.000000        0.00000043        0.00002050        0.00000496        0.00000270
     110         -0.471824        1.000000        0.00000943        0.06092498        0.00165626        0.00601441
     111         -0.470493        1.000000        0.00015347        0.06434970        0.00099978        0.00417896
     112         -0.469975        1.000000        0.00000048        0.00026097        0.00019895        0.00000411
     113         -0.469853        1.000000        0.00000068        0.00008143        0.00000552        0.00000876
     114         -0.469585        1.000000        0.00000070        0.00060294        0.00005257        0.00005169
     115         -0.468894        1.000000        0.00000372        0.00006399        0.00002707        0.00002468
     116         -0.466359        1.000000        0.00008101        0.00018218        0.00207511        0.00011032
     117         -0.461797        1.000000        0.00028661        0.00542061        0.07552742        0.00374450
     118         -0.455775        1.000000        0.00000085        0.00000592        0.00000606        0.00000123
     119         -0.455663        1.000000        0.00000024        0.00000010        0.00000145        0.00000173
     120         -0.454679        1.000000        0.00003726        0.00795356        0.00136064        0.00027337
     121         -0.454538        1.000000        0.00000008        0.00000019        0.00000219        0.00000151
     122         -0.453018        1.000000        0.00000181        0.00000292        0.00073016        0.00002499
     123         -0.451525        1.000000        0.00000861        0.00014314        0.00006868        0.00005654
     124         -0.445586        1.000000        0.00000020        0.00096136        0.00008941        0.00000142
     125         -0.444537        1.000000        0.00000010        0.00000017        0.00000148        0.00000252
     126         -0.442922        1.000000        0.00205663        0.00613720        0.00104631        0.04083369
     127         -0.440297        1.000000        0.00046118        0.00174484        0.00179273        0.00254261
     128         -0.439308        1.000000        0.00007961        0.00013068        0.00415199        0.00115569
     129         -0.434833        1.000000        0.00014235        0.00011201        0.00057139        0.00132192
     130         -0.434677        1.000000        0.00008722        0.00015724        0.00024407        0.00030650
     131         -0.433578        1.000000        0.00000414        0.00001247        0.00001278        0.00006616
     132         -0.433294        1.000000        0.00136332        0.00124224        0.00346350        0.01120657
     133         -0.431969        1.000000        0.00096049        0.00024439        0.00248425        0.01044133
     134         -0.431189        1.000000        0.02210509        0.01533216        0.03064304        0.20850478
     135         -0.428463        1.000000        0.00001217        0.00046660        0.00007371        0.00012914
     136         -0.428099        1.000000        0.00549721        0.00071510        0.02506600        0.05968800
     137         -0.427708        1.000000        0.01856632        0.00018995        0.10636729        0.17500133
     138         -0.426632        1.000000        0.00019289        0.00000366        0.00086848        0.00206193
     139         -0.425956        1.000000        0.01466768        0.00002527        0.05147661        0.16206955
     140         -0.424994        1.000000        0.00619683        0.00022707        0.02376698        0.06952787
     141         -0.422540        1.000000        0.00034981        0.00023170        0.00260161        0.00329060
     142         -0.416133        1.000000        0.00011324        0.00016487        0.00079704        0.00145615
     143         -0.414235        1.000000        0.00027158        0.00011979        0.00160775        0.00340662
     144         -0.412735        1.000000        0.00000585        0.00001634        0.00000841        0.00009307
     145         -0.411493        1.000000        0.00034911        0.00015771        0.00269839        0.00243365
     146         -0.411264        1.000000        0.00073718        0.00016979        0.00626218        0.00180437
     147         -0.408673        1.000000        0.00000000        0.00000001        0.00000004        0.00000001
     148         -0.406398        1.000000        0.00000336        0.00000971        0.00001097        0.00006433
     149         -0.403693        1.000000        0.00020922        0.00000433        0.00098668        0.00385104
     150         -0.402995        1.000000        0.00000000        0.00000002        0.00000001        0.00000008
     151         -0.401760        1.000000        0.00000019        0.00000054        0.00000025        0.00000370
     152         -0.400384        1.000000        0.01494201        0.01511144        0.00014897        0.32564633
     153         -0.395845        1.000000        0.00000176        0.00000830        0.00000045        0.00005856
     154         -0.394768        1.000000        0.00000888        0.00005522        0.00004100        0.00023049
     155         -0.389756        1.000000        0.01091541        0.00545417        0.07857587        0.21502976
     156         -0.389654        1.000000        0.01085609        0.00578315        0.07440795        0.21552955
     157         -0.388105        1.000000        0.00349994        0.00084050        0.04091955        0.04886994
     158         -0.386251        1.000000        0.01106417        0.01980027        0.03927480        0.28788921
     159         -0.368551        1.000000        0.00004312        0.00132260        0.45197503        0.06906766
     160         -0.366416        1.000000        0.00000027        0.49772980        0.01002824        0.02974445
     161         -0.365575        1.000000        0.00003484        0.45556407        0.04243703        0.02444433
     162         -0.365106        1.000000        0.00000248        0.52204649        0.00110043        0.00039368
     163         -0.363706        1.000000        0.00002452        0.06769198        0.28467963        0.17203243
     164         -0.362154        1.000000        0.00001697        0.00167288        0.40190374        0.12290335
     165         -0.353237        1.000000        0.00005838        0.28240297        0.07842888        0.01852137
     166         -0.345981        1.000000        0.00015567        0.39631337        0.01050315        0.00212352
     167         -0.342525        1.000000        0.00006121        0.43271195        0.01666681        0.00010531
     168         -0.342062        1.000000        0.00002001        0.06652064        0.30840178        0.07644328
     169         -0.342010        1.000000        0.00000694        0.09750441        0.39544452        0.01521505
     170         -0.334294        1.000000        0.00004191        0.00999821        0.24806155        0.20950814
     171         -0.333104        1.000000        0.00000134        0.00084907        0.01853190        0.01693460
     172         -0.332616        1.000000        0.00000025        0.00518102        0.43663118        0.07141813
     173         -0.332119        1.000000        0.00000905        0.13731807        0.03388672        0.00063779
     174         -0.331914        1.000000        0.00002135        0.26511852        0.06496029        0.00127337
     175         -0.327804        1.000000        0.00001985        0.10071932        0.02907146        0.00000440
     176         -0.321936        1.000000        0.00000246        0.06436030        0.00041916        0.00788062
     177         -0.315582        1.000000        0.00000719        0.00001758        0.00036426        0.00008948
     178         -0.314730        1.000000        0.00000043        0.00000960        0.00001523        0.00000556
     179         -0.312706        1.000000        0.00000594        0.00027308        0.00009465        0.00002992
     180         -0.309865        1.000000        0.00000743        0.04148333        0.00000022        0.00227374
     181         -0.308795        1.000000        0.00006524        0.00158729        0.00026089        0.00142361
     182         -0.305955        1.000000        0.00000901        0.01037174        0.02518137        0.00114165
     183         -0.303494        1.000000        0.00000044        0.00002952        0.00001391        0.00000064
     184         -0.296092        1.000000        0.00000018        0.00000033        0.00000740        0.00000011
     185         -0.291938        1.000000        0.00003016        0.00031425        0.00010364        0.00009901
     186         -0.291508        1.000000        0.00000389        0.00000441        0.00000281        0.00000409
     187         -0.287295        1.000000        0.00000007        0.00000808        0.00001262        0.00001038
     188         -0.283551        1.000000        0.00000063        0.02336333        0.00228078        0.00881441
     189         -0.275138        1.000000        0.00000160        0.00006805        0.00001767        0.00005188
     190         -0.270435        1.000000        0.00000455        0.00559112        0.01762042        0.00000355
     191         -0.268166        1.000000        0.00004453        0.00016641        0.00054175        0.00005521
     192         -0.267437        1.000000        0.00000151        0.00028947        0.00002138        0.00000011
     193         -0.265555        1.000000        0.00000035        0.01914789        0.00392893        0.00380340
     194         -0.265375        1.000000        0.00001835        0.00002988        0.00004603        0.00009752
     195         -0.261579        1.000000        0.00000728        0.00003883        0.00005594        0.00001175
     196         -0.260466        1.000000        0.00000098        0.00000434        0.00000546        0.00000170
     197         -0.255402        1.000000        0.00005773        0.00043018        0.00039793        0.00007563
     198         -0.253204        1.000000        0.00000005        0.00103929        0.00012022        0.00039756
     199         -0.251631        1.000000        0.00001105        0.00156533        0.00035854        0.00068962
     200         -0.250444        1.000000        0.00003050        0.00137462        0.00019382        0.00097292
     201         -0.249424        1.000000        0.00002179        0.00259572        0.00022920        0.00112221
     202         -0.248381        1.000000        0.00002938        0.00034638        0.00004809        0.00001308
     203         -0.246026        1.000000        0.00004332        0.00335107        0.00043138        0.00063834
     204         -0.245125        1.000000        0.00001721        0.01142965        0.00063797        0.00301120
     205         -0.244032        1.000000        0.00003005        0.00096510        0.00011889        0.00022815
     206         -0.243659        1.000000        0.00006265        0.00009628        0.00008549        0.00002825
     207         -0.241125        1.000000        0.00004121        0.00037830        0.00025886        0.00024044
     208         -0.240461        1.000000        0.00004596        0.00015519        0.00008199        0.00011860
     209         -0.238862        1.000000        0.00000186        0.00001915        0.00000686        0.00000980
     210         -0.237557        1.000000        0.00000524        0.00050266        0.00009578        0.00022787
     211         -0.236983        1.000000        0.00002743        0.00023625        0.00017462        0.00033223
     212         -0.236478        1.000000        0.00002218        0.00074139        0.00022065        0.00099456
     213         -0.236400        1.000000        0.00002936        0.00072201        0.00022539        0.00055319
     214         -0.236027        1.000000        0.00002518        0.00055905        0.00018145        0.00034957
     215         -0.235997        1.000000        0.00011712        0.00036719        0.00014412        0.00001796
     216         -0.235557        1.000000        0.00002535        0.00072798        0.00014705        0.00041109
     217         -0.235423        1.000000        0.00005114        0.00031176        0.00005364        0.00006521
     218         -0.234335        1.000000        0.00002533        0.00068308        0.00006940        0.00012124
     219         -0.233559        1.000000        0.00007589        0.00086466        0.00009748        0.00022194
     220         -0.232393        1.000000        0.00003629        0.00003922        0.00009891        0.00004724
     221         -0.232020        1.000000        0.00001544        0.00013202        0.00009363        0.00009011
     222         -0.230629        1.000000        0.00001765        0.00017866        0.00016784        0.00006364
     223         -0.230379        1.000000        0.00001730        0.00035207        0.00050137        0.00007295
     224         -0.229722        1.000000        0.00003054        0.00020059        0.00018029        0.00008407
     225         -0.229250        1.000000        0.00001853        0.00149938        0.00346595        0.00017516
     226         -0.227883        1.000000        0.00002384        0.00009133        0.00013268        0.00003762
     227         -0.227127        1.000000        0.00005424        0.00012936        0.00054300        0.00008466
     228         -0.225536        1.000000        0.00014420        0.00094159        0.00030767        0.00205995
     229         -0.224674        1.000000        0.00006763        0.00153901        0.00061407        0.00208477
     230         -0.223333        1.000000        0.00009627        0.00096668        0.00035244        0.00087466
     231         -0.222037        1.000000        0.00000930        0.00040483        0.00069994        0.00007818
     232         -0.221582        1.000000        0.00003173        0.00060896        0.00005827        0.00083653
     233         -0.221581        1.000000        0.00000347        0.00006620        0.00001085        0.00008290
     234         -0.221186        1.000000        0.00009891        0.00036267        0.00018765        0.00015102
     235         -0.220041        1.000000        0.00008665        0.00023069        0.00024350        0.00019732
     236         -0.218621        1.000000        0.00002928        0.00005269        0.00003581        0.00006056
     237         -0.218471        1.000000        0.00008520        0.00006476        0.00015078        0.00012346
     238         -0.216732        1.000000        0.00004250        0.00011417        0.00019194        0.00009433
     239         -0.216065        1.000000        0.00006647        0.00032025        0.00011391        0.00025730
     240         -0.215507        1.000000        0.00000286        0.00001758        0.00001383        0.00000772
     241         -0.215223        1.000000        0.00007152        0.00007719        0.00012972        0.00025116
     242         -0.215158        1.000000        0.00011526        0.00047744        0.00005656        0.00023621
     243         -0.213958        1.000000        0.00002690        0.00002919        0.00023614        0.00013867
     244         -0.212301        1.000000        0.00004897        0.00011879        0.00010620        0.00004604
     245         -0.210936        1.000000        0.00009162        0.00010324        0.00007457        0.00013162
     246         -0.210421        1.000000        0.00001248        0.00003723        0.00001830        0.00002173
     247         -0.210241        1.000000        0.00028432        0.00031411        0.00004593        0.00037239
     248         -0.208243        1.000000        0.00019480        0.00054773        0.00019851        0.00018385
     249         -0.207943        1.000000        0.00006739        0.00052356        0.00188874        0.00066006
     250         -0.206836        1.000000        0.00003762        0.00027662        0.00073742        0.00008474
     251         -0.206634        1.000000        0.00054238        0.00104301        0.00026851        0.00027275
     252         -0.206286        1.000000        0.00020030        0.00017253        0.00099538        0.00016403
     253         -0.205096        1.000000        0.00009794        0.00025323        0.00015182        0.00018953
     254         -0.204774        1.000000        0.00007556        0.00023701        0.00025446        0.00006846
     255         -0.203931        1.000000        0.00002288        0.00017068        0.00005026        0.00006756
     256         -0.203899        1.000000        0.00009577        0.00024111        0.00006038        0.00002925
     257         -0.202568        1.000000        0.00002849        0.00012113        0.00024434        0.00012098
     258         -0.200354        1.000000        0.00016196        0.00017664        0.00078421        0.00259582
     259         -0.199934        1.000000        0.00027211        0.00009511        0.00027130        0.00045909