# Projected DOS for atomic kind C at iteration step i = 0, E(Fermi) =    -0.147204 a.u.
#     MO Eigenvalue [a.u.]      Occupation                 s                py                pz                px
       1         -0.932601        1.000000        0.00002472        0.00000295        0.00000029        0.00002745
       2         -0.927664        1.000000        0.00000000        0.00000000        0.00000001        0.00000000
       3         -0.917399        1.000000        0.00000001        0.00000010        0.00000014        0.00000007
       4         -0.915157        1.000000        0.00002732        0.00000161        0.00001192        0.00001787
       5         -0.914287        1.000000        0.00002309        0.00002107        0.00000390        0.00000703
       6         -0.914271        1.000000        0.05811734        0.00310396        0.00447920        0.03593313
       7         -0.913618        1.000000        0.00000001        0.00000000        0.00000001        0.00000003
       8         -0.910380        1.000000        0.00004131        0.00006796        0.00000642        0.00018425
       9         -0.910074        1.000000        0.00000307        0.00000001        0.00000047        0.00000276
      10         -0.909818        1.000000        0.00000005        0.00000000        0.00000000        0.00000000
      11         -0.908270        1.000000        0.00000003        0.00000004        0.00000018        0.00000025
      12         -0.906450        1.000000        0.00000020        0.00000008        0.00000006        0.00000038
      13         -0.902559        1.000000        0.00000000        0.00000000        0.00000001        0.00000003
      14         -0.899685        1.000000        0.06244549        0.00000242        0.01072858        0.03370121
      15         -0.898768        1.000000        0.06430839        0.00000695        0.01756878        0.02731337
      16         -0.896304        1.000000        0.00000000        0.00000000        0.00000000        0.00000000
      17         -0.893825        1.000000        0.00001115        0.00000117        0.00000170        0.00000811
      18         -0.889254        1.000000        0.00488229        0.00011539        0.00000558        0.00385159
      19         -0.886911        1.000000        0.00014564        0.00000579        0.00007592        0.00005527
      20         -0.885845        1.000000        0.00000000        0.00000000        0.00000000        0.00000000
      21         -0.879739        1.000000        0.00197587        0.00007967        0.00019757        0.00132508
      22         -0.878850        1.000000        0.00000001        0.00000000        0.00000004        0.00000013
      23         -0.878192        1.000000        0.00000000        0.00000009        0.00000007        0.00000005
      24         -0.876584        1.000000        0.00000000        0.00000000        0.00000000        0.00000000
      25         -0.870920        1.000000        0.00896292        0.00001925        0.00314179        0.00355373
      26         -0.869373        1.000000        0.00001493        0.00002410        0.00005650        0.00010677
      27         -0.866703        1.000000        0.00409683        0.00013277        0.00031809        0.00260155
      28         -0.864538        1.000000        0.00000035        0.00000100        0.00002047        0.00000232
      29         -0.860287        1.000000        0.02052970        0.00117932        0.00165118        0.01137338
      30         -0.860056        1.000000        0.00000191        0.00000081        0.00000032        0.00000004
      31         -0.856540        1.000000        0.06684306        0.00030091        0.00028742        0.04119666
      32         -0.855185        1.000000        0.00000001        0.00000008        0.00000001        0.00000006
      33         -0.849988        1.000000        0.00000000        0.00000000        0.00000000        0.00000000
      34         -0.848266        1.000000        0.02856851        0.00051882        0.00134209        0.01633609
      35         -0.845173        1.000000        0.00000005        0.00000000        0.00000013        0.00000044
      36         -0.844364        1.000000        0.00000000        0.00000000        0.00000000        0.00000000
      37         -0.844057        1.000000        0.00000000        0.00000000        0.00000000        0.00000000
      38         -0.842460        1.000000        0.00015788        0.00001254        0.00000961        0.00007462
      39         -0.841009        1.000000        0.00000001        0.00000000        0.00000000        0.00000000
      40         -0.840749        1.000000        0.05125046        0.00357011        0.00327995        0.02347722
      41         -0.840304        1.000000        0.06907048        0.00010002        0.01978876        0.02058087
      42         -0.837257        1.000000        0.00000059        0.00000641        0.00000052        0.00000002
      43         -0.837131        1.000000        0.00000002        0.00000000        0.00000000        0.00000000
      44         -0.830499        1.000000        0.04801914        0.00050874        0.00131919        0.02457894
      45         -0.827251        1.000000        0.00000000        0.00000000        0.00000000        0.00000000
      46         -0.825005        1.000000        0.00000002        0.00000178        0.00000575        0.00000191
      47         -0.651897        1.000000        0.43994589        0.00006473        0.00009959        0.00061547
      48         -0.648160        1.000000        0.43808906        0.00001355        0.00067666        0.00126226
      49         -0.646541        1.000000        0.43711566        0.00000022        0.00032010        0.00135676
      50         -0.621140        1.000000        0.43637204        0.00000215        0.00007927        0.00460778
      51         -0.611515        1.000000        0.43362343        0.00076359        0.00056640        0.00438334
      52         -0.611438        1.000000        0.42177508        0.00013173        0.00307840        0.00383822
      53         -0.609278        1.000000        0.42700805        0.00018116        0.00011165        0.00753143
      54         -0.598164        1.000000        0.00010547        0.00053043        0.00001475        0.00000958
      55         -0.597766        1.000000        0.00754500        0.00002964        0.00001470        0.00003380
      56         -0.570013        1.000000        0.00024518        0.00057815        0.00036928        0.00048229
      57         -0.567667        1.000000        0.00039205        0.00011663        0.00174136        0.00024990
      58         -0.563300        1.000000        0.00024374        0.00040335        0.00020510        0.00009393
      59         -0.560081        1.000000        0.00017521        0.00030216        0.00100665        0.00024182
      60         -0.558359        1.000000        0.00025691        0.00278863        0.00212000        0.00119587
      61         -0.556976        1.000000        0.00039300        0.00184603        0.00162195        0.00056761
      62         -0.556070        1.000000        0.00037913        0.00137340        0.00032978        0.00020398
      63         -0.554165        1.000000        0.00033339        0.00113216        0.00120970        0.00027520
      64         -0.553688        1.000000        0.00035631        0.00091643        0.00080025        0.00039912
      65         -0.551180        1.000000        0.00006806        0.00089412        0.00073621        0.00004489
      66         -0.549893        1.000000        0.00012144        0.00164524        0.00044910        0.00024426
      67         -0.547784        1.000000        0.00028454        0.00108108        0.00042827        0.00008980
      68         -0.546127        1.000000        0.00008159        0.00468845        0.00115993        0.00038953
      69         -0.545527        1.000000        0.00017149        0.00171357        0.00035125        0.00010263
      70         -0.545120        1.000000        0.00020907        0.00042091        0.00016549        0.00005551
      71         -0.544052        1.000000        0.00002131        0.00065149        0.00016447        0.00001722
      72         -0.543255        1.000000        0.00009599        0.00400436        0.00141851        0.00035926
      73         -0.541492        1.000000        0.00036425        0.00247631        0.00029273        0.00013492
      74         -0.541047        1.000000        0.00076248        0.00010012        0.00048181        0.00040926
      75         -0.538704        1.000000        0.00008766        0.00009471        0.00151574        0.00066579
      76         -0.538480        1.000000        0.00007210        0.00012510        0.00234441        0.00130256
      77         -0.538359        1.000000        0.00004312        0.00008119        0.00051540        0.00005198
      78         -0.536829        1.000000        0.00004074        0.00049904        0.00235577        0.00056263
      79         -0.536566        1.000000        0.00001206        0.03101437        0.01874060        0.00011769
      80         -0.534539        1.000000        0.00010527        0.00324425        0.00175562        0.00028988
      81         -0.534011        1.000000        0.00027994        0.00172597        0.00062802        0.00013586
      82         -0.533515        1.000000        0.00026328        0.00015520        0.00008217        0.00018311
      83         -0.532510        1.000000        0.00003000        0.00061586        0.00022030        0.00011886
      84         -0.532063        1.000000        0.00014700        0.00039981        0.00207728        0.00095576
      85         -0.530632        1.000000        0.00012537        0.00012865        0.00055346        0.00009297
      86         -0.530478        1.000000        0.00009267        0.00183387        0.00044441        0.00001829
      87         -0.529789        1.000000        0.00020164        0.00071793        0.00020725        0.00019510
      88         -0.529542        1.000000        0.00004160        0.00105705        0.00056755        0.00034550
      89         -0.527806        1.000000        0.00027360        0.00060704        0.00194810        0.00044346
      90         -0.527426        1.000000        0.00019639        0.01267683        0.02401755        0.00506434
      91         -0.525596        1.000000        0.00025391        0.00038671        0.00027625        0.00018113
      92         -0.516804        1.000000        0.00005558        0.05560572        0.00145802        0.00114446
      93         -0.516735        1.000000        0.00019345        0.00246860        0.03520161        0.02358649
      94         -0.515385        1.000000        0.00005036        0.00022002        0.03954165        0.01964880
      95         -0.510503        1.000000        0.00007084        0.05664426        0.00108908        0.00030754
      96         -0.495347        1.000000        0.00001747        0.00005252        0.00006445        0.00003357
      97         -0.492672        1.000000        0.00000360        0.00000276        0.00000531        0.00000763
      98         -0.487358        1.000000        0.00000774        0.00116154        0.07096354        0.00030510
      99         -0.484721        1.000000        0.00000723        0.06844253        0.00020207        0.00086559
     100         -0.481282        1.000000        0.00004606        0.00030553        0.06626951        0.00874201
     101         -0.480864        1.000000        0.00000012        0.00000047        0.00000028        0.00000059
     102         -0.478723        1.000000        0.00000332        0.00163504        0.00823531        0.00752715
     103         -0.477550        1.000000        0.00000031        0.00000248        0.00000188        0.00000243
     104         -0.476059        1.000000        0.00001294        0.00008688        0.00002262        0.00000970
     105         -0.475910        1.000000        0.00000516        0.00190187        0.03231978        0.03076360
     106         -0.474289        1.000000        0.00000002        0.00000031        0.00000054        0.00000105
     107         -0.473439        1.000000        0.00000360        0.07422559        0.00915443        0.00037293
     108         -0.472459        1.000000        0.00000058        0.00110385        0.00017103        0.00165685
     109         -0.471999        1.000000        0.00000043        0.00001863        0.00000492        0.00000253
     110         -0.471829        1.000000        0.00000937        0.06091119        0.00165893        0.00600606
     111         -0.470481        1.000000        0.00015337        0.06434727        0.00099872        0.00417463
     112         -0.469965        1.000000        0.00000048        0.00025257        0.00019736        0.00000419
     113         -0.469843        1.000000        0.00000068        0.00008234        0.00000556        0.00000884
     114         -0.469584        1.000000        0.00000071        0.00059978        0.00005252        0.00005127
     115         -0.468896        1.000000        0.00000372        0.00006399        0.00002706        0.00002469
     116         -0.466355        1.000000        0.00008099        0.00018218        0.00207470        0.00011029
     117         -0.461796        1.000000        0.00028681        0.00542066        0.07550878        0.00374424
     118         -0.455765        1.000000        0.00000086        0.00000596        0.00000609        0.00000124
     119         -0.455671        1.000000        0.00000023        0.00000010        0.00000145        0.00000173
     120         -0.454673        1.000000        0.00003727        0.00796292        0.00136123        0.00027371
     121         -0.454550        1.000000        0.00000008        0.00000019        0.00000219        0.00000150
     122         -0.453021        1.000000        0.00000181        0.00000287        0.00072813        0.00002489
     123         -0.451525        1.000000        0.00000866        0.00014358        0.00006902        0.00005677
     124         -0.445580        1.000000        0.00000020        0.00096194        0.00008943        0.00000142
     125         -0.444478        1.000000        0.00000010        0.00000017        0.00000139        0.00000234
     126         -0.442913        1.000000        0.00205945        0.00614309        0.00104844        0.04087062
     127         -0.440331        1.000000        0.00046088        0.00174507        0.00179214        0.00253751
     128         -0.439302        1.000000        0.00007934        0.00013067        0.00414940        0.00115318
     129         -0.434825        1.000000        0.00014136        0.00011195        0.00056732        0.00131269
     130         -0.434677        1.000000        0.00008722        0.00015723        0.00024404        0.00030638
     131         -0.433154        1.000000        0.00153481        0.00136159        0.00378347        0.01272564
     132         -0.432881        1.000000        0.00000093        0.00000836        0.00000698        0.00003982
     133         -0.431256        1.000000        0.01972992        0.01242590        0.02896206        0.18874600
     134         -0.430707        1.000000        0.00366043        0.00336697        0.00463263        0.03321989
     135         -0.428462        1.000000        0.00000871        0.00046650        0.00005929        0.00008810
     136         -0.427734        1.000000        0.02037044        0.00017404        0.11771085        0.19256598
     137         -0.426930        1.000000        0.01068516        0.00032313        0.04217478        0.12297148
     138         -0.426619        1.000000        0.00023675        0.00000975        0.00093973        0.00277540
     139         -0.425452        1.000000        0.00808798        0.00008172        0.02626120        0.08663953
     140         -0.424772        1.000000        0.00526247        0.00024001        0.01975678        0.05910265
     141         -0.422355        1.000000        0.00033734        0.00023681        0.00251280        0.00317410
     142         -0.415794        1.000000        0.00013812        0.00016698        0.00103482        0.00159460
     143         -0.414198        1.000000        0.00023967        0.00011461        0.00139365        0.00306045
     144         -0.412600        1.000000        0.00000591        0.00001641        0.00000823        0.00009407
     145         -0.411428        1.000000        0.00045472        0.00016873        0.00383540        0.00225320
     146         -0.411226        1.000000        0.00063797        0.00016245        0.00515537        0.00210415
     147         -0.408676        1.000000        0.00000000        0.00000001        0.00000004        0.00000001
     148         -0.406736        1.000000        0.00000374        0.00001057        0.00001246        0.00007067
     149         -0.403502        1.000000        0.00020750        0.00000443        0.00101226        0.00385625
     150         -0.402987        1.000000        0.00000000        0.00000002        0.00000001        0.00000008
     151         -0.401760        1.000000        0.00000021        0.00000058        0.00000026        0.00000427
     152         -0.400387        1.000000        0.01493920        0.01510765        0.00014921        0.32569178
     153         -0.395709        1.000000        0.00000171        0.00000826        0.00000047        0.00005766
     154         -0.394701        1.000000        0.00000869        0.00005489        0.00004113        0.00022622
     155         -0.389757        1.000000        0.01074491        0.00524191        0.07971614        0.21024000
     156         -0.389654        1.000000        0.01091385        0.00595263        0.07185970        0.21850531
     157         -0.388132        1.000000        0.00361600        0.00086907        0.04234669        0.05063579
     158         -0.386249        1.000000        0.01106613        0.01979598        0.03927076        0.28788286
     159         -0.368548        1.000000        0.00004319        0.00131115        0.45199482        0.06904860
     160         -0.366408        1.000000        0.00000026        0.49774281        0.00999909        0.02977149
     161         -0.365566        1.000000        0.00003509        0.45506389        0.04274491        0.02462449
     162         -0.365096        1.000000        0.00000252        0.52203789        0.00111303        0.00039704
     163         -0.363699        1.000000        0.00002436        0.06819457        0.28433948        0.17183641
     164         -0.362148        1.000000        0.00001696        0.00169076        0.40189559        0.12290415
     165         -0.353240        1.000000        0.00005818        0.28253088        0.07837758        0.01852092
     166         -0.345984        1.000000        0.00015567        0.39619672        0.01045900        0.00212062
     167         -0.342519        1.000000        0.00006084        0.43275830        0.01660459        0.00010644
     168         -0.342061        1.000000        0.00001959        0.06745609        0.31094251        0.07462807
     169         -0.342014        1.000000        0.00000729        0.09648492        0.39300946        0.01701224
     170         -0.334285        1.000000        0.00004166        0.00991953        0.24800595        0.20944973
     171         -0.333105        1.000000        0.00000131        0.00085843        0.01866424        0.01705015
     172         -0.332611        1.000000        0.00000025        0.00516327        0.43666217        0.07142152
     173         -0.332134        1.000000        0.00000772        0.11623645        0.02869486        0.00054246
     174         -0.331920        1.000000        0.00002260        0.28624825        0.07011868        0.00137178
     175         -0.327802        1.000000        0.00001991        0.10067368        0.02907174        0.00000443
     176         -0.321941        1.000000        0.00000247        0.06449308        0.00042307        0.00788737
     177         -0.315533        1.000000        0.00000717        0.00001749        0.00036487        0.00008962
     178         -0.314688        1.000000        0.00000044        0.00000971        0.00001570        0.00000573
     179         -0.312353        1.000000        0.00000586        0.00026279        0.00009205        0.00002916
     180         -0.309858        1.000000        0.00000656        0.04180972        0.00000042        0.00234683
     181         -0.308708        1.000000        0.00006580        0.00129251        0.00026246        0.00136007
     182         -0.305956        1.000000        0.00000901        0.01037509        0.02518492        0.00114197
     183         -0.303496        1.000000        0.00000043        0.00002950        0.00001393        0.00000063
     184         -0.296031        1.000000        0.00000017        0.00000032        0.00000732        0.00000011
     185         -0.291957        1.000000        0.00003000        0.00031309        0.00010319        0.00009849
     186         -0.291516        1.000000        0.00000391        0.00000437        0.00000278        0.00000422
     187         -0.287501        1.000000        0.00000007        0.00000792        0.00001240        0.00001022
     188         -0.283565        1.000000        0.00000063        0.02340549        0.00228635        0.00882212
     189         -0.275133        1.000000        0.00000160        0.00006787        0.00001775        0.00005199
     190         -0.270440        1.000000        0.00000454        0.00559071        0.01761734        0.00000354
     191         -0.268117        1.000000        0.00004478        0.00016681        0.00054038        0.00005495
     192         -0.267425        1.000000        0.00000140        0.00028927        0.00002038        0.00000012
     193         -0.265546        1.000000        0.00000033        0.01918482        0.00393637        0.00380694
     194         -0.265281        1.000000        0.00001682        0.00002199        0.00004037        0.00008718
     195         -0.261404        1.000000        0.00000736        0.00003927        0.00005633        0.00001178
     196         -0.260278        1.000000        0.00000067        0.00000359        0.00000292        0.00000146
     197         -0.253534        1.000000        0.00005221        0.00089525        0.00047670        0.00002332
     198         -0.253198        1.000000        0.00000031        0.00108046        0.00012783        0.00039878
     199         -0.251214        1.000000        0.00001485        0.00209504        0.00037578        0.00110074
     200         -0.250226        1.000000        0.00002830        0.00043545        0.00010055        0.00042318
     201         -0.248409        1.000000        0.00003077        0.00330699        0.00029913        0.00135309
     202         -0.247399        1.000000        0.00001128        0.00093108        0.00007601        0.00039135
     203         -0.245442        1.000000        0.00006462        0.00410938        0.00042779        0.00063569
     204         -0.245006        1.000000        0.00002044        0.00955022        0.00051442        0.00271394
     205         -0.243288        1.000000        0.00002538        0.00081469        0.00012888        0.00013199
     206         -0.242185        1.000000        0.00006202        0.00017535        0.00011586        0.00007036
     207         -0.240327        1.000000        0.00004255        0.00021277        0.00021506        0.00021174
     208         -0.239640        1.000000        0.00003680        0.00012129        0.00005421        0.00009037
     209         -0.238620        1.000000        0.00000480        0.00002874        0.00000750        0.00001838
     210         -0.237395        1.000000        0.00000324        0.00038088        0.00012620        0.00019656
     211         -0.236718        1.000000        0.00002614        0.00104745        0.00029754        0.00123485
     212         -0.236343        1.000000        0.00002146        0.00056504        0.00021880        0.00058712
     213         -0.236028        1.000000        0.00002502        0.00023363        0.00008621        0.00023911
     214         -0.235925        1.000000        0.00012545        0.00045122        0.00016528        0.00004218
     215         -0.235747        1.000000        0.00002270        0.00051469        0.00017229        0.00014429
     216         -0.235461        1.000000        0.00001412        0.00068459        0.00016177        0.00047926
     217         -0.235178        1.000000        0.00005814        0.00037381        0.00006373        0.00006830
     218         -0.233796        1.000000        0.00003410        0.00079252        0.00008320        0.00009971
     219         -0.233142        1.000000        0.00007062        0.00064874        0.00008700        0.00017905
     220         -0.232378        1.000000        0.00003117        0.00004746        0.00011364        0.00005918
     221         -0.231996        1.000000        0.00002327        0.00011208        0.00005786        0.00008569
     222         -0.230502        1.000000        0.00001448        0.00011768        0.00006400        0.00005494
     223         -0.230159        1.000000        0.00002277        0.00066403        0.00097324        0.00009204
     224         -0.229228        1.000000        0.00001417        0.00120332        0.00222135        0.00017222
     225         -0.228754        1.000000        0.00003728        0.00037940        0.00138264        0.00009245
     226         -0.227323        1.000000        0.00002458        0.00008538        0.00015792        0.00005082
     227         -0.226492        1.000000        0.00006805        0.00007052        0.00023368        0.00006162
     228         -0.225328        1.000000        0.00008869        0.00164793        0.00054268        0.00318854
     229         -0.224308        1.000000        0.00011581        0.00109170        0.00045892        0.00122113
     230         -0.222953        1.000000        0.00011426        0.00069377        0.00028543        0.00061208
     231         -0.221926        1.000000        0.00000641        0.00036470        0.00071427        0.00007005
     232         -0.221581        1.000000        0.00000049        0.00000138        0.00000066        0.00000161
     233         -0.221382        1.000000        0.00003335        0.00069658        0.00007067        0.00093558
     234         -0.220920        1.000000        0.00007382        0.00037926        0.00008458        0.00011322
     235         -0.219668        1.000000        0.00008561        0.00021475        0.00024341        0.00021164
     236         -0.218507        1.000000        0.00004102        0.00007625        0.00005988        0.00009240
     237         -0.218245        1.000000        0.00007790        0.00005620        0.00013692        0.00011930
     238         -0.216471        1.000000        0.00003990        0.00010826        0.00012885        0.00011437
     239         -0.215542        1.000000        0.00001095        0.00004820        0.00001484        0.00004849
     240         -0.215277        1.000000        0.00007148        0.00026794        0.00008125        0.00028701
     241         -0.215020        1.000000        0.00006976        0.00011869        0.00023475        0.00008978
     242         -0.214640        1.000000        0.00010687        0.00043675        0.00005645        0.00026190
     243         -0.213601        1.000000        0.00002696        0.00002639        0.00024319        0.00014685
     244         -0.212182        1.000000        0.00004578        0.00010759        0.00011818        0.00004946
     245         -0.211022        1.000000        0.00007548        0.00007734        0.00007833        0.00009675
     246         -0.210207        1.000000        0.00000896        0.00002814        0.00001854        0.00001290
     247         -0.209091        1.000000        0.00026839        0.00017461        0.00006312        0.00032778
     248         -0.207983        1.000000        0.00000683        0.00067741        0.00184691        0.00062629
     249         -0.207249        1.000000        0.00036125        0.00071714        0.00075957        0.00035204
     250         -0.206452        1.000000        0.00027825        0.00058241        0.00045750        0.00015310
     251         -0.206111        1.000000        0.00021321        0.00024849        0.00083400        0.00013911
     252         -0.205643        1.000000        0.00020928        0.00043256        0.00020698        0.00010615
     253         -0.204680        1.000000        0.00005019        0.00019551        0.00028136        0.00014400
     254         -0.204533        1.000000        0.00009507        0.00014915        0.00009479        0.00012628
     255         -0.203911        1.000000        0.00001621        0.00009132        0.00003571        0.00004368
     256         -0.203736        1.000000        0.00012205        0.00037265        0.00006908        0.00005282
     257         -0.202465        1.000000        0.00002856        0.00011942        0.00025979        0.00012592
     258         -0.200226        1.000000        0.00010121        0.00019017        0.00085918        0.00274128
     259         -0.199897        1.000000        0.00031953        0.00008046        0.00017579        0.00026473