# Projected DOS for atomic kind C at iteration step i = 0, E(Fermi) =    -0.128555 a.u.
#     MO Eigenvalue [a.u.]      Occupation                 s                py                pz                px
       1         -0.932975        1.000000        0.00000000        0.00000001        0.00000001        0.00000000
       2         -0.923369        1.000000        0.00000000        0.00000001        0.00000001        0.00000000
       3         -0.922485        1.000000        0.00000000        0.00000000        0.00000000        0.00000000
       4         -0.917151        1.000000        0.00003364        0.00001799        0.00002106        0.00000776
       5         -0.914873        1.000000        0.00000167        0.00000025        0.00000037        0.00000226
       6         -0.911518        1.000000        0.00000000        0.00000001        0.00000002        0.00000000
       7         -0.907442        1.000000        0.00000000        0.00000091        0.00000273        0.00000001
       8         -0.906332        1.000000        0.00000134        0.00000009        0.00000002        0.00000187
       9         -0.906159        1.000000        0.00000021        0.00000001        0.00000011        0.00000023
      10         -0.906114        1.000000        0.00000000        0.00000001        0.00000000        0.00000001
      11         -0.905672        1.000000        0.00000001        0.00000000        0.00000001        0.00000001
      12         -0.902644        1.000000        0.00000002        0.00000004        0.00000004        0.00000015
      13         -0.899769        1.000000        0.00000658        0.00000005        0.00000095        0.00000790
      14         -0.896883        1.000000        0.00000043        0.00000006        0.00000037        0.00000008
      15         -0.891112        1.000000        0.00000199        0.00000082        0.00000159        0.00000001
      16         -0.888091        1.000000        0.00000001        0.00000000        0.00000000        0.00000000
      17         -0.887748        1.000000        0.00000008        0.00000008        0.00000001        0.00000001
      18         -0.887238        1.000000        0.06067776        0.00069013        0.02968536        0.01382060
      19         -0.884614        1.000000        0.00000127        0.00000061        0.00000011        0.00000000
      20         -0.884366        1.000000        0.00000132        0.00000008        0.00000087        0.00000030
      21         -0.882257        1.000000        0.00152775        0.00009366        0.00098363        0.00030229
      22         -0.881964        1.000000        0.00000032        0.00000019        0.00000140        0.00000000
      23         -0.881711        1.000000        0.00003385        0.00000047        0.00000558        0.00003112
      24         -0.880737        1.000000        0.00000001        0.00000000        0.00000000        0.00000001
      25         -0.879860        1.000000        0.00000086        0.00000047        0.00000006        0.00000092
      26         -0.879127        1.000000        0.00000004        0.00000003        0.00000002        0.00000000
      27         -0.877222        1.000000        0.05496868        0.00945912        0.00485690        0.02793929
      28         -0.876040        1.000000        0.00000009        0.00000001        0.00000001        0.00000005
      29         -0.872516        1.000000        0.00000000        0.00000000        0.00000000        0.00000001
      30         -0.872228        1.000000        0.00000032        0.00000064        0.00000068        0.00000045
      31         -0.872145        1.000000        0.00254233        0.00038140        0.00155246        0.00017588
      32         -0.870541        1.000000        0.00001428        0.00000027        0.00000608        0.00000616
      33         -0.868925        1.000000        0.00001840        0.00000012        0.00000143        0.00001700
      34         -0.868197        1.000000        0.00000072        0.00001202        0.00000155        0.00000608
      35         -0.866156        1.000000        0.00246565        0.00001511        0.00107584        0.00081977
      36         -0.861810        1.000000        0.00007894        0.00000201        0.00005852        0.00001377
      37         -0.858982        1.000000        0.00000001        0.00000000        0.00000001        0.00000001
      38         -0.856960        1.000000        0.00000694        0.00000094        0.00000003        0.00000366
      39         -0.854255        1.000000        0.00032646        0.00001511        0.00000323        0.00027494
      40         -0.853331        1.000000        0.01139270        0.00010716        0.00384990        0.00396596
      41         -0.853082        1.000000        0.00123103        0.00001452        0.00009813        0.00095900
      42         -0.851564        1.000000        0.00000000        0.00000000        0.00000003        0.00000000
      43         -0.850260        1.000000        0.00000006        0.00000001        0.00000001        0.00000008
      44         -0.849754        1.000000        0.00000034        0.00000008        0.00000007        0.00000020
      45         -0.849311        1.000000        0.00000001        0.00000000        0.00000187        0.00000474
      46         -0.848192        1.000000        0.00008921        0.00000549        0.00000900        0.00006270
      47         -0.847948        1.000000        0.00000000        0.00000000        0.00000000        0.00000001
      48         -0.845468        1.000000        0.00000137        0.00000158        0.00000001        0.00000100
      49         -0.842124        1.000000        0.00590836        0.00020688        0.00005432        0.00393296
      50         -0.840333        1.000000        0.00000351        0.00000425        0.00000192        0.00000818
      51         -0.839395        1.000000        0.00000000        0.00000000        0.00000000        0.00000000
      52         -0.839304        1.000000        0.00108293        0.00001573        0.00009185        0.00071744
      53         -0.839207        1.000000        0.00029964        0.00000557        0.00008407        0.00013883
      54         -0.839020        1.000000        0.00000538        0.00000381        0.00003261        0.00003719
      55         -0.838180        1.000000        0.00677931        0.00010864        0.00040450        0.00459054
      56         -0.837824        1.000000        0.03333851        0.00032835        0.00856178        0.01164627
      57         -0.837554        1.000000        0.00033363        0.00004165        0.00013784        0.00007272
      58         -0.837159        1.000000        0.00000356        0.00000026        0.00000015        0.00000281
      59         -0.836564        1.000000        0.00000019        0.00000001        0.00000000        0.00000010
      60         -0.835956        1.000000        0.00015009        0.00000096        0.00003790        0.00005036
      61         -0.834117        1.000000        0.00729775        0.00018881        0.00053168        0.00482734
      62         -0.831917        1.000000        0.07291438        0.00262995        0.03536034        0.00492964
      63         -0.831898        1.000000        0.00000211        0.00000044        0.00001394        0.00002125
      64         -0.831698        1.000000        0.00000000        0.00000000        0.00000000        0.00000000
      65         -0.830174        1.000000        0.00000000        0.00000000        0.00000000        0.00000000
      66         -0.829054        1.000000        0.01209608        0.00026793        0.00023687        0.00720636
      67         -0.827669        1.000000        0.00625582        0.00018406        0.00044684        0.00381835
      68         -0.827508        1.000000        0.00298974        0.00016150        0.00011086        0.00182491
      69         -0.824451        1.000000        0.00000930        0.00001485        0.00008301        0.00000334
      70         -0.822724        1.000000        0.03076720        0.00025959        0.00618587        0.01031753
      71         -0.821479        1.000000        0.00000014        0.00000000        0.00000003        0.00000002
      72         -0.818839        1.000000        0.00000000        0.00000000        0.00000000        0.00000000
      73         -0.818607        1.000000        0.02486878        0.00047441        0.00067789        0.01344070
      74         -0.813480        1.000000        0.00000011        0.00000002        0.00000008        0.00000002
      75         -0.810930        1.000000        0.01874774        0.00046225        0.00099195        0.00938713
      76         -0.810542        1.000000        0.00248515        0.00007075        0.00015262        0.00123742
      77         -0.809508        1.000000        0.05392188        0.00216689        0.00420179        0.02740424
      78         -0.808087        1.000000        0.00005472        0.00001194        0.00014412        0.00009081
      79         -0.807329        1.000000        0.00000086        0.00000006        0.00000282        0.00000129
      80         -0.805687        1.000000        0.00000208        0.00000006        0.00000009        0.00000082
      81         -0.804826        1.000000        0.00003540        0.00000830        0.00008179        0.00011532
      82         -0.803037        1.000000        0.01105461        0.00012679        0.00027509        0.00513337
      83         -0.796639        1.000000        0.07727159        0.00221157        0.00385756        0.03479353
      84         -0.793123        1.000000        0.00000101        0.00000003        0.00000024        0.00000025
      85         -0.790036        1.000000        0.00648798        0.00005740        0.00022995        0.00265791
      86         -0.630106        1.000000        0.43910939        0.00001524        0.00094004        0.00063004
      87         -0.613534        1.000000        0.44112824        0.00002928        0.00062138        0.00015696
      88         -0.604644        1.000000        0.15828509        0.00000059        0.00050826        0.00176521
      89         -0.603173        1.000000        0.43029005        0.00012887        0.00642011        0.00048915
      90         -0.602776        1.000000        0.27141141        0.00011896        0.00179771        0.00268549
      91         -0.590654        1.000000        0.22153695        0.00004202        0.00032055        0.00467188
      92         -0.588111        1.000000        0.20379538        0.00018463        0.00037040        0.00282869
      93         -0.581125        1.000000        0.42103027        0.00046446        0.00076556        0.00812484
      94         -0.573046        1.000000        0.42841246        0.00014492        0.00032503        0.00382780
      95         -0.569681        1.000000        0.00612959        0.00008580        0.00000995        0.00003251
      96         -0.569362        1.000000        0.00027439        0.00000277        0.00003575        0.00003810
      97         -0.560967        1.000000        0.00004679        0.00002584        0.00008563        0.00000440
      98         -0.556334        1.000000        0.00097324        0.00015398        0.00002585        0.00013133
      99         -0.550751        1.000000        0.00010302        0.00000942        0.00036130        0.00011357
     100         -0.546842        1.000000        0.00022488        0.00061023        0.00045422        0.00016606
     101         -0.546341        1.000000        0.00033826        0.00044728        0.00003860        0.00009590
     102         -0.545303        1.000000        0.00043001        0.00043201        0.00007373        0.00057667
     103         -0.541520        1.000000        0.00013912        0.00011369        0.00003246        0.00019354
     104         -0.539595        1.000000        0.00004548        0.00009815        0.00004601        0.00001003
     105         -0.539422        1.000000        0.00128221        0.00079823        0.00201869        0.00162428
     106         -0.538007        1.000000        0.00023622        0.00373073        0.00010715        0.00019832
     107         -0.537007        1.000000        0.00044182        0.00101046        0.00166197        0.00123188
     108         -0.536779        1.000000        0.00019050        0.00091911        0.00081597        0.00009993
     109         -0.536112        1.000000        0.00039586        0.00022810        0.00013757        0.00034046
     110         -0.535587        1.000000        0.00025698        0.00011903        0.00039299        0.00110690
     111         -0.534071        1.000000        0.00011051        0.00080094        0.00014351        0.00060337
     112         -0.531116        1.000000        0.00015142        0.00088739        0.00075789        0.00092789
     113         -0.531066        1.000000        0.00053613        0.00205574        0.00061513        0.00108023
     114         -0.529584        1.000000        0.00000715        0.00013369        0.00022198        0.00029367
     115         -0.529140        1.000000        0.00063215        0.00061184        0.00025136        0.00026048
     116         -0.527452        1.000000        0.00066082        0.00081180        0.00115045        0.00117902
     117         -0.526003        1.000000        0.00052249        0.00034442        0.00012852        0.00016287
     118         -0.525311        1.000000        0.00030855        0.00035804        0.00014733        0.00027335
     119         -0.525243        1.000000        0.00032031        0.00014829        0.00039742        0.00133392
     120         -0.522405        1.000000        0.00038608        0.00025439        0.00110033        0.00151788
     121         -0.521441        1.000000        0.00000865        0.00012677        0.00003831        0.00016856
     122         -0.520357        1.000000        0.00008968        0.00057192        0.00017053        0.00040418
     123         -0.519951        1.000000        0.00025366        0.00018155        0.00028655        0.00028353
     124         -0.518947        1.000000        0.00009573        0.00023555        0.00026097        0.00012648
     125         -0.518861        1.000000        0.00012041        0.00000793        0.00020862        0.00010194
     126         -0.518274        1.000000        0.00005421        0.00050179        0.00017448        0.00005867
     127         -0.517917        1.000000        0.00007374        0.00043221        0.00032188        0.00006074
     128         -0.516604        1.000000        0.00009021        0.00039885        0.00018406        0.00022527
     129         -0.506935        1.000000        0.00006816        0.00178731        0.01340821        0.03089049
     130         -0.502174        1.000000        0.00006851        0.05095941        0.00147936        0.00065139
     131         -0.501686        1.000000        0.00024381        0.03747360        0.00727381        0.00382926
     132         -0.492145        1.000000        0.00019246        0.00303665        0.03475494        0.01377021
     133         -0.484412        1.000000        0.00004322        0.00055012        0.00208921        0.00022613
     134         -0.482350        1.000000        0.00002908        0.00002878        0.00009387        0.00000876
     135         -0.481159        1.000000        0.00011504        0.01546927        0.00392051        0.00762010
     136         -0.478179        1.000000        0.00000129        0.00002527        0.00000273        0.00000058
     137         -0.477656        1.000000        0.00000441        0.00004080        0.00001890        0.00000076
     138         -0.475207        1.000000        0.00011537        0.01630348        0.00497559        0.01322705
     139         -0.474376        1.000000        0.00000157        0.00152672        0.00000337        0.00000755
     140         -0.473467        1.000000        0.00000005        0.00000024        0.00000004        0.00000016
     141         -0.472932        1.000000        0.00001276        0.07467922        0.00058809        0.00023676
     142         -0.472185        1.000000        0.00000346        0.00009604        0.00001446        0.00004695
     143         -0.472153        1.000000        0.00001984        0.00007788        0.00004107        0.00002747
     144         -0.468863        1.000000        0.00000637        0.00041709        0.00022558        0.00070062
     145         -0.468117        1.000000        0.00000627        0.00054305        0.00017604        0.00002182
     146         -0.465568        1.000000        0.00001205        0.00047026        0.00022678        0.00026798
     147         -0.464311        1.000000        0.00001363        0.00001368        0.00046267        0.00016069
     148         -0.463219        1.000000        0.00073844        0.00052145        0.04894199        0.02159000
     149         -0.462581        1.000000        0.00000010        0.00000133        0.00000147        0.00000045
     150         -0.460842        1.000000        0.00004293        0.01991295        0.00214904        0.04417586
     151         -0.459526        1.000000        0.00000047        0.00001248        0.00000277        0.00000414
     152         -0.459097        1.000000        0.00000006        0.00000034        0.00000230        0.00000037
     153         -0.457374        1.000000        0.00000092        0.00000203        0.00000426        0.00000103
     154         -0.455206        1.000000        0.00000201        0.00002079        0.00001767        0.00000125
     155         -0.454450        1.000000        0.00007115        0.02464877        0.01720620        0.00522426
     156         -0.454261        1.000000        0.00007226        0.01830878        0.01370006        0.00420966
     157         -0.453739        1.000000        0.00000468        0.00254921        0.00001081        0.00022045
     158         -0.453586        1.000000        0.00000177        0.00000367        0.00005544        0.00000891
     159         -0.451883        1.000000        0.00000034        0.00012048        0.00107285        0.00008553
     160         -0.451809        1.000000        0.00001558        0.00579161        0.05419047        0.00448241
     161         -0.451756        1.000000        0.00007449        0.01748190        0.00004302        0.00137163
     162         -0.450436        1.000000        0.00000849        0.00012358        0.00010683        0.00008430
     163         -0.450021        1.000000        0.00000169        0.00000615        0.00001405        0.00000315
     164         -0.449258        1.000000        0.00000265        0.03117876        0.02932199        0.00980576
     165         -0.445604        1.000000        0.00000211        0.00002127        0.00002919        0.00001712
     166         -0.445041        1.000000        0.00000003        0.00000053        0.00000019        0.00000012
     167         -0.441781        1.000000        0.00002323        0.00019006        0.00071842        0.00364632
     168         -0.441082        1.000000        0.00000067        0.00000390        0.00000064        0.00000561
     169         -0.440588        1.000000        0.00010413        0.00301657        0.00693103        0.00079899
     170         -0.440102        1.000000        0.00000158        0.00018563        0.00000697        0.00002627
     171         -0.439665        1.000000        0.00021941        0.05592005        0.00193943        0.01038409
     172         -0.437730        1.000000        0.00045203        0.04208581        0.03733360        0.00148786
     173         -0.436440        1.000000        0.00001990        0.00045655        0.00084423        0.00008306
     174         -0.435887        1.000000        0.00000008        0.00021388        0.00000594        0.00000672
     175         -0.434598        1.000000        0.00000178        0.00271380        0.00014436        0.00008150
     176         -0.434594        1.000000        0.00000272        0.00032850        0.00033980        0.00023936
     177         -0.434420        1.000000        0.00000028        0.00005192        0.00001194        0.00000774
     178         -0.434076        1.000000        0.00001156        0.00002154        0.00010304        0.00001242
     179         -0.433335        1.000000        0.00000012        0.00002539        0.00000899        0.00000043
     180         -0.432341        1.000000        0.00001930        0.00032625        0.00225059        0.00137876
     181         -0.432195        1.000000        0.00000397        0.00034520        0.00013848        0.00002480
     182         -0.427984        1.000000        0.00000119        0.00000088        0.00000936        0.00000364
     183         -0.427458        1.000000        0.00002285        0.00025345        0.00010382        0.00009506
     184         -0.426975        1.000000        0.00001941        0.00018503        0.00033763        0.00055472
     185         -0.426390        1.000000        0.00001620        0.00010663        0.00005853        0.00004007
     186         -0.426022        1.000000        0.00000483        0.00001119        0.00000379        0.00004815
     187         -0.425381        1.000000        0.00001089        0.00018153        0.00012553        0.00045380
     188         -0.422604        1.000000        0.00000125        0.04757235        0.05265790        0.00056925
     189         -0.421537        1.000000        0.00035095        0.00142114        0.00019093        0.00153585
     190         -0.421349        1.000000        0.00001464        0.00011566        0.00010653        0.00000518
     191         -0.420329        1.000000        0.00001541        0.00007874        0.00004206        0.00010976
     192         -0.419357        1.000000        0.00000013        0.00000009        0.00000111        0.00000132
     193         -0.418939        1.000000        0.00000245        0.00001044        0.00011028        0.00000555
     194         -0.415661        1.000000        0.00000421        0.00000954        0.00003715        0.00003595
     195         -0.415171        1.000000        0.00031498        0.00035466        0.00206344        0.00220466
     196         -0.414663        1.000000        0.00024301        0.00009462        0.00288831        0.00241917
     197         -0.414355        1.000000        0.00013856        0.00004832        0.00183491        0.00476802
     198         -0.413446        1.000000        0.00001423        0.00001214        0.00013252        0.00008593
     199         -0.413200        1.000000        0.00017855        0.00026863        0.00209872        0.00111239
     200         -0.412710        1.000000        0.00001834        0.00002172        0.00028082        0.00011667
     201         -0.411334        1.000000        0.00009207        0.00150210        0.00150733        0.00021617
     202         -0.411195        1.000000        0.00633369        0.00283298        0.05605871        0.03361506
     203         -0.410284        1.000000        0.00005667        0.00010777        0.00065881        0.00044202
     204         -0.409855        1.000000        0.01514008        0.00294626        0.14987048        0.07594154
     205         -0.408423        1.000000        0.00030627        0.00028737        0.00313472        0.00280583
     206         -0.407495        1.000000        0.00009278        0.00005552        0.00072113        0.00039880
     207         -0.406883        1.000000        0.00027284        0.00040538        0.00123584        0.00143826
     208         -0.405410        1.000000        0.00004183        0.00020102        0.00069016        0.00037673
     209         -0.404660        1.000000        0.00000183        0.00001833        0.00000591        0.00008447
     210         -0.404415        1.000000        0.00000653        0.00000713        0.00001673        0.00000766
     211         -0.403217        1.000000        0.00000677        0.00009492        0.00002437        0.00013214
     212         -0.402339        1.000000        0.00026401        0.00064753        0.00102564        0.00168462
     213         -0.401311        1.000000        0.00080170        0.00269628        0.00262861        0.00473256
     214         -0.400619        1.000000        0.00062409        0.00151548        0.00277311        0.00385461
     215         -0.399335        1.000000        0.00000373        0.00001576        0.00001986        0.00003896
     216         -0.397877        1.000000        0.00000747        0.00002007        0.00005803        0.00005725
     217         -0.396457        1.000000        0.00000548        0.00008603        0.00012744        0.00008547
     218         -0.395806        1.000000        0.00091194        0.00243991        0.00175771        0.00735408
     219         -0.395582        1.000000        0.02252677        0.05911147        0.04441886        0.18119399
     220         -0.394800        1.000000        0.00000162        0.00000212        0.00000383        0.00005754
     221         -0.394543        1.000000        0.00000248        0.00000748        0.00002775        0.00002556
     222         -0.389704        1.000000        0.00000027        0.00000082        0.00000106        0.00000253
     223         -0.388791        1.000000        0.00000072        0.00000629        0.00000099        0.00000183
     224         -0.384968        1.000000        0.00143210        0.00204251        0.01024059        0.00203697
     225         -0.382879        1.000000        0.00003967        0.00399896        0.00223245        0.00815020
     226         -0.380788        1.000000        0.01152069        0.00378620        0.19158607        0.14722258
     227         -0.380466        1.000000        0.01177118        0.02533417        0.26605325        0.04795211
     228         -0.379945        1.000000        0.00000624        0.00032946        0.00001677        0.00000129
     229         -0.378393        1.000000        0.00000311        0.00001493        0.00004042        0.00000780
     230         -0.378163        1.000000        0.00139430        0.00895659        0.00055393        0.00212628
     231         -0.375485        1.000000        0.00000021        0.00000011        0.00000244        0.00000147
     232         -0.372774        1.000000        0.00000247        0.00000261        0.00004580        0.00002914
     233         -0.368550        1.000000        0.00000530        0.00006943        0.00028202        0.00003874
     234         -0.364014        1.000000        0.00993071        0.01331148        0.00685525        0.32019888
     235         -0.360842        1.000000        0.00996090        0.00267085        0.01590103        0.31694980
     236         -0.352987        1.000000        0.00000533        0.00007835        0.00009466        0.00007687
     237         -0.352733        1.000000        0.00746779        0.00132294        0.01434039        0.15498106
     238         -0.352613        1.000000        0.00715298        0.00117328        0.01406493        0.14896118
     239         -0.348467        1.000000        0.00000068        0.00008656        0.00032268        0.00052620
     240         -0.348326        1.000000        0.00000408        0.33810785        0.09563276        0.08979049
     241         -0.347064        1.000000        0.00000949        0.18141172        0.08905387        0.26010978
     242         -0.339125        1.000000        0.00019791        0.00138702        0.17074309        0.26056261
     243         -0.336797        1.000000        0.00000233        0.00169674        0.00161763        0.00248599
     244         -0.335426        1.000000        0.00000758        0.33375686        0.02396124        0.02559097
     245         -0.334686        1.000000        0.00000380        0.00656467        0.00182962        0.00107209
     246         -0.330876        1.000000        0.00001882        0.01291514        0.09188314        0.38274664
     247         -0.330306        1.000000        0.00008537        0.25250568        0.08071968        0.19026716
     248         -0.327769        1.000000        0.00006135        0.05300469        0.00559193        0.00177470
     249         -0.327454        1.000000        0.00015463        0.15651985        0.34565260        0.00322333
     250         -0.327235        1.000000        0.00002840        0.03910477        0.00684678        0.00142864
     251         -0.325847        1.000000        0.00000015        0.47719566        0.00126150        0.00671605
     252         -0.325390        1.000000        0.00001539        0.00077049        0.03160341        0.00128028
     253         -0.323868        1.000000        0.00000066        0.01560876        0.00013958        0.00012913
     254         -0.323202        1.000000        0.00000706        0.01142315        0.00118805        0.00040234
     255         -0.321820        1.000000        0.00010004        0.04634236        0.35156175        0.00002458
     256         -0.314532        1.000000        0.00001955        0.02295805        0.00579377        0.00080908
     257         -0.313827        1.000000        0.00002602        0.24913999        0.02651064        0.00024503
     258         -0.312681        1.000000        0.00003873        0.05530816        0.00635807        0.00315256
     259         -0.312430        1.000000        0.00000746        0.09397372        0.02777087        0.01597819