# Projected DOS for atomic kind Pb at iteration step i = 0, E(Fermi) =    -0.128777 a.u.
#     MO Eigenvalue [a.u.]      Occupation                 s                py                pz                px
       1         -0.932961        1.000000        0.00000040        0.00000023        0.00000105        0.00000957
       2         -0.923367        1.000000        0.00000054        0.00000158        0.00000062        0.00000791
       3         -0.922484        1.000000        0.00000067        0.00000947        0.00000181        0.00000422
       4         -0.917149        1.000000        0.00000015        0.00000083        0.00000012        0.00000004
       5         -0.914891        1.000000        0.00000011        0.00000007        0.00000002        0.00000047
       6         -0.911516        1.000000        0.00000038        0.00000026        0.00000012        0.00000372
       7         -0.907439        1.000000        0.00000002        0.00000022        0.00000001        0.00000004
       8         -0.906332        1.000000        0.00000054        0.00000001        0.00000074        0.00000527
       9         -0.906187        1.000000        0.00000058        0.00000282        0.00000690        0.00000108
      10         -0.906110        1.000000        0.00000000        0.00000010        0.00000055        0.00000020
      11         -0.905671        1.000000        0.00000002        0.00000152        0.00000430        0.00000006
      12         -0.902635        1.000000        0.00000131        0.00000590        0.00001621        0.00000273
      13         -0.899774        1.000000        0.00000010        0.00000006        0.00000002        0.00000048
      14         -0.896890        1.000000        0.00000076        0.00000210        0.00001246        0.00000750
      15         -0.891115        1.000000        0.00000011        0.00000145        0.00000001        0.00000000
      16         -0.888090        1.000000        0.00000010        0.00000178        0.00000217        0.00000000
      17         -0.887744        1.000000        0.00000009        0.00000008        0.00000062        0.00000015
      18         -0.887260        1.000000        0.00000022        0.00000166        0.00000259        0.00000081
      19         -0.884603        1.000000        0.00000001        0.00000006        0.00000017        0.00000020
      20         -0.884366        1.000000        0.00000059        0.00000122        0.00000261        0.00000108
      21         -0.882259        1.000000        0.00001094        0.00008049        0.00009984        0.00000910
      22         -0.881885        1.000000        0.00000030        0.00000356        0.00000115        0.00000218
      23         -0.881710        1.000000        0.00000004        0.00000032        0.00000041        0.00000039
      24         -0.880739        1.000000        0.00000098        0.00000642        0.00001438        0.00000473
      25         -0.879860        1.000000        0.00000016        0.00000012        0.00000063        0.00000278
      26         -0.879145        1.000000        0.00000052        0.00000264        0.00000198        0.00000836
      27         -0.877207        1.000000        0.00000017        0.00000108        0.00000088        0.00000162
      28         -0.876046        1.000000        0.00000001        0.00000116        0.00000033        0.00000003
      29         -0.872701        1.000000        0.00000039        0.00000029        0.00000053        0.00000174
      30         -0.872592        1.000000        0.00000107        0.00000060        0.00000110        0.00000516
      31         -0.872515        1.000000        0.00000026        0.00000134        0.00000432        0.00000056
      32         -0.872139        1.000000        0.00000006        0.00000021        0.00000021        0.00000168
      33         -0.868926        1.000000        0.00000003        0.00000059        0.00000006        0.00000045
      34         -0.868196        1.000000        0.00000003        0.00000003        0.00000010        0.00000041
      35         -0.866159        1.000000        0.00000001        0.00000018        0.00000020        0.00000043
      36         -0.861772        1.000000        0.00000002        0.00000023        0.00000002        0.00000003
      37         -0.859049        1.000000        0.00000044        0.00000224        0.00000326        0.00000162
      38         -0.856955        1.000000        0.00000003        0.00000048        0.00000027        0.00000023
      39         -0.854257        1.000000        0.00000043        0.00000009        0.00000010        0.00000142
      40         -0.853333        1.000000        0.00000007        0.00000016        0.00000068        0.00000065
      41         -0.853094        1.000000        0.00000010        0.00000056        0.00000004        0.00000029
      42         -0.851563        1.000000        0.00000001        0.00000035        0.00000257        0.00000259
      43         -0.850257        1.000000        0.00000030        0.00000314        0.00000222        0.00000001
      44         -0.849753        1.000000        0.00000000        0.00000153        0.00000019        0.00000105
      45         -0.849479        1.000000        0.00000016        0.00000117        0.00000000        0.00000006
      46         -0.848175        1.000000        0.00000139        0.00000836        0.00000892        0.00000960
      47         -0.847946        1.000000        0.00000003        0.00000003        0.00000014        0.00000000
      48         -0.845834        1.000000        0.00000169        0.00000008        0.00000520        0.00000103
      49         -0.845407        1.000000        0.00000043        0.00000121        0.00000006        0.00000000
      50         -0.842138        1.000000        0.00000089        0.00000085        0.00000367        0.00000076
      51         -0.841866        1.000000        0.00000681        0.00000039        0.00001985        0.00000482
      52         -0.839393        1.000000        0.00000004        0.00000009        0.00000042        0.00000018
      53         -0.839304        1.000000        0.00000016        0.00000080        0.00000045        0.00000001
      54         -0.838852        1.000000        0.00000015        0.00000003        0.00000002        0.00000050
      55         -0.838798        1.000000        0.00000013        0.00000062        0.00000030        0.00000059
      56         -0.838181        1.000000        0.00000004        0.00000002        0.00000003        0.00000017
      57         -0.837821        1.000000        0.00000009        0.00000045        0.00000068        0.00000031
      58         -0.837549        1.000000        0.00000001        0.00000007        0.00000000        0.00000001
      59         -0.837187        1.000000        0.00000017        0.00000001        0.00000060        0.00000000
      60         -0.836564        1.000000        0.00000005        0.00000005        0.00000046        0.00000019
      61         -0.834125        1.000000        0.00000009        0.00000028        0.00000006        0.00000027
      62         -0.832466        1.000000        0.00000036        0.00000007        0.00000017        0.00000100
      63         -0.831917        1.000000        0.00000196        0.00001556        0.00001984        0.00002024
      64         -0.831737        1.000000        0.00000003        0.00000037        0.00000008        0.00000020
      65         -0.830164        1.000000        0.00000027        0.00000205        0.00000192        0.00000312
      66         -0.829054        1.000000        0.00000090        0.00000435        0.00000837        0.00000338
      67         -0.827673        1.000000        0.00000027        0.00000042        0.00000010        0.00000145
      68         -0.827518        1.000000        0.00000023        0.00000012        0.00000004        0.00000072
      69         -0.823005        1.000000        0.00000018        0.00000071        0.00000125        0.00000117
      70         -0.822726        1.000000        0.00000014        0.00000033        0.00000069        0.00000035
      71         -0.818869        1.000000        0.00000010        0.00000077        0.00000070        0.00000055
      72         -0.818597        1.000000        0.00000197        0.00000509        0.00001781        0.00000863
      73         -0.817602        1.000000        0.00000057        0.00000297        0.00000047        0.00000001
      74         -0.813464        1.000000        0.00000127        0.00001058        0.00000037        0.00000034
      75         -0.810915        1.000000        0.00000049        0.00000345        0.00000399        0.00000107
      76         -0.809518        1.000000        0.00000005        0.00000028        0.00000009        0.00000027
      77         -0.808821        1.000000        0.00000050        0.00000115        0.00000035        0.00000039
      78         -0.808586        1.000000        0.00000001        0.00000062        0.00000007        0.00000001
      79         -0.806728        1.000000        0.00000004        0.00000014        0.00000017        0.00000017
      80         -0.806526        1.000000        0.00000017        0.00000007        0.00000008        0.00000046
      81         -0.805910        1.000000        0.00000085        0.00000427        0.00000323        0.00000262
      82         -0.803045        1.000000        0.00000110        0.00000471        0.00000769        0.00000284
      83         -0.796640        1.000000        0.00000002        0.00000033        0.00000032        0.00000013
      84         -0.793116        1.000000        0.00000120        0.00001064        0.00000025        0.00000061
      85         -0.790038        1.000000        0.00000046        0.00000108        0.00000277        0.00000126
      86         -0.630103        1.000000        0.00003980        0.00004037        0.00002753        0.00002354
      87         -0.613544        1.000000        0.00001368        0.00001322        0.00000376        0.00001529
      88         -0.604655        1.000000        0.00123093        0.00100672        0.00140465        0.00012406
      89         -0.603163        1.000000        0.00019393        0.00016290        0.00012272        0.00017839
      90         -0.602787        1.000000        0.00086769        0.00069257        0.00087776        0.00004821
      91         -0.590647        1.000000        0.00055055        0.00023538        0.00026928        0.00000604
      92         -0.588102        1.000000        0.00027242        0.00024450        0.00023931        0.00001667
      93         -0.581127        1.000000        0.00007991        0.00002165        0.00003923        0.00003483
      94         -0.573060        1.000000        0.00206831        0.00009552        0.00001185        0.00000787
      95         -0.570249        1.000000        0.09783699        0.00026180        0.00682050        0.00064416
      96         -0.569436        1.000000        0.00272191        0.00288142        0.00000778        0.00072186
      97         -0.561008        1.000000        0.00495693        0.00265261        0.00020657        0.00085922
      98         -0.556390        1.000000        0.06098390        0.00226517        0.02591007        0.00961777
      99         -0.554744        1.000000        0.05923174        0.00033564        0.00978048        0.00019792
     100         -0.550024        1.000000        0.00866186        0.00536151        0.00089412        0.00025308
     101         -0.546658        1.000000        0.10796366        0.00201019        0.00313841        0.00426990
     102         -0.544971        1.000000        0.00225573        0.03354438        0.00638521        0.00216244
     103         -0.542042        1.000000        0.05916091        0.00109854        0.00911941        0.01227018
     104         -0.541825        1.000000        0.00145655        0.00827661        0.00810557        0.02161442
     105         -0.539575        1.000000        0.02282406        0.00357263        0.00121878        0.00236962
     106         -0.539525        1.000000        0.06368794        0.00701947        0.00381352        0.00340387
     107         -0.537614        1.000000        0.06137993        0.00248421        0.00969011        0.00627173
     108         -0.536878        1.000000        0.05212493        0.00875564        0.00198742        0.00724597
     109         -0.536296        1.000000        0.07733348        0.00321619        0.00175029        0.01702453
     110         -0.535540        1.000000        0.04142892        0.01266513        0.00385353        0.00551133
     111         -0.534608        1.000000        0.06233576        0.00455950        0.00989405        0.00661693
     112         -0.533212        1.000000        0.05006287        0.00332294        0.01142695        0.00932617
     113         -0.531818        1.000000        0.00128648        0.02873145        0.00062834        0.00164607
     114         -0.531057        1.000000        0.02568454        0.00411513        0.02030854        0.01434373
     115         -0.529355        1.000000        0.00672603        0.01095937        0.00350766        0.01481470
     116         -0.527532        1.000000        0.01369822        0.01242821        0.00620931        0.00697154
     117         -0.526124        1.000000        0.00346960        0.01099197        0.01308474        0.00292585
     118         -0.525513        1.000000        0.00293772        0.00866386        0.00575444        0.01428728
     119         -0.525387        1.000000        0.00098588        0.00939419        0.00640810        0.00781914
     120         -0.522930        1.000000        0.00074021        0.02235277        0.00074178        0.00605187
     121         -0.521427        1.000000        0.00798537        0.00740499        0.00893072        0.01388924
     122         -0.520470        1.000000        0.00538679        0.00300780        0.01710831        0.01243599
     123         -0.520281        1.000000        0.00500715        0.00277112        0.01929890        0.01221661
     124         -0.519314        1.000000        0.00045772        0.00128491        0.00204796        0.00274774
     125         -0.518918        1.000000        0.01009941        0.00032570        0.02518178        0.00401529
     126         -0.518380        1.000000        0.00763922        0.00068844        0.00710282        0.01311298
     127         -0.518217        1.000000        0.00236879        0.00265253        0.00129953        0.00695412
     128         -0.517007        1.000000        0.00255249        0.00113122        0.01301942        0.00547374
     129         -0.507256        1.000000        0.00477438        0.00229387        0.00318946        0.00100486
     130         -0.502476        1.000000        0.00652969        0.00060358        0.00488890        0.00047824
     131         -0.501695        1.000000        0.00313384        0.00043508        0.00086337        0.00086905
     132         -0.492198        1.000000        0.00449128        0.00093592        0.00054752        0.00196336
     133         -0.484394        1.000000        0.00310554        0.00041138        0.00009349        0.00157523
     134         -0.482366        1.000000        0.00530664        0.00006359        0.00080776        0.00229242
     135         -0.481158        1.000000        0.00168122        0.00086436        0.00009494        0.00005841
     136         -0.478179        1.000000        0.00011034        0.00007149        0.00001416        0.00002292
     137         -0.477689        1.000000        0.00097269        0.00006794        0.00002730        0.00015947
     138         -0.475207        1.000000        0.00184014        0.00056066        0.00014736        0.00006553
     139         -0.474379        1.000000        0.00003146        0.00000292        0.00000625        0.00000995
     140         -0.473464        1.000000        0.00002791        0.00000925        0.00000006        0.00000003
     141         -0.473050        1.000000        0.00110511        0.00000988        0.00025365        0.00009825
     142         -0.472187        1.000000        0.00438895        0.00023344        0.00021119        0.00147548
     143         -0.472157        1.000000        0.00348917        0.00018684        0.00018401        0.00148620
     144         -0.468862        1.000000        0.00000667        0.00000162        0.00000086        0.00000191
     145         -0.468117        1.000000        0.00441167        0.00072533        0.00003284        0.00003026
     146         -0.465573        1.000000        0.00026803        0.00023202        0.00008653        0.00147543
     147         -0.464342        1.000000        0.00201800        0.00005652        0.00001638        0.00021965
     148         -0.463229        1.000000        0.00034009        0.00002337        0.00002558        0.00000316
     149         -0.462574        1.000000        0.00015751        0.00005887        0.00000716        0.00000029
     150         -0.460842        1.000000        0.00013969        0.00011646        0.00001783        0.00006953
     151         -0.459519        1.000000        0.00069759        0.00009282        0.00001535        0.00001020
     152         -0.459076        1.000000        0.00075005        0.00000207        0.00000807        0.00014629
     153         -0.457388        1.000000        0.00097082        0.00000249        0.00022853        0.00013440
     154         -0.455193        1.000000        0.00033732        0.00001396        0.00000817        0.00003448
     155         -0.454446        1.000000        0.00115538        0.00011955        0.00017632        0.00017301
     156         -0.454259        1.000000        0.00027016        0.00012064        0.00023234        0.00008028
     157         -0.453743        1.000000        0.00313329        0.00057819        0.00001503        0.00004898
     158         -0.453589        1.000000        0.00554443        0.00002647        0.00006270        0.00020364
     159         -0.451862        1.000000        0.00085818        0.00000595        0.00003073        0.00002352
     160         -0.451820        1.000000        0.00060386        0.00004000        0.00000526        0.00013492
     161         -0.451752        1.000000        0.00099623        0.00020206        0.00002491        0.00000481
     162         -0.450470        1.000000        0.00000673        0.00000525        0.00001569        0.00005722
     163         -0.450021        1.000000        0.00031048        0.00004019        0.00000182        0.00000684
     164         -0.449259        1.000000        0.00041496        0.00000501        0.00000284        0.00003025
     165         -0.445603        1.000000        0.00449321        0.00011656        0.00002965        0.00028515
     166         -0.445042        1.000000        0.00000104        0.00000079        0.00000999        0.00000457
     167         -0.441785        1.000000        0.00208188        0.00069100        0.00026703        0.00001648
     168         -0.441091        1.000000        0.00039891        0.00003411        0.00014342        0.00001657
     169         -0.440589        1.000000        0.00874537        0.00001180        0.00013061        0.00010040
     170         -0.440151        1.000000        0.00086770        0.00003261        0.00000048        0.00000579
     171         -0.439689        1.000000        0.00022283        0.00001129        0.00000200        0.00003786
     172         -0.437730        1.000000        0.00780118        0.00001158        0.00010251        0.00010619
     173         -0.436443        1.000000        0.00128154        0.00000048        0.00001424        0.00001438
     174         -0.435885        1.000000        0.00049281        0.00002534        0.00000227        0.00001892
     175         -0.434706        1.000000        0.01627408        0.00000853        0.00008720        0.00003936
     176         -0.434603        1.000000        0.00047149        0.00004264        0.00000556        0.00003962
     177         -0.434597        1.000000        0.00108292        0.00000354        0.00000610        0.00004298
     178         -0.434435        1.000000        0.00344226        0.00023499        0.00000305        0.00000427
     179         -0.433333        1.000000        0.00011602        0.00000069        0.00002849        0.00000083
     180         -0.432365        1.000000        0.00073725        0.00000558        0.00002209        0.00000864
     181         -0.432194        1.000000        0.00017966        0.00000610        0.00003949        0.00005200
     182         -0.428548        1.000000        0.00287471        0.00000029        0.00002096        0.00001296
     183         -0.427988        1.000000        0.00032697        0.00000012        0.00001076        0.00000085
     184         -0.427460        1.000000        0.00492771        0.00001638        0.00005133        0.00013781
     185         -0.427229        1.000000        0.55074786        0.00020669        0.00024317        0.00011676
     186         -0.426390        1.000000        0.00735559        0.00000916        0.00001936        0.00007588
     187         -0.425453        1.000000        0.09974882        0.00002824        0.00001695        0.00006810
     188         -0.422605        1.000000        0.00089480        0.00000333        0.00000645        0.00000564
     189         -0.421601        1.000000        0.02869214        0.00000092        0.00000523        0.00004447
     190         -0.421353        1.000000        0.00064840        0.00000129        0.00000116        0.00000120
     191         -0.420558        1.000000        0.09811070        0.00013185        0.00009869        0.00006688
     192         -0.419358        1.000000        0.00053998        0.00000182        0.00000237        0.00000040
     193         -0.418942        1.000000        0.02300326        0.00001994        0.00003601        0.00005216
     194         -0.417281        1.000000        0.57400100        0.00003637        0.00019118        0.00015851
     195         -0.415672        1.000000        0.02784188        0.00002440        0.00005362        0.00001623
     196         -0.414638        1.000000        0.32989691        0.00003961        0.00033325        0.00041128
     197         -0.414355        1.000000        0.31158595        0.00003720        0.00030148        0.00043706
     198         -0.413453        1.000000        0.00282120        0.00000911        0.00000552        0.00000231
     199         -0.413197        1.000000        0.12508153        0.00002833        0.00007850        0.00009979
     200         -0.412702        1.000000        0.03155863        0.00001168        0.00004063        0.00010129
     201         -0.411336        1.000000        0.00197575        0.00000118        0.00000057        0.00000334
     202         -0.411206        1.000000        0.44799835        0.00005493        0.00026021        0.00045140
     203         -0.410283        1.000000        0.00139645        0.00000163        0.00000130        0.00000341
     204         -0.409894        1.000000        0.21720860        0.00003105        0.00034580        0.00032513
     205         -0.408464        1.000000        0.22559428        0.00012430        0.00013997        0.00018700
     206         -0.407492        1.000000        0.06170672        0.00000291        0.00007580        0.00000271
     207         -0.407054        1.000000        0.03391103        0.00023999        0.00001134        0.00008446
     208         -0.405453        1.000000        0.58234073        0.00012879        0.00029186        0.00060272
     209         -0.404658        1.000000        0.00226401        0.00000147        0.00000066        0.00000321
     210         -0.404469        1.000000        0.00865308        0.00001145        0.00001037        0.00000461
     211         -0.403211        1.000000        0.00223378        0.00005259        0.00000549        0.00000058
     212         -0.402349        1.000000        0.69285120        0.00021315        0.00003641        0.00018111
     213         -0.401522        1.000000        0.68396406        0.00018452        0.00030577        0.00055597
     214         -0.400707        1.000000        0.62951677        0.00045354        0.00011249        0.00032510
     215         -0.399332        1.000000        0.02008724        0.00004239        0.00002607        0.00003100
     216         -0.397873        1.000000        0.02517779        0.00004038        0.00004208        0.00000319
     217         -0.395806        1.000000        0.00193880        0.00001474        0.00000113        0.00000588
     218         -0.395631        1.000000        0.03557989        0.00003392        0.00001067        0.00007952
     219         -0.394808        1.000000        0.00823146        0.00000873        0.00004770        0.00000342
     220         -0.394543        1.000000        0.00891374        0.00000312        0.00002505        0.00000169
     221         -0.393792        1.000000        0.00084067        0.00003964        0.00000008        0.00000389
     222         -0.389723        1.000000        0.00046159        0.00002092        0.00000784        0.00000003
     223         -0.388775        1.000000        0.00018482        0.00002346        0.00000000        0.00002811
     224         -0.385410        1.000000        0.00079221        0.00000544        0.00000112        0.00001678
     225         -0.382900        1.000000        0.00047857        0.00000110        0.00000689        0.00000340
     226         -0.380803        1.000000        0.00093788        0.00003179        0.00004243        0.00006311
     227         -0.380457        1.000000        0.00205271        0.00021417        0.00019664        0.00031457
     228         -0.379392        1.000000        0.00059182        0.00007210        0.00003380        0.00001323
     229         -0.378721        1.000000        0.00185708        0.00000258        0.00008097        0.00001009
     230         -0.378035        1.000000        0.00056604        0.00001090        0.00000383        0.00015231
     231         -0.375495        1.000000        0.00016286        0.00005970        0.00003288        0.00000159
     232         -0.373506        1.000000        0.00051677        0.00002479        0.00000402        0.00000690
     233         -0.368549        1.000000        0.00140161        0.00001100        0.00009417        0.00000200
     234         -0.364006        1.000000        0.00036105        0.00001066        0.00001575        0.00001070
     235         -0.360843        1.000000        0.00016444        0.00001591        0.00003371        0.00002387
     236         -0.352981        1.000000        0.00046651        0.00003375        0.00001485        0.00001430
     237         -0.352737        1.000000        0.00005436        0.00007603        0.00000509        0.00001110
     238         -0.352616        1.000000        0.00012949        0.00010018        0.00001250        0.00001767
     239         -0.348463        1.000000        0.00039127        0.00041296        0.00000435        0.00001721
     240         -0.348328        1.000000        0.00066930        0.00013132        0.00032679        0.00002981
     241         -0.347055        1.000000        0.00037403        0.00016698        0.00015670        0.00014881
     242         -0.339126        1.000000        0.00011374        0.00001520        0.00002107        0.00003163
     243         -0.336797        1.000000        0.00002605        0.00003848        0.00021478        0.00007934
     244         -0.335413        1.000000        0.00041785        0.00003273        0.00029876        0.00022261
     245         -0.334679        1.000000        0.00004321        0.00017574        0.00009212        0.00000223
     246         -0.330867        1.000000        0.00033439        0.00037659        0.00031740        0.00065661
     247         -0.330334        1.000000        0.00015377        0.00001605        0.00003237        0.00010266
     248         -0.327776        1.000000        0.00039170        0.00008159        0.00004569        0.00011670
     249         -0.327477        1.000000        0.00036608        0.00001450        0.00002252        0.00018658
     250         -0.327246        1.000000        0.00031033        0.00014514        0.00000582        0.00012004
     251         -0.325955        1.000000        0.00014614        0.00008072        0.00008836        0.00028270
     252         -0.325735        1.000000        0.00048744        0.00012137        0.00103133        0.00036099
     253         -0.324915        1.000000        0.00000526        0.00003355        0.00010338        0.00016975
     254         -0.323201        1.000000        0.00057210        0.00011122        0.00011068        0.00039623
     255         -0.321826        1.000000        0.00005747        0.00005045        0.00005202        0.00005735
     256         -0.314536        1.000000        0.00041159        0.00003958        0.00011480        0.00086740
     257         -0.313829        1.000000        0.00005954        0.00021346        0.00009981        0.00005700
     258         -0.312652        1.000000        0.00053108        0.00024769        0.00010290        0.00011681
     259         -0.312432        1.000000        0.00006637        0.00008982        0.00004607        0.00015533