# Projected DOS for atomic kind C at iteration step i = 0, E(Fermi) =    -0.128777 a.u.
#     MO Eigenvalue [a.u.]      Occupation                 s                py                pz                px
       1         -0.932961        1.000000        0.00000000        0.00000001        0.00000001        0.00000000
       2         -0.923367        1.000000        0.00000000        0.00000001        0.00000001        0.00000000
       3         -0.922484        1.000000        0.00000000        0.00000000        0.00000000        0.00000000
       4         -0.917149        1.000000        0.00003364        0.00001799        0.00002106        0.00000776
       5         -0.914891        1.000000        0.00000167        0.00000025        0.00000037        0.00000226
       6         -0.911516        1.000000        0.00000000        0.00000001        0.00000002        0.00000000
       7         -0.907439        1.000000        0.00000000        0.00000091        0.00000273        0.00000001
       8         -0.906332        1.000000        0.00000134        0.00000009        0.00000002        0.00000187
       9         -0.906187        1.000000        0.00000022        0.00000001        0.00000011        0.00000024
      10         -0.906110        1.000000        0.00000000        0.00000001        0.00000000        0.00000001
      11         -0.905671        1.000000        0.00000001        0.00000000        0.00000001        0.00000001
      12         -0.902635        1.000000        0.00000002        0.00000004        0.00000004        0.00000015
      13         -0.899774        1.000000        0.00000658        0.00000005        0.00000095        0.00000790
      14         -0.896890        1.000000        0.00000043        0.00000006        0.00000037        0.00000008
      15         -0.891115        1.000000        0.00000198        0.00000082        0.00000159        0.00000001
      16         -0.888090        1.000000        0.00000001        0.00000000        0.00000000        0.00000000
      17         -0.887744        1.000000        0.00000008        0.00000008        0.00000001        0.00000001
      18         -0.887260        1.000000        0.06066475        0.00068979        0.02968631        0.01381785
      19         -0.884603        1.000000        0.00000126        0.00000061        0.00000011        0.00000000
      20         -0.884366        1.000000        0.00000132        0.00000008        0.00000087        0.00000030
      21         -0.882259        1.000000        0.00152747        0.00009364        0.00098352        0.00030228
      22         -0.881885        1.000000        0.00000025        0.00000015        0.00000115        0.00000000
      23         -0.881710        1.000000        0.00003378        0.00000047        0.00000553        0.00003112
      24         -0.880739        1.000000        0.00000001        0.00000000        0.00000000        0.00000001
      25         -0.879860        1.000000        0.00000086        0.00000047        0.00000006        0.00000092
      26         -0.879145        1.000000        0.00000004        0.00000003        0.00000003        0.00000000
      27         -0.877207        1.000000        0.05496276        0.00945793        0.00485587        0.02793445
      28         -0.876046        1.000000        0.00000009        0.00000001        0.00000002        0.00000005
      29         -0.872701        1.000000        0.00001065        0.00000025        0.00000462        0.00000480
      30         -0.872592        1.000000        0.00000034        0.00000069        0.00000071        0.00000046
      31         -0.872515        1.000000        0.00000000        0.00000000        0.00000000        0.00000001
      32         -0.872139        1.000000        0.00254397        0.00038150        0.00155361        0.00017607
      33         -0.868926        1.000000        0.00001846        0.00000012        0.00000143        0.00001705
      34         -0.868196        1.000000        0.00000073        0.00001201        0.00000154        0.00000607
      35         -0.866159        1.000000        0.00246742        0.00001513        0.00107663        0.00082048
      36         -0.861772        1.000000        0.00007825        0.00000199        0.00005793        0.00001365
      37         -0.859049        1.000000        0.00000001        0.00000000        0.00000001        0.00000001
      38         -0.856955        1.000000        0.00000695        0.00000094        0.00000003        0.00000366
      39         -0.854257        1.000000        0.00032688        0.00001513        0.00000323        0.00027528
      40         -0.853333        1.000000        0.01139196        0.00010716        0.00384979        0.00396576
      41         -0.853094        1.000000        0.00123185        0.00001453        0.00009824        0.00095974
      42         -0.851563        1.000000        0.00000000        0.00000000        0.00000003        0.00000000
      43         -0.850257        1.000000        0.00000006        0.00000001        0.00000001        0.00000008
      44         -0.849753        1.000000        0.00000035        0.00000008        0.00000007        0.00000021
      45         -0.849479        1.000000        0.00000000        0.00000000        0.00000207        0.00000522
      46         -0.848175        1.000000        0.00009051        0.00000553        0.00000882        0.00006353
      47         -0.847946        1.000000        0.00000000        0.00000000        0.00000000        0.00000001
      48         -0.845834        1.000000        0.00000074        0.00000001        0.00000025        0.00000018
      49         -0.845407        1.000000        0.00000134        0.00000156        0.00000001        0.00000100
      50         -0.842138        1.000000        0.00544277        0.00017855        0.00004546        0.00358263
      51         -0.841866        1.000000        0.00050412        0.00003376        0.00001064        0.00038259
      52         -0.839393        1.000000        0.00000000        0.00000000        0.00000000        0.00000000
      53         -0.839304        1.000000        0.00108717        0.00001584        0.00009238        0.00072047
      54         -0.838852        1.000000        0.00000522        0.00000394        0.00003158        0.00003628
      55         -0.838798        1.000000        0.00027881        0.00000423        0.00009612        0.00011531
      56         -0.838181        1.000000        0.00677963        0.00010867        0.00040451        0.00459081
      57         -0.837821        1.000000        0.03348608        0.00032926        0.00859980        0.01169611
      58         -0.837549        1.000000        0.00033524        0.00004154        0.00013819        0.00007335
      59         -0.837187        1.000000        0.00000346        0.00000027        0.00000013        0.00000277
      60         -0.836564        1.000000        0.00000019        0.00000001        0.00000000        0.00000010
      61         -0.834125        1.000000        0.00730001        0.00018965        0.00053436        0.00483255
      62         -0.832466        1.000000        0.00000164        0.00000049        0.00001434        0.00002246
      63         -0.831917        1.000000        0.07289161        0.00263031        0.03534896        0.00492737
      64         -0.831737        1.000000        0.00000000        0.00000000        0.00000000        0.00000000
      65         -0.830164        1.000000        0.00000000        0.00000000        0.00000000        0.00000000
      66         -0.829054        1.000000        0.01208466        0.00026754        0.00023611        0.00720031
      67         -0.827673        1.000000        0.00617166        0.00018586        0.00044941        0.00377947
      68         -0.827518        1.000000        0.00303650        0.00016187        0.00011801        0.00185561
      69         -0.823005        1.000000        0.00000316        0.00000003        0.00000064        0.00000120
      70         -0.822726        1.000000        0.03076431        0.00025956        0.00618552        0.01031658
      71         -0.818869        1.000000        0.00000000        0.00000000        0.00000000        0.00000000
      72         -0.818597        1.000000        0.02485801        0.00047403        0.00067703        0.01343521
      73         -0.817602        1.000000        0.00009669        0.00000719        0.00005443        0.00000961
      74         -0.813464        1.000000        0.00000011        0.00000002        0.00000008        0.00000002
      75         -0.810915        1.000000        0.02115474        0.00052869        0.00114148        0.01059205
      76         -0.809518        1.000000        0.05383655        0.00217012        0.00421549        0.02738307
      77         -0.808821        1.000000        0.00000856        0.00000316        0.00000012        0.00000274
      78         -0.808586        1.000000        0.00002935        0.00000109        0.00000200        0.00001399
      79         -0.806728        1.000000        0.00006112        0.00001285        0.00013448        0.00010325
      80         -0.806526        1.000000        0.00002883        0.00000720        0.00009232        0.00010209
      81         -0.805910        1.000000        0.00000095        0.00000007        0.00000181        0.00000157
      82         -0.803045        1.000000        0.01114304        0.00012836        0.00027869        0.00517549
      83         -0.796640        1.000000        0.07727758        0.00221174        0.00385807        0.03479674
      84         -0.793116        1.000000        0.00000100        0.00000003        0.00000024        0.00000025
      85         -0.790038        1.000000        0.00649023        0.00005750        0.00023020        0.00265930
      86         -0.630103        1.000000        0.43909194        0.00001539        0.00093538        0.00063138
      87         -0.613544        1.000000        0.44113268        0.00002939        0.00062496        0.00015965
      88         -0.604655        1.000000        0.15827719        0.00000064        0.00050656        0.00176444
      89         -0.603163        1.000000        0.43028752        0.00012839        0.00641609        0.00048853
      90         -0.602787        1.000000        0.27127134        0.00011999        0.00179346        0.00268238
      91         -0.590647        1.000000        0.22082339        0.00004175        0.00031930        0.00465921
      92         -0.588102        1.000000        0.20441130        0.00018467        0.00037133        0.00283836
      93         -0.581127        1.000000        0.42096724        0.00046382        0.00076470        0.00812691
      94         -0.573060        1.000000        0.42747893        0.00014514        0.00032407        0.00382053
      95         -0.570249        1.000000        0.00727408        0.00008576        0.00000999        0.00003999
      96         -0.569436        1.000000        0.00021658        0.00000324        0.00003537        0.00003782
      97         -0.561008        1.000000        0.00004921        0.00002678        0.00008676        0.00000447
      98         -0.556390        1.000000        0.00089432        0.00017145        0.00002641        0.00014935
      99         -0.554744        1.000000        0.00039698        0.00021994        0.00027755        0.00001333
     100         -0.550024        1.000000        0.00029030        0.00014152        0.00014326        0.00018336
     101         -0.546658        1.000000        0.00022139        0.00061413        0.00047999        0.00017236
     102         -0.544971        1.000000        0.00041198        0.00044237        0.00007444        0.00060375
     103         -0.542042        1.000000        0.00021188        0.00118503        0.00025886        0.00037731
     104         -0.541825        1.000000        0.00016041        0.00006349        0.00001869        0.00009419
     105         -0.539575        1.000000        0.00033424        0.00028233        0.00039999        0.00019343
     106         -0.539525        1.000000        0.00100915        0.00070276        0.00156542        0.00134971
     107         -0.537614        1.000000        0.00041940        0.00415547        0.00024295        0.00004720
     108         -0.536878        1.000000        0.00036934        0.00081491        0.00187684        0.00149569
     109         -0.536296        1.000000        0.00017301        0.00026829        0.00046171        0.00051351
     110         -0.535540        1.000000        0.00031468        0.00025986        0.00063360        0.00115810
     111         -0.534608        1.000000        0.00026580        0.00118517        0.00024969        0.00058450
     112         -0.533212        1.000000        0.00040914        0.00061499        0.00037273        0.00020583
     113         -0.531818        1.000000        0.00001286        0.00005920        0.00006109        0.00005914
     114         -0.531057        1.000000        0.00033682        0.00033180        0.00009490        0.00038204
     115         -0.529355        1.000000        0.00051302        0.00018553        0.00055265        0.00062365
     116         -0.527532        1.000000        0.00063577        0.00099397        0.00107800        0.00104516
     117         -0.526124        1.000000        0.00055592        0.00042434        0.00012052        0.00011594
     118         -0.525513        1.000000        0.00028518        0.00015906        0.00060937        0.00201500
     119         -0.525387        1.000000        0.00029970        0.00029799        0.00014255        0.00028565
     120         -0.522930        1.000000        0.00039089        0.00024591        0.00107703        0.00151132
     121         -0.521427        1.000000        0.00000976        0.00016751        0.00004211        0.00017573
     122         -0.520470        1.000000        0.00006644        0.00061528        0.00011927        0.00040653
     123         -0.520281        1.000000        0.00025991        0.00009251        0.00031498        0.00026774
     124         -0.519314        1.000000        0.00016248        0.00009340        0.00036909        0.00020388
     125         -0.518918        1.000000        0.00004589        0.00013618        0.00007375        0.00002749
     126         -0.518380        1.000000        0.00005190        0.00053625        0.00013089        0.00004135
     127         -0.518217        1.000000        0.00008020        0.00042153        0.00034398        0.00004389
     128         -0.517007        1.000000        0.00008876        0.00041470        0.00016066        0.00019416
     129         -0.507256        1.000000        0.00006558        0.00273565        0.01317522        0.03101788
     130         -0.502476        1.000000        0.00005526        0.05197545        0.00159287        0.00043718
     131         -0.501695        1.000000        0.00025872        0.03658059        0.00749556        0.00421828
     132         -0.492198        1.000000        0.00019815        0.00299989        0.03496849        0.01382804
     133         -0.484394        1.000000        0.00004335        0.00055376        0.00207995        0.00022447
     134         -0.482366        1.000000        0.00002909        0.00002918        0.00009482        0.00000877
     135         -0.481158        1.000000        0.00011534        0.01547534        0.00392279        0.00762762
     136         -0.478179        1.000000        0.00000129        0.00002643        0.00000271        0.00000058
     137         -0.477689        1.000000        0.00000436        0.00003702        0.00001885        0.00000072
     138         -0.475207        1.000000        0.00011552        0.01628770        0.00497235        0.01322392
     139         -0.474379        1.000000        0.00000158        0.00181951        0.00000507        0.00000840
     140         -0.473464        1.000000        0.00000005        0.00000025        0.00000004        0.00000016
     141         -0.473050        1.000000        0.00001076        0.07444496        0.00063615        0.00022604
     142         -0.472187        1.000000        0.00000585        0.00010504        0.00001415        0.00003658
     143         -0.472157        1.000000        0.00001746        0.00006799        0.00004125        0.00003773
     144         -0.468862        1.000000        0.00000638        0.00041646        0.00022543        0.00070043
     145         -0.468117        1.000000        0.00000627        0.00054267        0.00017597        0.00002183
     146         -0.465573        1.000000        0.00001204        0.00046847        0.00022653        0.00026616
     147         -0.464342        1.000000        0.00001258        0.00001121        0.00041980        0.00014394
     148         -0.463229        1.000000        0.00074257        0.00056292        0.04897973        0.02160694
     149         -0.462574        1.000000        0.00000010        0.00000134        0.00000148        0.00000046
     150         -0.460842        1.000000        0.00004301        0.01992679        0.00214721        0.04416266
     151         -0.459519        1.000000        0.00000047        0.00001251        0.00000277        0.00000415
     152         -0.459076        1.000000        0.00000006        0.00000035        0.00000234        0.00000037
     153         -0.457388        1.000000        0.00000091        0.00000201        0.00000420        0.00000102
     154         -0.455193        1.000000        0.00000202        0.00002088        0.00001774        0.00000126
     155         -0.454446        1.000000        0.00006868        0.02383893        0.01662109        0.00504907
     156         -0.454259        1.000000        0.00007434        0.01912385        0.01428065        0.00437990
     157         -0.453743        1.000000        0.00000464        0.00253022        0.00001079        0.00021885
     158         -0.453589        1.000000        0.00000177        0.00000367        0.00005541        0.00000890
     159         -0.451862        1.000000        0.00000094        0.00038052        0.00349638        0.00028310
     160         -0.451820        1.000000        0.00001501        0.00552787        0.05178081        0.00429363
     161         -0.451752        1.000000        0.00007462        0.01748809        0.00003168        0.00136997
     162         -0.450470        1.000000        0.00000863        0.00011719        0.00009760        0.00008273
     163         -0.450021        1.000000        0.00000168        0.00000609        0.00001398        0.00000314
     164         -0.449259        1.000000        0.00000261        0.03119091        0.02933153        0.00981057
     165         -0.445603        1.000000        0.00000211        0.00002123        0.00002917        0.00001713
     166         -0.445042        1.000000        0.00000003        0.00000053        0.00000019        0.00000012
     167         -0.441785        1.000000        0.00002325        0.00019006        0.00071820        0.00364639
     168         -0.441091        1.000000        0.00000067        0.00000395        0.00000064        0.00000562
     169         -0.440589        1.000000        0.00010367        0.00302097        0.00689459        0.00080039
     170         -0.440151        1.000000        0.00000144        0.00015865        0.00000715        0.00002255
     171         -0.439689        1.000000        0.00021986        0.05594663        0.00193312        0.01038641
     172         -0.437730        1.000000        0.00045185        0.04207483        0.03732402        0.00149016
     173         -0.436443        1.000000        0.00001995        0.00045909        0.00084457        0.00008305
     174         -0.435885        1.000000        0.00000007        0.00021275        0.00000591        0.00000667
     175         -0.434706        1.000000        0.00001280        0.00003654        0.00012843        0.00001072
     176         -0.434603        1.000000        0.00000269        0.00034548        0.00034146        0.00023235
     177         -0.434597        1.000000        0.00000176        0.00269439        0.00014389        0.00008747
     178         -0.434435        1.000000        0.00000029        0.00005486        0.00001330        0.00000856
     179         -0.433333        1.000000        0.00000011        0.00002536        0.00000924        0.00000043
     180         -0.432365        1.000000        0.00001837        0.00031696        0.00223134        0.00134988
     181         -0.432194        1.000000        0.00000399        0.00034483        0.00013873        0.00002504
     182         -0.428548        1.000000        0.00000500        0.00001622        0.00001739        0.00006884
     183         -0.427988        1.000000        0.00000149        0.00000054        0.00001068        0.00000570
     184         -0.427460        1.000000        0.00002265        0.00025238        0.00010418        0.00010278
     185         -0.427229        1.000000        0.00002056        0.00018375        0.00034974        0.00057234
     186         -0.426390        1.000000        0.00001612        0.00010604        0.00005745        0.00004029
     187         -0.425453        1.000000        0.00000900        0.00018178        0.00009845        0.00041297
     188         -0.422605        1.000000        0.00000133        0.04754379        0.05263210        0.00056800
     189         -0.421601        1.000000        0.00033378        0.00138719        0.00022863        0.00147102
     190         -0.421353        1.000000        0.00001460        0.00011546        0.00010611        0.00000509
     191         -0.420558        1.000000        0.00003666        0.00010837        0.00008393        0.00022554
     192         -0.419358        1.000000        0.00000013        0.00000008        0.00000103        0.00000130
     193         -0.418942        1.000000        0.00000245        0.00001052        0.00010993        0.00000531
     194         -0.417281        1.000000        0.00019689        0.00041326        0.00112205        0.00146177
     195         -0.415672        1.000000        0.00000830        0.00000731        0.00007105        0.00006129
     196         -0.414638        1.000000        0.00015827        0.00007631        0.00233762        0.00294633
     197         -0.414355        1.000000        0.00017142        0.00009314        0.00194897        0.00389851
     198         -0.413453        1.000000        0.00000300        0.00001116        0.00003191        0.00001826
     199         -0.413197        1.000000        0.00017346        0.00025411        0.00203791        0.00109602
     200         -0.412702        1.000000        0.00002064        0.00002209        0.00031369        0.00012991
     201         -0.411336        1.000000        0.00008868        0.00150158        0.00147693        0.00019815
     202         -0.411206        1.000000        0.00621496        0.00277466        0.05481819        0.03304663
     203         -0.410283        1.000000        0.00006897        0.00011007        0.00077542        0.00050496
     204         -0.409894        1.000000        0.01546222        0.00298784        0.15266083        0.07768335
     205         -0.408464        1.000000        0.00030321        0.00028292        0.00311293        0.00279802
     206         -0.407492        1.000000        0.00009229        0.00005526        0.00071577        0.00039666
     207         -0.407054        1.000000        0.00025020        0.00039085        0.00088789        0.00134500
     208         -0.405453        1.000000        0.00004497        0.00019877        0.00073426        0.00039982
     209         -0.404658        1.000000        0.00000201        0.00002001        0.00000621        0.00009360
     210         -0.404469        1.000000        0.00000679        0.00000754        0.00001738        0.00000844
     211         -0.403211        1.000000        0.00000654        0.00008948        0.00002359        0.00012678
     212         -0.402349        1.000000        0.00022843        0.00053856        0.00092366        0.00144126
     213         -0.401522        1.000000        0.00090667        0.00301614        0.00300464        0.00530461
     214         -0.400707        1.000000        0.00044939        0.00099866        0.00224842        0.00288411
     215         -0.399332        1.000000        0.00000357        0.00001546        0.00001881        0.00003755
     216         -0.397873        1.000000        0.00000688        0.00001867        0.00005617        0.00005335
     217         -0.395806        1.000000        0.00145240        0.00386729        0.00282068        0.01172957
     218         -0.395631        1.000000        0.02196765        0.05774849        0.04336388        0.17721261
     219         -0.394808        1.000000        0.00000151        0.00000186        0.00000372        0.00005650
     220         -0.394543        1.000000        0.00000226        0.00000698        0.00002732        0.00002356
     221         -0.393792        1.000000        0.00000386        0.00011076        0.00013651        0.00011269
     222         -0.389723        1.000000        0.00000024        0.00000070        0.00000085        0.00000225
     223         -0.388775        1.000000        0.00000068        0.00000608        0.00000091        0.00000170
     224         -0.385410        1.000000        0.00154017        0.00225463        0.01052952        0.00239887
     225         -0.382900        1.000000        0.00003941        0.00399123        0.00223528        0.00812430
     226         -0.380803        1.000000        0.01152449        0.00381410        0.19146529        0.14728817
     227         -0.380457        1.000000        0.01177862        0.02531804        0.26608527        0.04792787
     228         -0.379392        1.000000        0.00002959        0.00065394        0.00000687        0.00000758
     229         -0.378721        1.000000        0.00000262        0.00000628        0.00004764        0.00001593
     230         -0.378035        1.000000        0.00135046        0.00860960        0.00052811        0.00206064
     231         -0.375495        1.000000        0.00000020        0.00000010        0.00000239        0.00000143
     232         -0.373506        1.000000        0.00000269        0.00000222        0.00005030        0.00003190
     233         -0.368549        1.000000        0.00000530        0.00006942        0.00028207        0.00003873
     234         -0.364006        1.000000        0.00993496        0.01330918        0.00684516        0.32022676
     235         -0.360843        1.000000        0.00995995        0.00266880        0.01589238        0.31695869
     236         -0.352981        1.000000        0.00000548        0.00007848        0.00009524        0.00008009
     237         -0.352737        1.000000        0.00852395        0.00146316        0.01629722        0.17692464
     238         -0.352616        1.000000        0.00610745        0.00101816        0.01196037        0.12720983
     239         -0.348463        1.000000        0.00000068        0.00010763        0.00034295        0.00054833
     240         -0.348328        1.000000        0.00000431        0.33798019        0.09568507        0.08975895
     241         -0.347055        1.000000        0.00000964        0.18152071        0.08906705        0.26006415
     242         -0.339126        1.000000        0.00019730        0.00142156        0.17081486        0.26036695
     243         -0.336797        1.000000        0.00000234        0.00167163        0.00162022        0.00249585
     244         -0.335413        1.000000        0.00000750        0.33372273        0.02394963        0.02558370
     245         -0.334679        1.000000        0.00000380        0.00662823        0.00183992        0.00108237
     246         -0.330867        1.000000        0.00001891        0.01295939        0.09187110        0.38272012
     247         -0.330334        1.000000        0.00008486        0.25116516        0.08178461        0.19031779
     248         -0.327776        1.000000        0.00006049        0.05174128        0.00542324        0.00174154
     249         -0.327477        1.000000        0.00015344        0.15766980        0.34429536        0.00306592
     250         -0.327246        1.000000        0.00002922        0.04076135        0.00701420        0.00149566
     251         -0.325955        1.000000        0.00000030        0.41571928        0.00103296        0.00687719
     252         -0.325735        1.000000        0.00001783        0.00097442        0.02659264        0.00125579
     253         -0.324915        1.000000        0.00000074        0.07735886        0.00037438        0.00006188
     254         -0.323201        1.000000        0.00000709        0.01069954        0.00116812        0.00042053
     255         -0.321826        1.000000        0.00009854        0.04592661        0.35644567        0.00002745
     256         -0.314536        1.000000        0.00001974        0.02278649        0.00575066        0.00080039
     257         -0.313829        1.000000        0.00002609        0.24918152        0.02652469        0.00024391
     258         -0.312652        1.000000        0.00003822        0.05870590        0.00705375        0.00354567
     259         -0.312432        1.000000        0.00000676        0.06154349        0.02554232        0.01449936