# Projected DOS for atomic kind I at iteration step i = 0, E(Fermi) =    -0.128555 a.u.
#     MO Eigenvalue [a.u.]      Occupation                 s                py                pz                px
       1         -0.932975        1.000000        0.00010542        0.00017311        0.00020582        0.00010657
       2         -0.923369        1.000000        0.00010963        0.00016118        0.00023204        0.00010290
       3         -0.922485        1.000000        0.00016843        0.00028498        0.00009919        0.00035917
       4         -0.917151        1.000000        0.00008596        0.00020913        0.00012784        0.00003837
       5         -0.914873        1.000000        0.00002405        0.00000253        0.00003535        0.00013804
       6         -0.911518        1.000000        0.00020007        0.00038824        0.00017588        0.00016842
       7         -0.907442        1.000000        0.00000329        0.00001278        0.00000596        0.00002876
       8         -0.906332        1.000000        0.00015601        0.00026645        0.00015154        0.00021014
       9         -0.906159        1.000000        0.00008949        0.00012579        0.00025211        0.00009487
      10         -0.906114        1.000000        0.00024747        0.00052426        0.00020229        0.00000896
      11         -0.905672        1.000000        0.00072472        0.00089060        0.00034062        0.00041847
      12         -0.902644        1.000000        0.00014167        0.00017301        0.00035296        0.00011271
      13         -0.899769        1.000000        0.00007227        0.00005095        0.00000622        0.00027044
      14         -0.896883        1.000000        0.00005275        0.00008323        0.00008708        0.00016765
      15         -0.891112        1.000000        0.00007079        0.00011228        0.00001476        0.00018390
      16         -0.888091        1.000000        0.00001347        0.00000401        0.00006850        0.00008163
      17         -0.887748        1.000000        0.00073199        0.00113885        0.00057708        0.00006152
      18         -0.887238        1.000000        0.00017315        0.00038623        0.00007536        0.00038180
      19         -0.884614        1.000000        0.00005332        0.00008453        0.00004336        0.00001516
      20         -0.884366        1.000000        0.00119499        0.00108453        0.00058061        0.00044979
      21         -0.882257        1.000000        0.00014658        0.00018089        0.00048176        0.00007344
      22         -0.881964        1.000000        0.00001560        0.00005295        0.00001842        0.00004448
      23         -0.881711        1.000000        0.00000582        0.00010123        0.00000372        0.00002601
      24         -0.880737        1.000000        0.00020423        0.00021178        0.00009591        0.00026132
      25         -0.879860        1.000000        0.00004058        0.00005994        0.00011387        0.00003503
      26         -0.879127        1.000000        0.00005104        0.00006134        0.00006888        0.00015342
      27         -0.877222        1.000000        0.00014793        0.00033647        0.00033645        0.00008816
      28         -0.876040        1.000000        0.00031367        0.00015638        0.00004504        0.00047241
      29         -0.872516        1.000000        0.00017581        0.00015781        0.00006472        0.00031624
      30         -0.872228        1.000000        0.00043852        0.00008914        0.00118519        0.00002754
      31         -0.872145        1.000000        0.00001876        0.00001324        0.00004091        0.00000770
      32         -0.870541        1.000000        0.00011613        0.00001737        0.00048005        0.00000646
      33         -0.868925        1.000000        0.00010700        0.00006365        0.00006357        0.00014084
      34         -0.868197        1.000000        0.00000312        0.00000214        0.00002234        0.00000777
      35         -0.866156        1.000000        0.00000493        0.00002409        0.00002986        0.00001141
      36         -0.861810        1.000000        0.00001059        0.00001835        0.00000170        0.00002097
      37         -0.858982        1.000000        0.00009688        0.00030059        0.00000545        0.00002665
      38         -0.856960        1.000000        0.00255796        0.00254520        0.00199596        0.00027345
      39         -0.854255        1.000000        0.00008381        0.00005827        0.00002113        0.00023545
      40         -0.853331        1.000000        0.00001899        0.00003381        0.00002374        0.00002260
      41         -0.853082        1.000000        0.00008956        0.00004734        0.00020519        0.00011099
      42         -0.851564        1.000000        0.00148445        0.00066049        0.00050306        0.00138814
      43         -0.850260        1.000000        0.00584936        0.00379224        0.00345981        0.00067023
      44         -0.849754        1.000000        0.00131599        0.00050677        0.00027285        0.00143561
      45         -0.849311        1.000000        0.00005609        0.00000136        0.00001072        0.00030394
      46         -0.848192        1.000000        0.00007918        0.00006430        0.00004274        0.00012359
      47         -0.847948        1.000000        0.00001462        0.00002138        0.00005970        0.00000161
      48         -0.845468        1.000000        0.00003744        0.00017286        0.00005688        0.00000072
      49         -0.842124        1.000000        0.00006049        0.00008668        0.00007033        0.00005079
      50         -0.840333        1.000000        0.00173250        0.00008891        0.00337362        0.00020975
      51         -0.839395        1.000000        0.00001115        0.00002836        0.00000188        0.00003844
      52         -0.839304        1.000000        0.00118039        0.00043564        0.00034111        0.00091667
      53         -0.839207        1.000000        0.00002557        0.00011688        0.00000277        0.00002512
      54         -0.839020        1.000000        0.00001987        0.00001885        0.00000269        0.00010864
      55         -0.838180        1.000000        0.00001104        0.00001177        0.00001490        0.00002444
      56         -0.837824        1.000000        0.00007297        0.00010705        0.00006451        0.00007973
      57         -0.837554        1.000000        0.00003757        0.00006935        0.00005015        0.00002304
      58         -0.837159        1.000000        0.00003345        0.00002552        0.00014183        0.00000609
      59         -0.836564        1.000000        0.00001293        0.00003650        0.00000713        0.00004234
      60         -0.835956        1.000000        0.00045760        0.00000537        0.00142321        0.00003225
      61         -0.834117        1.000000        0.00002385        0.00003469        0.00016479        0.00000979
      62         -0.831917        1.000000        0.00004024        0.00010890        0.00008962        0.00006392
      63         -0.831898        1.000000        0.00004672        0.00004569        0.00000140        0.00018470
      64         -0.831698        1.000000        0.00001002        0.00000091        0.00004058        0.00001571
      65         -0.830174        1.000000        0.00001700        0.00005937        0.00002469        0.00000341
      66         -0.829054        1.000000        0.00007380        0.00010298        0.00005487        0.00008607
      67         -0.827669        1.000000        0.00016828        0.00005136        0.00014565        0.00021002
      68         -0.827508        1.000000        0.00009355        0.00010451        0.00004656        0.00022110
      69         -0.824451        1.000000        0.00011988        0.00014446        0.00000628        0.00035236
      70         -0.822724        1.000000        0.00006230        0.00009534        0.00005133        0.00006718
      71         -0.821479        1.000000        0.00003549        0.00007299        0.00005171        0.00007329
      72         -0.818839        1.000000        0.00002364        0.00002385        0.00005606        0.00004283
      73         -0.818607        1.000000        0.00007861        0.00010861        0.00007119        0.00010059
      74         -0.813480        1.000000        0.00860898        0.00346174        0.00088056        0.00633286
      75         -0.810930        1.000000        0.00006450        0.00011862        0.00005314        0.00004545
      76         -0.810542        1.000000        0.00009193        0.00031581        0.00000946        0.00005453
      77         -0.809508        1.000000        0.00007834        0.00010456        0.00019234        0.00001204
      78         -0.808087        1.000000        0.00002256        0.00003372        0.00002265        0.00004621
      79         -0.807329        1.000000        0.00006343        0.00000564        0.00007972        0.00011783
      80         -0.805687        1.000000        0.00001812        0.00003150        0.00000260        0.00004601
      81         -0.804826        1.000000        0.00002595        0.00003132        0.00000244        0.00011125
      82         -0.803037        1.000000        0.00005066        0.00004326        0.00003606        0.00005914
      83         -0.796639        1.000000        0.00001071        0.00000949        0.00001296        0.00003273
      84         -0.793123        1.000000        0.01399493        0.00452118        0.00132946        0.00858863
      85         -0.790036        1.000000        0.00002349        0.00002862        0.00001881        0.00002425
      86         -0.630106        1.000000        0.00244718        0.00043198        0.00046450        0.00050907
      87         -0.613534        1.000000        0.00132991        0.00012216        0.00030723        0.00017276
      88         -0.604644        1.000000        0.60110229        0.00550118        0.00776492        0.00046146
      89         -0.603173        1.000000        0.00200512        0.00015567        0.00039111        0.00031207
      90         -0.602776        1.000000        0.34993322        0.00295721        0.00426292        0.00013346
      91         -0.590654        1.000000        0.45670748        0.00715754        0.00706164        0.00083506
      92         -0.588111        1.000000        0.50360910        0.00702705        0.00725811        0.00131577
      93         -0.581125        1.000000        0.00208173        0.00020062        0.00018643        0.00011692
      94         -0.573046        1.000000        0.01308376        0.00017957        0.00013969        0.00025096
      95         -0.569681        1.000000        0.85290469        0.00471063        0.00605784        0.00376200
      96         -0.569362        1.000000        0.94710828        0.00631029        0.00114776        0.00801661
      97         -0.560967        1.000000        0.93871196        0.00477306        0.00085035        0.00612939
      98         -0.556334        1.000000        0.88775330        0.00483488        0.00226963        0.00230902
      99         -0.550751        1.000000        0.94723669        0.00483316        0.00866381        0.00170062
     100         -0.546842        1.000000        0.83156539        0.00427077        0.00414166        0.00353596
     101         -0.546341        1.000000        0.87573410        0.00377151        0.00398534        0.00239408
     102         -0.545303        1.000000        0.94088196        0.00178059        0.00108975        0.00033271
     103         -0.541520        1.000000        0.94856460        0.00094733        0.00048567        0.00202323
     104         -0.539595        1.000000        0.95156953        0.00887491        0.00579986        0.00095032
     105         -0.539422        1.000000        0.82625242        0.00306980        0.00319574        0.00209541
     106         -0.538007        1.000000        0.83967247        0.00208194        0.00230003        0.00160835
     107         -0.537007        1.000000        0.82765012        0.00244952        0.00324574        0.00179944
     108         -0.536779        1.000000        0.87879730        0.00191402        0.00188241        0.00121434
     109         -0.536112        1.000000        0.84185692        0.00564325        0.00379276        0.00147837
     110         -0.535587        1.000000        0.87482152        0.00251873        0.00241671        0.00134689
     111         -0.534071        1.000000        0.85228593        0.00324703        0.00301483        0.00264234
     112         -0.531116        1.000000        0.87328966        0.00152847        0.00267419        0.00127973
     113         -0.531066        1.000000        0.86395737        0.00127736        0.00228354        0.00125430
     114         -0.529584        1.000000        0.94087119        0.00070303        0.00022306        0.00061910
     115         -0.529140        1.000000        0.89426832        0.00276351        0.00074640        0.00138552
     116         -0.527452        1.000000        0.84715100        0.00144916        0.00088909        0.00264890
     117         -0.526003        1.000000        0.89385498        0.00105369        0.00208056        0.00087047
     118         -0.525311        1.000000        0.90687020        0.00101630        0.00170215        0.00085333
     119         -0.525243        1.000000        0.90280648        0.00087124        0.00182417        0.00099016
     120         -0.522405        1.000000        0.88599568        0.00030165        0.00073242        0.00069334
     121         -0.521441        1.000000        0.95402453        0.00146596        0.00049905        0.00155789
     122         -0.520357        1.000000        0.90646692        0.00194192        0.00097567        0.00031165
     123         -0.519951        1.000000        0.92941618        0.00033453        0.00094397        0.00081261
     124         -0.518947        1.000000        0.93706149        0.00288966        0.00194839        0.00423937
     125         -0.518861        1.000000        0.94322618        0.00253200        0.00232014        0.00375385
     126         -0.518274        1.000000        0.90214502        0.00069218        0.00084962        0.00061625
     127         -0.517917        1.000000        0.96049318        0.00408392        0.00088689        0.00557231
     128         -0.516604        1.000000        0.94233941        0.00051833        0.00075821        0.00064568
     129         -0.506935        1.000000        0.20350617        0.00221520        0.00125833        0.00332219
     130         -0.502174        1.000000        0.17554013        0.00450824        0.00127315        0.00237237
     131         -0.501686        1.000000        0.07895520        0.00482664        0.00369866        0.00054383
     132         -0.492145        1.000000        0.09164748        0.00408420        0.00316812        0.00091849
     133         -0.484412        1.000000        0.06689483        0.00064756        0.00216829        0.00231019
     134         -0.482350        1.000000        0.09296710        0.00153507        0.00161409        0.00294098
     135         -0.481159        1.000000        0.03609430        0.00196202        0.00060837        0.00072024
     136         -0.478179        1.000000        0.00498031        0.00011125        0.00019918        0.00031649
     137         -0.477656        1.000000        0.00440099        0.00023002        0.00019398        0.00231249
     138         -0.475207        1.000000        0.01782755        0.00288455        0.00028354        0.00061396
     139         -0.474376        1.000000        0.00151781        0.00052275        0.00044615        0.00086850
     140         -0.473467        1.000000        0.00035687        0.00008466        0.00013686        0.00006872
     141         -0.472932        1.000000        0.01222807        0.00355200        0.00074170        0.00179771
     142         -0.472185        1.000000        0.04780249        0.00200567        0.00232622        0.00254843
     143         -0.472153        1.000000        0.05600916        0.00238280        0.00262233        0.00239912
     144         -0.468863        1.000000        0.00014870        0.00008683        0.00042263        0.00023681
     145         -0.468117        1.000000        0.02300318        0.00374820        0.00025060        0.00551635
     146         -0.465568        1.000000        0.06143835        0.00059788        0.00021814        0.00563313
     147         -0.464311        1.000000        0.01245462        0.00197093        0.00360282        0.00067994
     148         -0.463219        1.000000        0.00288146        0.00069710        0.00064790        0.00109065
     149         -0.462581        1.000000        0.00137011        0.00018145        0.00069490        0.00005248
     150         -0.460842        1.000000        0.01026159        0.00092172        0.00056039        0.00023376
     151         -0.459526        1.000000        0.00272673        0.00234677        0.00130035        0.00020135
     152         -0.459097        1.000000        0.01243809        0.00122903        0.00445948        0.00064190
     153         -0.457374        1.000000        0.01233149        0.00101408        0.00080327        0.00165280
     154         -0.455206        1.000000        0.00241556        0.00024021        0.00041762        0.00005885
     155         -0.454450        1.000000        0.00884460        0.00182599        0.00155454        0.00155995
     156         -0.454261        1.000000        0.01258536        0.00168482        0.00100531        0.00112601
     157         -0.453739        1.000000        0.01277840        0.00377708        0.00034408        0.00277369
     158         -0.453586        1.000000        0.00980867        0.00176681        0.00086860        0.00196395
     159         -0.451883        1.000000        0.00466249        0.00089263        0.00181977        0.00065172
     160         -0.451809        1.000000        0.01135991        0.00213055        0.00251593        0.00033198
     161         -0.451756        1.000000        0.00421342        0.00139714        0.00027114        0.00031285
     162         -0.450436        1.000000        0.00145192        0.00032974        0.00068159        0.00022397
     163         -0.450021        1.000000        0.00251095        0.00001916        0.00124758        0.00018940
     164         -0.449258        1.000000        0.00088737        0.00029880        0.00030199        0.00041807
     165         -0.445604        1.000000        0.01068138        0.00245636        0.00147545        0.00082031
     166         -0.445041        1.000000        0.00017753        0.00010196        0.00001994        0.00005302
     167         -0.441781        1.000000        0.03290682        0.00114200        0.00811008        0.00137376
     168         -0.441082        1.000000        0.00513787        0.00106339        0.00031642        0.00049946
     169         -0.440588        1.000000        0.00651879        0.00314873        0.00140938        0.00534237
     170         -0.440102        1.000000        0.00074173        0.00149647        0.00017412        0.00038386
     171         -0.439665        1.000000        0.00288156        0.00047447        0.00133693        0.00021707
     172         -0.437730        1.000000        0.00622215        0.00101630        0.00086840        0.00122848
     173         -0.436440        1.000000        0.00066415        0.00012688        0.00031614        0.00021441
     174         -0.435887        1.000000        0.00038131        0.00107386        0.00005853        0.00237336
     175         -0.434598        1.000000        0.00098938        0.00039835        0.00018402        0.00064367
     176         -0.434594        1.000000        0.00135001        0.00066138        0.00022810        0.00040949
     177         -0.434420        1.000000        0.00633215        0.00021146        0.00052500        0.00130003
     178         -0.434076        1.000000        0.00387570        0.00134555        0.00455953        0.00103847
     179         -0.433335        1.000000        0.00120949        0.00006468        0.00052037        0.00637667
     180         -0.432341        1.000000        0.00093070        0.00020810        0.00024509        0.00027384
     181         -0.432195        1.000000        0.00234895        0.00037605        0.00022915        0.00032454
     182         -0.427984        1.000000        0.00018041        0.00011939        0.00017577        0.00001923
     183         -0.427458        1.000000        0.00484094        0.00080071        0.00131957        0.00060707
     184         -0.426975        1.000000        0.13684059        0.03345277        0.04045730        0.03126221
     185         -0.426390        1.000000        0.00239903        0.00092528        0.00235631        0.00092805
     186         -0.426022        1.000000        0.00048224        0.00042019        0.00127476        0.00048936
     187         -0.425381        1.000000        0.03748183        0.00879239        0.01160938        0.00542227
     188         -0.422604        1.000000        0.00032981        0.00020664        0.00041042        0.00023017
     189         -0.421537        1.000000        0.00214856        0.00130242        0.00091785        0.00070745
     190         -0.421349        1.000000        0.00012776        0.00012524        0.00004263        0.00006725
     191         -0.420329        1.000000        0.00846880        0.00909134        0.00236086        0.00268283
     192         -0.419357        1.000000        0.00055539        0.00018729        0.00454046        0.00020454
     193         -0.418939        1.000000        0.00423037        0.00220396        0.00177992        0.00286387
     194         -0.415661        1.000000        0.00545685        0.00127552        0.00216252        0.00338161
     195         -0.415171        1.000000        0.11510450        0.03517487        0.03432899        0.02946607
     196         -0.414663        1.000000        0.08344263        0.01907266        0.02815892        0.02981300
     197         -0.414355        1.000000        0.03393676        0.00793724        0.01126611        0.01110576
     198         -0.413446        1.000000        0.00248924        0.00079080        0.00562811        0.00053421
     199         -0.413200        1.000000        0.01796075        0.00531725        0.00521438        0.00965290
     200         -0.412710        1.000000        0.00819086        0.00166193        0.00170733        0.00387289
     201         -0.411334        1.000000        0.00025566        0.00012610        0.00008457        0.00021011
     202         -0.411195        1.000000        0.07096991        0.02053795        0.01943931        0.02372856
     203         -0.410284        1.000000        0.00033137        0.00016977        0.00009357        0.00027937
     204         -0.409855        1.000000        0.04037739        0.00955672        0.01150922        0.01425116
     205         -0.408423        1.000000        0.03197334        0.01106619        0.01107729        0.02021398
     206         -0.407495        1.000000        0.00767041        0.00207840        0.00789328        0.00251581
     207         -0.406883        1.000000        0.01680128        0.00102589        0.00539685        0.00351699
     208         -0.405410        1.000000        0.10043763        0.03291247        0.02730775        0.02735930
     209         -0.404660        1.000000        0.00037281        0.00032981        0.00044409        0.00023667
     210         -0.404415        1.000000        0.00158958        0.00049043        0.00052865        0.00040976
     211         -0.403217        1.000000        0.00081339        0.00022961        0.00029329        0.00030356
     212         -0.402339        1.000000        0.11307615        0.02825712        0.03019375        0.03225362
     213         -0.401311        1.000000        0.12162632        0.02789906        0.03259516        0.02753589
     214         -0.400619        1.000000        0.11511913        0.02353294        0.02926593        0.02534813
     215         -0.399335        1.000000        0.00308006        0.00219072        0.00099982        0.00238383
     216         -0.397877        1.000000        0.00731286        0.00163676        0.00148410        0.00142038
     217         -0.396457        1.000000        0.00034023        0.00035978        0.00024038        0.00015444
     218         -0.395806        1.000000        0.00092584        0.00173712        0.00077148        0.00022104
     219         -0.395582        1.000000        0.01074051        0.00173426        0.00224130        0.00288962
     220         -0.394800        1.000000        0.00202702        0.00044594        0.00005236        0.00043493
     221         -0.394543        1.000000        0.00358237        0.00091786        0.00049538        0.00071728
     222         -0.389704        1.000000        0.00065412        0.00005694        0.00068723        0.00056287
     223         -0.388791        1.000000        0.00076125        0.00205784        0.00064063        0.00006031
     224         -0.384968        1.000000        0.00043098        0.00005201        0.00004412        0.00006012
     225         -0.382879        1.000000        0.00050594        0.00018503        0.00034758        0.00016117
     226         -0.380788        1.000000        0.00119354        0.00222770        0.00058952        0.00120503
     227         -0.380466        1.000000        0.00106902        0.00061235        0.00213195        0.00090578
     228         -0.379945        1.000000        0.00196217        0.00030090        0.00237936        0.00265427
     229         -0.378393        1.000000        0.00215185        0.00164529        0.00015845        0.00278720
     230         -0.378163        1.000000        0.00071319        0.00096749        0.00076258        0.00134947
     231         -0.375485        1.000000        0.00080098        0.00031012        0.00164255        0.00121777
     232         -0.372774        1.000000        0.00061509        0.00070947        0.00005402        0.00081741
     233         -0.368550        1.000000        0.00460189        0.00863523        0.02313807        0.00355926
     234         -0.364014        1.000000        0.00145495        0.00282935        0.00141101        0.00145488
     235         -0.360842        1.000000        0.00031922        0.00061771        0.00051294        0.00063232
     236         -0.352987        1.000000        0.00396126        0.02093256        0.00733731        0.00337421
     237         -0.352733        1.000000        0.00300950        0.01057631        0.00108952        0.00677385
     238         -0.352613        1.000000        0.00254861        0.00948290        0.00121823        0.00611845
     239         -0.348467        1.000000        0.00633348        0.02724550        0.00432608        0.01575813
     240         -0.348326        1.000000        0.00260586        0.00411002        0.00364500        0.00681478
     241         -0.347064        1.000000        0.00169427        0.00182764        0.00303024        0.00403107
     242         -0.339125        1.000000        0.00031743        0.00160396        0.00068550        0.00373695
     243         -0.336797        1.000000        0.00282328        0.00821312        0.02523270        0.00375866
     244         -0.335426        1.000000        0.00083428        0.00257928        0.00173652        0.00146623
     245         -0.334686        1.000000        0.00392082        0.02980139        0.01456348        0.00581310
     246         -0.330876        1.000000        0.00142632        0.00130098        0.00215274        0.00364789
     247         -0.330306        1.000000        0.00032577        0.00107678        0.00161135        0.00084799
     248         -0.327769        1.000000        0.00159732        0.00240602        0.00461444        0.00267698
     249         -0.327454        1.000000        0.00044670        0.00207379        0.00258896        0.00170215
     250         -0.327235        1.000000        0.00108550        0.00331767        0.00215362        0.00261591
     251         -0.325847        1.000000        0.00064974        0.00499362        0.00173656        0.00355912
     252         -0.325390        1.000000        0.00082681        0.00329192        0.01190847        0.00134102
     253         -0.323868        1.000000        0.00083878        0.00302380        0.00492669        0.00110660
     254         -0.323202        1.000000        0.00191685        0.00292362        0.00292677        0.00424801
     255         -0.321820        1.000000        0.00020771        0.00207336        0.00186499        0.00058811
     256         -0.314532        1.000000        0.00157209        0.00610824        0.00209156        0.00715574
     257         -0.313827        1.000000        0.00068667        0.00326491        0.00086188        0.00252031
     258         -0.312681        1.000000        0.00068963        0.00265252        0.00123513        0.00257191
     259         -0.312430        1.000000        0.00087034        0.00325570        0.00249619        0.00396761