# Projected DOS for atomic kind Pb at iteration step i = 0, E(Fermi) =    -0.128555 a.u.
#     MO Eigenvalue [a.u.]      Occupation                 s                py                pz                px
       1         -0.932975        1.000000        0.00000040        0.00000023        0.00000105        0.00000957
       2         -0.923369        1.000000        0.00000054        0.00000158        0.00000062        0.00000791
       3         -0.922485        1.000000        0.00000067        0.00000948        0.00000181        0.00000422
       4         -0.917151        1.000000        0.00000015        0.00000083        0.00000012        0.00000004
       5         -0.914873        1.000000        0.00000010        0.00000007        0.00000002        0.00000047
       6         -0.911518        1.000000        0.00000038        0.00000026        0.00000012        0.00000372
       7         -0.907442        1.000000        0.00000002        0.00000022        0.00000001        0.00000004
       8         -0.906332        1.000000        0.00000054        0.00000001        0.00000074        0.00000527
       9         -0.906159        1.000000        0.00000056        0.00000283        0.00000677        0.00000112
      10         -0.906114        1.000000        0.00000000        0.00000010        0.00000055        0.00000020
      11         -0.905672        1.000000        0.00000002        0.00000152        0.00000430        0.00000006
      12         -0.902644        1.000000        0.00000129        0.00000591        0.00001612        0.00000275
      13         -0.899769        1.000000        0.00000010        0.00000006        0.00000002        0.00000048
      14         -0.896883        1.000000        0.00000076        0.00000210        0.00001247        0.00000750
      15         -0.891112        1.000000        0.00000011        0.00000145        0.00000001        0.00000000
      16         -0.888091        1.000000        0.00000010        0.00000178        0.00000217        0.00000000
      17         -0.887748        1.000000        0.00000009        0.00000008        0.00000062        0.00000015
      18         -0.887238        1.000000        0.00000022        0.00000166        0.00000257        0.00000081
      19         -0.884614        1.000000        0.00000001        0.00000006        0.00000017        0.00000020
      20         -0.884366        1.000000        0.00000059        0.00000122        0.00000261        0.00000108
      21         -0.882257        1.000000        0.00001094        0.00008049        0.00009983        0.00000910
      22         -0.881964        1.000000        0.00000031        0.00000364        0.00000113        0.00000217
      23         -0.881711        1.000000        0.00000004        0.00000032        0.00000041        0.00000039
      24         -0.880737        1.000000        0.00000098        0.00000642        0.00001438        0.00000473
      25         -0.879860        1.000000        0.00000016        0.00000012        0.00000063        0.00000277
      26         -0.879127        1.000000        0.00000052        0.00000264        0.00000197        0.00000835
      27         -0.877222        1.000000        0.00000017        0.00000108        0.00000088        0.00000162
      28         -0.876040        1.000000        0.00000001        0.00000116        0.00000033        0.00000003
      29         -0.872516        1.000000        0.00000026        0.00000134        0.00000432        0.00000056
      30         -0.872228        1.000000        0.00000094        0.00000062        0.00000089        0.00000489
      31         -0.872145        1.000000        0.00000006        0.00000021        0.00000021        0.00000168
      32         -0.870541        1.000000        0.00000018        0.00000032        0.00000016        0.00000130
      33         -0.868925        1.000000        0.00000003        0.00000059        0.00000006        0.00000045
      34         -0.868197        1.000000        0.00000003        0.00000003        0.00000011        0.00000042
      35         -0.866156        1.000000        0.00000001        0.00000018        0.00000020        0.00000043
      36         -0.861810        1.000000        0.00000002        0.00000023        0.00000002        0.00000003
      37         -0.858982        1.000000        0.00000042        0.00000223        0.00000316        0.00000158
      38         -0.856960        1.000000        0.00000003        0.00000048        0.00000027        0.00000023
      39         -0.854255        1.000000        0.00000043        0.00000009        0.00000010        0.00000142
      40         -0.853331        1.000000        0.00000007        0.00000016        0.00000067        0.00000065
      41         -0.853082        1.000000        0.00000010        0.00000055        0.00000004        0.00000029
      42         -0.851564        1.000000        0.00000001        0.00000035        0.00000257        0.00000259
      43         -0.850260        1.000000        0.00000030        0.00000314        0.00000222        0.00000001
      44         -0.849754        1.000000        0.00000000        0.00000153        0.00000019        0.00000105
      45         -0.849311        1.000000        0.00000015        0.00000116        0.00000000        0.00000005
      46         -0.848192        1.000000        0.00000139        0.00000837        0.00000889        0.00000956
      47         -0.847948        1.000000        0.00000003        0.00000003        0.00000014        0.00000000
      48         -0.845468        1.000000        0.00000043        0.00000122        0.00000006        0.00000000
      49         -0.842124        1.000000        0.00000020        0.00000089        0.00000175        0.00000025
      50         -0.840333        1.000000        0.00000769        0.00000033        0.00002218        0.00000558
      51         -0.839395        1.000000        0.00000004        0.00000009        0.00000042        0.00000018
      52         -0.839304        1.000000        0.00000016        0.00000080        0.00000045        0.00000001
      53         -0.839207        1.000000        0.00000014        0.00000065        0.00000032        0.00000065
      54         -0.839020        1.000000        0.00000015        0.00000003        0.00000002        0.00000050
      55         -0.838180        1.000000        0.00000004        0.00000002        0.00000003        0.00000017
      56         -0.837824        1.000000        0.00000013        0.00000046        0.00000084        0.00000035
      57         -0.837554        1.000000        0.00000001        0.00000007        0.00000001        0.00000001
      58         -0.837159        1.000000        0.00000017        0.00000001        0.00000059        0.00000000
      59         -0.836564        1.000000        0.00000005        0.00000005        0.00000046        0.00000019
      60         -0.835956        1.000000        0.00000192        0.00000004        0.00000566        0.00000141
      61         -0.834117        1.000000        0.00000009        0.00000028        0.00000006        0.00000027
      62         -0.831917        1.000000        0.00000196        0.00001556        0.00001984        0.00002024
      63         -0.831898        1.000000        0.00000038        0.00000008        0.00000017        0.00000102
      64         -0.831698        1.000000        0.00000003        0.00000036        0.00000008        0.00000020
      65         -0.830174        1.000000        0.00000027        0.00000205        0.00000192        0.00000312
      66         -0.829054        1.000000        0.00000090        0.00000436        0.00000837        0.00000338
      67         -0.827669        1.000000        0.00000026        0.00000043        0.00000010        0.00000142
      68         -0.827508        1.000000        0.00000024        0.00000011        0.00000004        0.00000075
      69         -0.824451        1.000000        0.00000052        0.00000272        0.00000046        0.00000001
      70         -0.822724        1.000000        0.00000013        0.00000033        0.00000066        0.00000035
      71         -0.821479        1.000000        0.00000019        0.00000072        0.00000130        0.00000118
      72         -0.818839        1.000000        0.00000010        0.00000078        0.00000070        0.00000055
      73         -0.818607        1.000000        0.00000197        0.00000510        0.00001777        0.00000861
      74         -0.813480        1.000000        0.00000127        0.00001058        0.00000037        0.00000034
      75         -0.810930        1.000000        0.00000054        0.00000323        0.00000350        0.00000094
      76         -0.810542        1.000000        0.00000043        0.00000128        0.00000088        0.00000054
      77         -0.809508        1.000000        0.00000006        0.00000028        0.00000009        0.00000027
      78         -0.808087        1.000000        0.00000004        0.00000016        0.00000018        0.00000015
      79         -0.807329        1.000000        0.00000085        0.00000423        0.00000319        0.00000261
      80         -0.805687        1.000000        0.00000002        0.00000067        0.00000006        0.00000000
      81         -0.804826        1.000000        0.00000017        0.00000007        0.00000008        0.00000046
      82         -0.803037        1.000000        0.00000109        0.00000469        0.00000766        0.00000283
      83         -0.796639        1.000000        0.00000003        0.00000033        0.00000032        0.00000013
      84         -0.793123        1.000000        0.00000120        0.00001064        0.00000025        0.00000061
      85         -0.790036        1.000000        0.00000046        0.00000107        0.00000276        0.00000126
      86         -0.630106        1.000000        0.00003932        0.00004018        0.00002707        0.00002351
      87         -0.613534        1.000000        0.00001352        0.00001317        0.00000374        0.00001514
      88         -0.604644        1.000000        0.00122488        0.00100584        0.00140249        0.00012326
      89         -0.603173        1.000000        0.00019370        0.00016340        0.00012295        0.00017841
      90         -0.602776        1.000000        0.00086725        0.00069147        0.00087542        0.00004789
      91         -0.590654        1.000000        0.00053392        0.00023392        0.00026552        0.00000583
      92         -0.588111        1.000000        0.00027356        0.00024470        0.00023893        0.00001620
      93         -0.581125        1.000000        0.00007599        0.00002128        0.00003647        0.00003479
      94         -0.573046        1.000000        0.00181779        0.00010693        0.00000457        0.00000589
      95         -0.569681        1.000000        0.10249100        0.00043004        0.00606201        0.00054623
      96         -0.569362        1.000000        0.00296566        0.00287740        0.00003047        0.00070827
      97         -0.560967        1.000000        0.00489889        0.00264968        0.00020138        0.00085041
      98         -0.556334        1.000000        0.05454309        0.00342441        0.02632100        0.00913129
      99         -0.550751        1.000000        0.02067930        0.00457551        0.00095679        0.00014300
     100         -0.546842        1.000000        0.10850610        0.00225771        0.00301188        0.00411839
     101         -0.546341        1.000000        0.08434225        0.00163025        0.00524438        0.00054729
     102         -0.545303        1.000000        0.00185366        0.03605806        0.00569417        0.00052506
     103         -0.541520        1.000000        0.00268409        0.00455590        0.00897590        0.02338440
     104         -0.539595        1.000000        0.00420314        0.00231808        0.00012838        0.00189037
     105         -0.539422        1.000000        0.08258554        0.00816536        0.00489507        0.00424325
     106         -0.538007        1.000000        0.04353385        0.00056668        0.01477524        0.00618646
     107         -0.537007        1.000000        0.05549913        0.00614051        0.00633819        0.00770272
     108         -0.536779        1.000000        0.03636014        0.00608581        0.00296721        0.01283752
     109         -0.536112        1.000000        0.08121059        0.00310834        0.00255188        0.01600950
     110         -0.535587        1.000000        0.05190042        0.01292787        0.00438563        0.00366780
     111         -0.534071        1.000000        0.07527641        0.00526966        0.00806125        0.00678972
     112         -0.531116        1.000000        0.02756063        0.00297745        0.01549566        0.01439231
     113         -0.531066        1.000000        0.02148823        0.00138116        0.01708474        0.01223256
     114         -0.529584        1.000000        0.00125467        0.02851545        0.00075434        0.00204224
     115         -0.529140        1.000000        0.00801735        0.01241568        0.00357299        0.01295143
     116         -0.527452        1.000000        0.01358520        0.01230693        0.00621868        0.00711187
     117         -0.526003        1.000000        0.00327868        0.01234258        0.01039008        0.00334131
     118         -0.525311        1.000000        0.00152075        0.00797616        0.00867171        0.00808025
     119         -0.525243        1.000000        0.00278406        0.00861555        0.00689679        0.01360027
     120         -0.522405        1.000000        0.00121334        0.02279996        0.00041965        0.00554932
     121         -0.521441        1.000000        0.00788131        0.00756942        0.00910521        0.01329569
     122         -0.520357        1.000000        0.00609847        0.00105287        0.02453240        0.00260041
     123         -0.519951        1.000000        0.00366698        0.00414170        0.01244254        0.02361179
     124         -0.518947        1.000000        0.00540060        0.00062498        0.01202707        0.00393795
     125         -0.518861        1.000000        0.00559490        0.00083537        0.01655145        0.00219721
     126         -0.518274        1.000000        0.00768207        0.00078086        0.00509108        0.01312414
     127         -0.517917        1.000000        0.00235997        0.00257050        0.00126610        0.00687643
     128         -0.516604        1.000000        0.00247483        0.00111909        0.01323481        0.00588158
     129         -0.506935        1.000000        0.00504126        0.00229439        0.00365877        0.00104965
     130         -0.502174        1.000000        0.00646727        0.00060504        0.00484940        0.00055990
     131         -0.501686        1.000000        0.00347965        0.00046187        0.00119552        0.00084580
     132         -0.492145        1.000000        0.00464104        0.00098135        0.00057426        0.00205894
     133         -0.484412        1.000000        0.00313098        0.00040943        0.00009374        0.00157335
     134         -0.482350        1.000000        0.00537138        0.00006392        0.00081424        0.00231703
     135         -0.481159        1.000000        0.00168273        0.00086467        0.00009490        0.00005833
     136         -0.478179        1.000000        0.00010982        0.00007156        0.00001417        0.00002296
     137         -0.477656        1.000000        0.00090970        0.00007034        0.00002921        0.00016875
     138         -0.475207        1.000000        0.00184053        0.00056027        0.00014721        0.00006550
     139         -0.474376        1.000000        0.00003079        0.00000278        0.00000658        0.00000996
     140         -0.473467        1.000000        0.00002734        0.00000907        0.00000005        0.00000003
     141         -0.472932        1.000000        0.00122798        0.00000997        0.00031798        0.00011992
     142         -0.472185        1.000000        0.00430980        0.00029131        0.00019383        0.00133289
     143         -0.472153        1.000000        0.00355642        0.00012919        0.00020252        0.00163416
     144         -0.468863        1.000000        0.00000665        0.00000162        0.00000086        0.00000191
     145         -0.468117        1.000000        0.00440530        0.00072658        0.00003277        0.00003074
     146         -0.465568        1.000000        0.00027068        0.00023200        0.00008673        0.00147935
     147         -0.464311        1.000000        0.00195133        0.00006028        0.00001671        0.00023268
     148         -0.463219        1.000000        0.00036224        0.00002331        0.00003104        0.00000370
     149         -0.462581        1.000000        0.00015506        0.00005787        0.00000700        0.00000027
     150         -0.460842        1.000000        0.00013978        0.00011646        0.00001780        0.00006991
     151         -0.459526        1.000000        0.00069097        0.00009119        0.00001496        0.00001019
     152         -0.459097        1.000000        0.00075013        0.00000199        0.00000797        0.00014706
     153         -0.457374        1.000000        0.00097285        0.00000238        0.00023243        0.00013642
     154         -0.455206        1.000000        0.00033921        0.00001401        0.00000817        0.00003436
     155         -0.454450        1.000000        0.00113965        0.00012469        0.00018529        0.00016928
     156         -0.454261        1.000000        0.00028520        0.00011650        0.00022642        0.00008450
     157         -0.453739        1.000000        0.00310480        0.00058327        0.00001510        0.00004934
     158         -0.453586        1.000000        0.00556147        0.00002640        0.00006244        0.00020479
     159         -0.451883        1.000000        0.00080364        0.00000424        0.00003222        0.00001668
     160         -0.451809        1.000000        0.00063876        0.00004199        0.00000353        0.00014300
     161         -0.451756        1.000000        0.00099612        0.00020261        0.00002489        0.00000487
     162         -0.450436        1.000000        0.00000782        0.00000544        0.00001766        0.00006048
     163         -0.450021        1.000000        0.00030966        0.00004021        0.00000183        0.00000686
     164         -0.449258        1.000000        0.00039826        0.00000516        0.00000272        0.00003059
     165         -0.445604        1.000000        0.00449775        0.00011670        0.00002968        0.00028498
     166         -0.445041        1.000000        0.00000103        0.00000078        0.00001005        0.00000460
     167         -0.441781        1.000000        0.00208282        0.00069054        0.00026693        0.00001675
     168         -0.441082        1.000000        0.00039565        0.00003409        0.00014342        0.00001670
     169         -0.440588        1.000000        0.00869563        0.00001182        0.00013152        0.00010106
     170         -0.440102        1.000000        0.00087007        0.00003261        0.00000040        0.00000533
     171         -0.439665        1.000000        0.00022588        0.00001144        0.00000202        0.00003789
     172         -0.437730        1.000000        0.00779550        0.00001143        0.00010438        0.00010663
     173         -0.436440        1.000000        0.00104665        0.00000064        0.00001408        0.00001486
     174         -0.435887        1.000000        0.00049814        0.00002634        0.00000229        0.00001904
     175         -0.434598        1.000000        0.00129047        0.00000840        0.00000727        0.00004529
     176         -0.434594        1.000000        0.00021065        0.00003582        0.00000435        0.00003756
     177         -0.434420        1.000000        0.00340563        0.00023866        0.00000303        0.00000411
     178         -0.434076        1.000000        0.01768981        0.00000866        0.00008929        0.00004262
     179         -0.433335        1.000000        0.00011153        0.00000067        0.00002848        0.00000082
     180         -0.432341        1.000000        0.00061259        0.00000558        0.00002220        0.00000830
     181         -0.432195        1.000000        0.00013559        0.00000646        0.00003936        0.00005216
     182         -0.427984        1.000000        0.00032326        0.00000012        0.00001106        0.00000087
     183         -0.427458        1.000000        0.00164336        0.00001619        0.00004964        0.00014018
     184         -0.426975        1.000000        0.52174809        0.00019056        0.00024368        0.00012714
     185         -0.426390        1.000000        0.00767421        0.00000940        0.00001932        0.00007687
     186         -0.426022        1.000000        0.00276912        0.00000018        0.00002112        0.00001148
     187         -0.425381        1.000000        0.13115497        0.00003715        0.00002734        0.00008915
     188         -0.422604        1.000000        0.00077231        0.00000332        0.00000612        0.00000535
     189         -0.421537        1.000000        0.01059789        0.00000375        0.00000479        0.00004110
     190         -0.421349        1.000000        0.00067658        0.00000127        0.00000119        0.00000123
     191         -0.420329        1.000000        0.04668972        0.00010229        0.00011312        0.00004527
     192         -0.419357        1.000000        0.00052955        0.00000182        0.00000237        0.00000036
     193         -0.418939        1.000000        0.02441951        0.00001895        0.00003763        0.00005313
     194         -0.415661        1.000000        0.03293665        0.00002513        0.00006100        0.00001950
     195         -0.415171        1.000000        0.61219146        0.00004222        0.00021937        0.00017749
     196         -0.414663        1.000000        0.46108717        0.00005330        0.00045137        0.00052920
     197         -0.414355        1.000000        0.18012725        0.00002242        0.00017292        0.00024363
     198         -0.413446        1.000000        0.00817020        0.00000885        0.00001029        0.00000338
     199         -0.413200        1.000000        0.12279682        0.00002571        0.00007138        0.00010890
     200         -0.412710        1.000000        0.02812353        0.00001220        0.00003627        0.00009348
     201         -0.411334        1.000000        0.00205454        0.00000115        0.00000056        0.00000351
     202         -0.411195        1.000000        0.44544973        0.00005514        0.00025322        0.00046878
     203         -0.410284        1.000000        0.00128459        0.00000158        0.00000113        0.00000321
     204         -0.409855        1.000000        0.22456062        0.00003167        0.00034908        0.00033578
     205         -0.408423        1.000000        0.21765951        0.00012230        0.00013607        0.00018862
     206         -0.407495        1.000000        0.06160471        0.00000295        0.00007626        0.00000266
     207         -0.406883        1.000000        0.05615746        0.00024323        0.00002068        0.00010008
     208         -0.405410        1.000000        0.58876237        0.00013058        0.00028914        0.00060037
     209         -0.404660        1.000000        0.00223332        0.00000157        0.00000063        0.00000337
     210         -0.404415        1.000000        0.00844672        0.00001161        0.00001005        0.00000428
     211         -0.403217        1.000000        0.00220830        0.00004914        0.00000545        0.00000074
     212         -0.402339        1.000000        0.69171590        0.00022156        0.00002863        0.00016873
     213         -0.401311        1.000000        0.67165475        0.00023710        0.00030044        0.00053489
     214         -0.400619        1.000000        0.63924596        0.00039691        0.00012734        0.00035640
     215         -0.399335        1.000000        0.02059282        0.00004180        0.00002616        0.00003087
     216         -0.397877        1.000000        0.02533492        0.00004057        0.00004199        0.00000328
     217         -0.396457        1.000000        0.00112081        0.00004090        0.00000012        0.00000317
     218         -0.395806        1.000000        0.00179436        0.00001527        0.00000088        0.00000378
     219         -0.395582        1.000000        0.03852423        0.00003682        0.00001174        0.00008449
     220         -0.394800        1.000000        0.00846861        0.00000893        0.00004787        0.00000331
     221         -0.394543        1.000000        0.00900061        0.00000303        0.00002510        0.00000168
     222         -0.389704        1.000000        0.00056917        0.00002113        0.00000815        0.00000004
     223         -0.388791        1.000000        0.00018991        0.00002338        0.00000000        0.00002863
     224         -0.384968        1.000000        0.00075682        0.00000538        0.00000110        0.00001645
     225         -0.382879        1.000000        0.00048344        0.00000111        0.00000688        0.00000338
     226         -0.380788        1.000000        0.00099255        0.00003196        0.00004217        0.00006321
     227         -0.380466        1.000000        0.00205252        0.00021407        0.00019650        0.00031411
     228         -0.379945        1.000000        0.00051188        0.00007211        0.00003222        0.00002027
     229         -0.378393        1.000000        0.00183580        0.00000258        0.00008158        0.00001089
     230         -0.378163        1.000000        0.00065452        0.00000692        0.00000567        0.00014387
     231         -0.375485        1.000000        0.00017085        0.00005987        0.00003266        0.00000156
     232         -0.372774        1.000000        0.00057101        0.00002484        0.00000394        0.00000681
     233         -0.368550        1.000000        0.00140791        0.00001093        0.00009416        0.00000202
     234         -0.364014        1.000000        0.00036455        0.00001057        0.00001567        0.00001066
     235         -0.360842        1.000000        0.00016950        0.00001582        0.00003327        0.00002383
     236         -0.352987        1.000000        0.00046051        0.00003361        0.00001486        0.00001422
     237         -0.352733        1.000000        0.00005583        0.00008680        0.00000539        0.00001013
     238         -0.352613        1.000000        0.00013091        0.00008974        0.00001195        0.00001892
     239         -0.348467        1.000000        0.00039209        0.00041243        0.00000436        0.00001692
     240         -0.348326        1.000000        0.00067005        0.00013100        0.00032297        0.00002959
     241         -0.347064        1.000000        0.00037860        0.00016662        0.00015698        0.00014867
     242         -0.339125        1.000000        0.00011357        0.00001531        0.00002016        0.00003091
     243         -0.336797        1.000000        0.00002649        0.00003834        0.00021508        0.00007937
     244         -0.335426        1.000000        0.00041893        0.00003269        0.00029870        0.00022254
     245         -0.334686        1.000000        0.00004282        0.00017587        0.00009191        0.00000222
     246         -0.330876        1.000000        0.00033504        0.00037680        0.00031760        0.00065586
     247         -0.330306        1.000000        0.00015578        0.00001620        0.00003114        0.00010274
     248         -0.327769        1.000000        0.00039944        0.00008036        0.00004460        0.00012028
     249         -0.327454        1.000000        0.00036687        0.00001438        0.00002202        0.00018628
     250         -0.327235        1.000000        0.00030222        0.00014533        0.00000514        0.00011356
     251         -0.325847        1.000000        0.00013572        0.00009275        0.00011391        0.00033352
     252         -0.325390        1.000000        0.00044709        0.00012043        0.00096494        0.00033054
     253         -0.323868        1.000000        0.00002287        0.00002231        0.00006717        0.00011901
     254         -0.323202        1.000000        0.00057284        0.00011000        0.00011022        0.00039358
     255         -0.321820        1.000000        0.00006000        0.00005395        0.00005882        0.00006066
     256         -0.314532        1.000000        0.00041399        0.00003958        0.00011404        0.00086645
     257         -0.313827        1.000000        0.00005872        0.00021399        0.00009780        0.00005646
     258         -0.312681        1.000000        0.00052569        0.00024738        0.00010042        0.00011154
     259         -0.312430        1.000000        0.00005848        0.00008885        0.00005709        0.00014943