# Projected DOS for atomic kind H at iteration step i = 0, E(Fermi) =    -0.128777 a.u.
#     MO Eigenvalue [a.u.]      Occupation                 s
       1         -0.932961        1.000000        0.25370714
       2         -0.923367        1.000000        0.25188740
       3         -0.922484        1.000000        0.26916238
       4         -0.917149        1.000000        0.25616710
       5         -0.914891        1.000000        0.25502611
       6         -0.911516        1.000000        0.25279174
       7         -0.907439        1.000000        0.25340849
       8         -0.906332        1.000000        0.26346358
       9         -0.906187        1.000000        0.25843049
      10         -0.906110        1.000000        0.26078098
      11         -0.905671        1.000000        0.25832535
      12         -0.902635        1.000000        0.25972086
      13         -0.899774        1.000000        0.25454444
      14         -0.896890        1.000000        0.25781524
      15         -0.891115        1.000000        0.25749060
      16         -0.888090        1.000000        0.24159827
      17         -0.887744        1.000000        0.23575105
      18         -0.887260        1.000000        0.28059780
      19         -0.884603        1.000000        0.24720121
      20         -0.884366        1.000000        0.21614229
      21         -0.882259        1.000000        0.25472588
      22         -0.881885        1.000000        0.25429401
      23         -0.881710        1.000000        0.24026851
      24         -0.880739        1.000000        0.25783770
      25         -0.879860        1.000000        0.26805577
      26         -0.879145        1.000000        0.25631373
      27         -0.877207        1.000000        0.28617672
      28         -0.876046        1.000000        0.24849765
      29         -0.872701        1.000000        0.24892996
      30         -0.872592        1.000000        0.24281570
      31         -0.872515        1.000000        0.25566322
      32         -0.872139        1.000000        0.24688759
      33         -0.868926        1.000000        0.25938203
      34         -0.868196        1.000000        0.25335536
      35         -0.866159        1.000000        0.27177823
      36         -0.861772        1.000000        0.25201486
      37         -0.859049        1.000000        0.25597935
      38         -0.856955        1.000000        0.19709012
      39         -0.854257        1.000000        0.25155900
      40         -0.853333        1.000000        0.25246382
      41         -0.853094        1.000000        0.26077849
      42         -0.851563        1.000000        0.22911208
      43         -0.850257        1.000000        0.17265052
      44         -0.849753        1.000000        0.23826135
      45         -0.849479        1.000000        0.25599358
      46         -0.848175        1.000000        0.26261554
      47         -0.847946        1.000000        0.25733986
      48         -0.845834        1.000000        0.20783871
      49         -0.845407        1.000000        0.25268857
      50         -0.842138        1.000000        0.26998376
      51         -0.841866        1.000000        0.20373220
      52         -0.839393        1.000000        0.25765325
      53         -0.839304        1.000000        0.22739279
      54         -0.838852        1.000000        0.24848462
      55         -0.838798        1.000000        0.24229898
      56         -0.838181        1.000000        0.25386772
      57         -0.837821        1.000000        0.24236625
      58         -0.837549        1.000000        0.25481879
      59         -0.837187        1.000000        0.25672091
      60         -0.836564        1.000000        0.25732591
      61         -0.834125        1.000000        0.23536120
      62         -0.832466        1.000000        0.23730206
      63         -0.831917        1.000000        0.25879965
      64         -0.831737        1.000000        0.25748365
      65         -0.830164        1.000000        0.25811116
      66         -0.829054        1.000000        0.25677336
      67         -0.827673        1.000000        0.21376685
      68         -0.827518        1.000000        0.22998999
      69         -0.823005        1.000000        0.25465006
      70         -0.822726        1.000000        0.21587070
      71         -0.818869        1.000000        0.25759135
      72         -0.818597        1.000000        0.24465572
      73         -0.817602        1.000000        0.24015640
      74         -0.813464        1.000000        0.16478735
      75         -0.810915        1.000000        0.25355121
      76         -0.809518        1.000000        0.24552958
      77         -0.808821        1.000000        0.21564595
      78         -0.808586        1.000000        0.24355343
      79         -0.806728        1.000000        0.24530399
      80         -0.806526        1.000000        0.23261680
      81         -0.805910        1.000000        0.24621936
      82         -0.803045        1.000000        0.21700239
      83         -0.796640        1.000000        0.24493603
      84         -0.793116        1.000000        0.13892323
      85         -0.790038        1.000000        0.18728047
      86         -0.630103        1.000000        0.34672462
      87         -0.613544        1.000000        0.33804237
      88         -0.604655        1.000000        0.13761045
      89         -0.603163        1.000000        0.36907220
      90         -0.602787        1.000000        0.23504934
      91         -0.590647        1.000000        0.19702939
      92         -0.588102        1.000000        0.17616310
      93         -0.581127        1.000000        0.37514619
      94         -0.573060        1.000000        0.35412858
      95         -0.570249        1.000000        0.00707179
      96         -0.569436        1.000000        0.00386206
      97         -0.561008        1.000000        0.00488868
      98         -0.556390        1.000000        0.00243096
      99         -0.554744        1.000000        0.00864507
     100         -0.550024        1.000000        0.00266934
     101         -0.546658        1.000000        0.01764888
     102         -0.544971        1.000000        0.00445252
     103         -0.542042        1.000000        0.01763207
     104         -0.541825        1.000000        0.00250378
     105         -0.539575        1.000000        0.01227525
     106         -0.539525        1.000000        0.02240700
     107         -0.537614        1.000000        0.04106919
     108         -0.536878        1.000000        0.03680160
     109         -0.536296        1.000000        0.02433791
     110         -0.535540        1.000000        0.02694812
     111         -0.534608        1.000000        0.02177649
     112         -0.533212        1.000000        0.01905712
     113         -0.531818        1.000000        0.00751447
     114         -0.531057        1.000000        0.00741952
     115         -0.529355        1.000000        0.03003713
     116         -0.527532        1.000000        0.04463343
     117         -0.526124        1.000000        0.03117174
     118         -0.525513        1.000000        0.03198414
     119         -0.525387        1.000000        0.03086137
     120         -0.522930        1.000000        0.03330528
     121         -0.521427        1.000000        0.00201758
     122         -0.520470        1.000000        0.01873797
     123         -0.520281        1.000000        0.01407660
     124         -0.519314        1.000000        0.00710710
     125         -0.518918        1.000000        0.01585918
     126         -0.518380        1.000000        0.02853755
     127         -0.518217        1.000000        0.00389378
     128         -0.517007        1.000000        0.01404697
     129         -0.507256        1.000000        0.25937437
     130         -0.502476        1.000000        0.25733168
     131         -0.501695        1.000000        0.30682840
     132         -0.492198        1.000000        0.29031556
     133         -0.484394        1.000000        0.31518488
     134         -0.482366        1.000000        0.30962666
     135         -0.481158        1.000000        0.32849046
     136         -0.478179        1.000000        0.34326721
     137         -0.477689        1.000000        0.35776287
     138         -0.475207        1.000000        0.33976247
     139         -0.474379        1.000000        0.34954310
     140         -0.473464        1.000000        0.34867230
     141         -0.473050        1.000000        0.33859664
     142         -0.472187        1.000000        0.32820117
     143         -0.472157        1.000000        0.32932035
     144         -0.468862        1.000000        0.35956501
     145         -0.468117        1.000000        0.34093722
     146         -0.465573        1.000000        0.32513136
     147         -0.464342        1.000000        0.34475115
     148         -0.463229        1.000000        0.32793958
     149         -0.462574        1.000000        0.33539345
     150         -0.460842        1.000000        0.32705096
     151         -0.459519        1.000000        0.34481587
     152         -0.459076        1.000000        0.34315402
     153         -0.457388        1.000000        0.34663976
     154         -0.455193        1.000000        0.35543203
     155         -0.454446        1.000000        0.33727673
     156         -0.454259        1.000000        0.33597314
     157         -0.453743        1.000000        0.34574240
     158         -0.453589        1.000000        0.33816256
     159         -0.451862        1.000000        0.34368308
     160         -0.451820        1.000000        0.33961573
     161         -0.451752        1.000000        0.34062156
     162         -0.450470        1.000000        0.34356207
     163         -0.450021        1.000000        0.34766037
     164         -0.449259        1.000000        0.34094005
     165         -0.445603        1.000000        0.34106786
     166         -0.445042        1.000000        0.34382020
     167         -0.441785        1.000000        0.34002962
     168         -0.441091        1.000000        0.34743226
     169         -0.440589        1.000000        0.33715082
     170         -0.440151        1.000000        0.35723856
     171         -0.439689        1.000000        0.32535067
     172         -0.437730        1.000000        0.32036759
     173         -0.436443        1.000000        0.33899162
     174         -0.435885        1.000000        0.34872777
     175         -0.434706        1.000000        0.33282745
     176         -0.434603        1.000000        0.34612988
     177         -0.434597        1.000000        0.34801003
     178         -0.434435        1.000000        0.34966002
     179         -0.433333        1.000000        0.32553306
     180         -0.432365        1.000000        0.34444074
     181         -0.432194        1.000000        0.34286299
     182         -0.428548        1.000000        0.34636778
     183         -0.427988        1.000000        0.34496250
     184         -0.427460        1.000000        0.34120569
     185         -0.427229        1.000000        0.06733176
     186         -0.426390        1.000000        0.34511609
     187         -0.425453        1.000000        0.30384657
     188         -0.422605        1.000000        0.31759015
     189         -0.421601        1.000000        0.33155962
     190         -0.421353        1.000000        0.34413126
     191         -0.420558        1.000000        0.31369854
     192         -0.419358        1.000000        0.33044641
     193         -0.418942        1.000000        0.33487648
     194         -0.417281        1.000000        0.07720575
     195         -0.415672        1.000000        0.33717296
     196         -0.414638        1.000000        0.19122546
     197         -0.414355        1.000000        0.19931471
     198         -0.413453        1.000000        0.32827899
     199         -0.413197        1.000000        0.28594568
     200         -0.412702        1.000000        0.32232950
     201         -0.411336        1.000000        0.34546161
     202         -0.411206        1.000000        0.09951274
     203         -0.410283        1.000000        0.33967519
     204         -0.409894        1.000000        0.12995522
     205         -0.408464        1.000000        0.24454672
     206         -0.407492        1.000000        0.34083920
     207         -0.407054        1.000000        0.33132189
     208         -0.405453        1.000000        0.07856867
     209         -0.404658        1.000000        0.34848711
     210         -0.404469        1.000000        0.34676684
     211         -0.403211        1.000000        0.36493021
     212         -0.402349        1.000000        0.03466811
     213         -0.401522        1.000000        0.02953439
     214         -0.400707        1.000000        0.06037861
     215         -0.399332        1.000000        0.33677185
     216         -0.397873        1.000000        0.35616156
     217         -0.395806        1.000000        0.35363323
     218         -0.395631        1.000000        0.19411893
     219         -0.394808        1.000000        0.36471649
     220         -0.394543        1.000000        0.36402220
     221         -0.393792        1.000000        0.35151461
     222         -0.389723        1.000000        0.36940525
     223         -0.388775        1.000000        0.36996190
     224         -0.385410        1.000000        0.35212847
     225         -0.382900        1.000000        0.35679264
     226         -0.380803        1.000000        0.17714466
     227         -0.380457        1.000000        0.17103199
     228         -0.379392        1.000000        0.35426076
     229         -0.378721        1.000000        0.36329871
     230         -0.378035        1.000000        0.35738957
     231         -0.375495        1.000000        0.36802564
     232         -0.373506        1.000000        0.35389679
     233         -0.368549        1.000000        0.15924198
     234         -0.364006        1.000000        0.17662856
     235         -0.360843        1.000000        0.17834860
     236         -0.352981        1.000000        0.14501376
     237         -0.352737        1.000000        0.18125026
     238         -0.352616        1.000000        0.18389795
     239         -0.348463        1.000000        0.15896285
     240         -0.348328        1.000000        0.41895134
     241         -0.347055        1.000000        0.42022202
     242         -0.339126        1.000000        0.35081862
     243         -0.336797        1.000000        0.12196105
     244         -0.335413        1.000000        0.32535348
     245         -0.334679        1.000000        0.11853031
     246         -0.330867        1.000000        0.40588080
     247         -0.330334        1.000000        0.41641588
     248         -0.327776        1.000000        0.16322589
     249         -0.327477        1.000000        0.40033923
     250         -0.327246        1.000000        0.15839288
     251         -0.325955        1.000000        0.37635500
     252         -0.325735        1.000000        0.15726345
     253         -0.324915        1.000000        0.17907866
     254         -0.323201        1.000000        0.12111193
     255         -0.321826        1.000000        0.36119404
     256         -0.314536        1.000000        0.12945165
     257         -0.313829        1.000000        0.27947938
     258         -0.312652        1.000000        0.16873068
     259         -0.312432        1.000000        0.19391579
     260         -0.312386        1.000000        0.35334937
     261         -0.311296        1.000000        0.16598853
     262         -0.309713        1.000000        0.30010013
     263         -0.308540        1.000000        0.38667652
     264         -0.304772        1.000000        0.10599161
     265         -0.303928        1.000000        0.15222956
     266         -0.301497        1.000000        0.10525005
     267         -0.300029        1.000000        0.02172883
     268         -0.295811        1.000000        0.39998533
     269         -0.292257        1.000000        0.16675042
     270         -0.291686        1.000000        0.12165950
     271         -0.290166        1.000000        0.08426957
     272         -0.288826        1.000000        0.13279154
     273         -0.288747        1.000000        0.08773606
     274         -0.285979        1.000000        0.08055376
     275         -0.283723        1.000000        0.05360235
     276         -0.283012        1.000000        0.13031382
     277         -0.278627        1.000000        0.12408335
     278         -0.277205        1.000000        0.08972718
     279         -0.276545        1.000000        0.11310665
     280         -0.276027        1.000000        0.10610949
     281         -0.275769        1.000000        0.09956536
     282         -0.275566        1.000000        0.06141139
     283         -0.275354        1.000000        0.06393876
     284         -0.274165        1.000000        0.11998816
     285         -0.269653        1.000000        0.10246825
     286         -0.266772        1.000000        0.10551701
     287         -0.264791        1.000000        0.05376200
     288         -0.261971        1.000000        0.10984249
     289         -0.261744        1.000000        0.09859581
     290         -0.260084        1.000000        0.08804644
     291         -0.259152        1.000000        0.04156509
     292         -0.259125        1.000000        0.04098130
     293         -0.258812        1.000000        0.08637451
     294         -0.258333        1.000000        0.05430178
     295         -0.258271        1.000000        0.04903556
     296         -0.256520        1.000000        0.03999245
     297         -0.253798        1.000000        0.05638113
     298         -0.252616        1.000000        0.02907742
     299         -0.246152        1.000000        0.04720572
     300         -0.246075        1.000000        0.04306863
     301         -0.245041        1.000000        0.08211249
     302         -0.241594        1.000000        0.00662490
     303         -0.240064        1.000000        0.04415431
     304         -0.239566        1.000000        0.00413474
     305         -0.237413        1.000000        0.00418722
     306         -0.237114        1.000000        0.02620625
     307         -0.234524        1.000000        0.00648882
     308         -0.234041        1.000000        0.00681223
     309         -0.233111        1.000000        0.04900459
     310         -0.232494        1.000000        0.01694927
     311         -0.232353        1.000000        0.07190837
     312         -0.230132        1.000000        0.00568033
     313         -0.229673        1.000000        0.01733036
     314         -0.228922        1.000000        0.05436103
     315         -0.226794        1.000000        0.00935264
     316         -0.225882        1.000000        0.05041035
     317         -0.225554        1.000000        0.01262875
     318         -0.224895        1.000000        0.01344135
     319         -0.224752        1.000000        0.01947568
     320         -0.224557        1.000000        0.02024798
     321         -0.224280        1.000000        0.02092026
     322         -0.223474        1.000000        0.02164461
     323         -0.223086        1.000000        0.07531799
     324         -0.222558        1.000000        0.00683393
     325         -0.221587        1.000000        0.03539154
     326         -0.220464        1.000000        0.05116142
     327         -0.219914        1.000000        0.03007964
     328         -0.219748        1.000000        0.02511353
     329         -0.219383        1.000000        0.03165172
     330         -0.218760        1.000000        0.01637959
     331         -0.218519        1.000000        0.02226524
     332         -0.216049        1.000000        0.00910205
     333         -0.215488        1.000000        0.03078670
     334         -0.215308        1.000000        0.01243079
     335         -0.215188        1.000000        0.06462369
     336         -0.214938        1.000000        0.01257062
     337         -0.214700        1.000000        0.02908721
     338         -0.214446        1.000000        0.03715471
     339         -0.213784        1.000000        0.01394159
     340         -0.213581        1.000000        0.00652187
     341         -0.213276        1.000000        0.03087720
     342         -0.212339        1.000000        0.05572095
     343         -0.211649        1.000000        0.00814179
     344         -0.210785        1.000000        0.01565302
     345         -0.209816        1.000000        0.03209863
     346         -0.209785        1.000000        0.02399441
     347         -0.209416        1.000000        0.00216624
     348         -0.209051        1.000000        0.01390262
     349         -0.208036        1.000000        0.01739621
     350         -0.207551        1.000000        0.02913583
     351         -0.207336        1.000000        0.04190287
     352         -0.207234        1.000000        0.04291800
     353         -0.206703        1.000000        0.03137730
     354         -0.206509        1.000000        0.02432047
     355         -0.206073        1.000000        0.01201256
     356         -0.205512        1.000000        0.02180287
     357         -0.205196        1.000000        0.06793914
     358         -0.204804        1.000000        0.03090648
     359         -0.204414        1.000000        0.00891408
     360         -0.204283        1.000000        0.01604260
     361         -0.203838        1.000000        0.01585846
     362         -0.203329        1.000000        0.01029756
     363         -0.202783        1.000000        0.01615198
     364         -0.202152        1.000000        0.01390901
     365         -0.201999        1.000000        0.01653257
     366         -0.201568        1.000000        0.01317585
     367         -0.200841        1.000000        0.00873853
     368         -0.200440        1.000000        0.00563780
     369         -0.199878        1.000000        0.01358358
     370         -0.199524        1.000000        0.00840070
     371         -0.199112        1.000000        0.01120720
     372         -0.198633        1.000000        0.01264526
     373         -0.198234        1.000000        0.05962235
     374         -0.198122        1.000000        0.01516876
     375         -0.197994        1.000000        0.01069879
     376         -0.196457        1.000000        0.01222548
     377         -0.196286        1.000000        0.01041797
     378         -0.195595        1.000000        0.00987585
     379         -0.194890        1.000000        0.02694060
     380         -0.194277        1.000000        0.01251799
     381         -0.193758        1.000000        0.00236624
     382         -0.193685        1.000000        0.00331244
     383         -0.193329        1.000000        0.00268935
     384         -0.192863        1.000000        0.00702156
     385         -0.191728        1.000000        0.03077640
     386         -0.191556        1.000000        0.01398456
     387         -0.191204        1.000000        0.01393552
     388         -0.190313        1.000000        0.00665645
     389         -0.188278        1.000000        0.03181051
     390         -0.187591        1.000000        0.00631139
     391         -0.186156        1.000000        0.00621500
     392         -0.184945        1.000000        0.00634273
     393         -0.184702        1.000000        0.00532535
     394         -0.184632        1.000000        0.00608526
     395         -0.183977        1.000000        0.00606700
     396         -0.183092        1.000000        0.00386008
     397         -0.182637        1.000000        0.00551086
     398         -0.182234        1.000000        0.01057243
     399         -0.182072        1.000000        0.00492552
     400         -0.181701        1.000000        0.00769732
     401         -0.181180        1.000000        0.00873023
     402         -0.180884        1.000000        0.01378229
     403         -0.180090        1.000000        0.00540328
     404         -0.179774        1.000000        0.03528566
     405         -0.179208        1.000000        0.00246190
     406         -0.179142        1.000000        0.01305536
     407         -0.178156        1.000000        0.00441923
     408         -0.178037        1.000000        0.01076159
     409         -0.177631        1.000000        0.00333839
     410         -0.176926        1.000000        0.01793006
     411         -0.176509        1.000000        0.01110141
     412         -0.175953        1.000000        0.00418448
     413         -0.175483        1.000000        0.00994924
     414         -0.174208        1.000000        0.00957997
     415         -0.173916        1.000000        0.00694988
     416         -0.173621        1.000000        0.00991180
     417         -0.173335        1.000000        0.01007169
     418         -0.172895        1.000000        0.00545691
     419         -0.171742        1.000000        0.00373473
     420         -0.171514        1.000000        0.00208891
     421         -0.171400        1.000000        0.00198392
     422         -0.170384        1.000000        0.00260244
     423         -0.170100        1.000000        0.00443969
     424         -0.169660        1.000000        0.00676497
     425         -0.169268        1.000000        0.00185244
     426         -0.169055        1.000000        0.00425065
     427         -0.168481        1.000000        0.00327936
     428         -0.168285        1.000000        0.00287919
     429         -0.167876        1.000000        0.00692868
     430         -0.167515        1.000000        0.00402277
     431         -0.167300        1.000000        0.00334108
     432         -0.167023        1.000000        0.00227840
     433         -0.166527        1.000000        0.00749634
     434         -0.166255        1.000000        0.00397973
     435         -0.165839        1.000000        0.00331948
     436         -0.165791        1.000000        0.00559847
     437         -0.165710        1.000000        0.00367998
     438         -0.164638        1.000000        0.00235421
     439         -0.164485        1.000000        0.00359925
     440         -0.164064        1.000000        0.00270567
     441         -0.163502        1.000000        0.00149931
     442         -0.163273        1.000000        0.00207887
     443         -0.162916        1.000000        0.00283505
     444         -0.162597        1.000000        0.00263362
     445         -0.161842        1.000000        0.00536117
     446         -0.161775        1.000000        0.00403313
     447         -0.161581        1.000000        0.00235029
     448         -0.161253        1.000000        0.00256872
     449         -0.160745        1.000000        0.00335421
     450         -0.160219        1.000000        0.00228517
     451         -0.160026        1.000000        0.00223778
     452         -0.159454        1.000000        0.00188575
     453         -0.159107        1.000000        0.00174976
     454         -0.158812        1.000000        0.00218802
     455         -0.158690        1.000000        0.00234835
     456         -0.157885        1.000000        0.00164485
     457         -0.157002        1.000000        0.00167604
     458         -0.156881        1.000000        0.00203363
     459         -0.156743        1.000000        0.00108934
     460         -0.156103        1.000000        0.00201399
     461         -0.155387        1.000000        0.00154917
     462         -0.154297        1.000000        0.00123475
     463         -0.154258        1.000000        0.00145803
     464         -0.154043        1.000000        0.00136850
     465         -0.153632        1.000000        0.00164171
     466         -0.153421        1.000000        0.00162229
     467         -0.152899        1.000000        0.00210109
     468         -0.152646        1.000000        0.00185146
     469         -0.152315        1.000000        0.00137925
     470         -0.151548        1.000000        0.00214631
     471         -0.151437        1.000000        0.00091715
     472         -0.150665        1.000000        0.00281803
     473         -0.150480        1.000000        0.00112014
     474         -0.150381        1.000000        0.00330205
     475         -0.149854        1.000000        0.00188311
     476         -0.149264        1.000000        0.00107776
     477         -0.148913        1.000000        0.00126791
     478         -0.147510        1.000000        0.00291712
     479         -0.146808        1.000000        0.00072700
     480         -0.146554        1.000000        0.00112417
     481         -0.146174        1.000000        0.00107071
     482         -0.145785        1.000000        0.00007439
     483         -0.145448        1.000000        0.00060551
     484         -0.144898        1.000000        0.00102904
     485         -0.144688        1.000000        0.00119066
     486         -0.144256        1.000000        0.00098001
     487         -0.143610        1.000000        0.00109708
     488         -0.143499        1.000000        0.00004820
     489         -0.143201        1.000000        0.00155259