# Projected DOS for atomic kind O at iteration step i = 0, E(Fermi) =    -0.128777 a.u.
#     MO Eigenvalue [a.u.]      Occupation                 s                py                pz                px
       1         -0.932961        1.000000        0.71382626        0.00401818        0.01806113        0.00978488
       2         -0.923367        1.000000        0.71751514        0.01529898        0.00371836        0.01096396
       3         -0.922484        1.000000        0.70297818        0.01429714        0.00939057        0.00324382
       4         -0.917149        1.000000        0.70994663        0.00337118        0.00066501        0.02887770
       5         -0.914891        1.000000        0.70797732        0.03108829        0.00548341        0.00016998
       6         -0.911516        1.000000        0.71483826        0.01523266        0.00552514        0.01067491
       7         -0.907439        1.000000        0.70772714        0.02046698        0.00434472        0.01399541
       8         -0.906332        1.000000        0.70586868        0.00794937        0.01834365        0.00356140
       9         -0.906187        1.000000        0.71236208        0.00373963        0.02065060        0.00423175
      10         -0.906110        1.000000        0.71530992        0.00982506        0.00957161        0.00352881
      11         -0.905671        1.000000        0.70888971        0.00496488        0.02086417        0.00457567
      12         -0.902635        1.000000        0.71149949        0.00217192        0.02250069        0.00329619
      13         -0.899774        1.000000        0.70903563        0.02543652        0.00938151        0.00108152
      14         -0.896890        1.000000        0.70897509        0.00693198        0.02206126        0.00379792
      15         -0.891115        1.000000        0.71084937        0.01800736        0.01192702        0.00131737
      16         -0.888090        1.000000        0.72608732        0.00343939        0.02709621        0.00160707
      17         -0.887744        1.000000        0.73107184        0.01148343        0.00917952        0.01000178
      18         -0.887260        1.000000        0.00000017        0.00000001        0.00000000        0.00000000
      19         -0.884603        1.000000        0.71668385        0.01495367        0.01805574        0.00290049
      20         -0.884366        1.000000        0.74390044        0.01781862        0.01192934        0.00687646
      21         -0.882259        1.000000        0.69019002        0.01257943        0.00516998        0.01623058
      22         -0.881885        1.000000        0.70631667        0.02620131        0.00780238        0.00524940
      23         -0.881710        1.000000        0.72526235        0.01718556        0.00677574        0.00987685
      24         -0.880739        1.000000        0.71878285        0.01156044        0.00872394        0.00229564
      25         -0.879860        1.000000        0.71005482        0.00649985        0.01112880        0.00399232
      26         -0.879145        1.000000        0.70529429        0.00274494        0.00010446        0.03519412
      27         -0.877207        1.000000        0.00012388        0.00000628        0.00000703        0.00000701
      28         -0.876046        1.000000        0.71864990        0.01573334        0.00746475        0.00866500
      29         -0.872701        1.000000        0.71762869        0.01280029        0.00758499        0.01196249
      30         -0.872592        1.000000        0.72687930        0.00918571        0.01135724        0.00786681
      31         -0.872515        1.000000        0.71415887        0.00939006        0.01727163        0.00279506
      32         -0.872139        1.000000        0.69290327        0.01879685        0.00255433        0.00834355
      33         -0.868926        1.000000        0.71299913        0.00516923        0.01261838        0.00918194
      34         -0.868196        1.000000        0.70652204        0.03757050        0.00047490        0.00198391
      35         -0.866159        1.000000        0.68528101        0.00395347        0.00955149        0.00197936
      36         -0.861772        1.000000        0.71826782        0.00356369        0.01478554        0.01030897
      37         -0.859049        1.000000        0.70392023        0.02167406        0.01171671        0.00626652
      38         -0.856955        1.000000        0.76007317        0.00252605        0.02281563        0.01004958
      39         -0.854257        1.000000        0.71143085        0.01479984        0.00781985        0.00980765
      40         -0.853333        1.000000        0.60847797        0.00887046        0.00686776        0.00530708
      41         -0.853094        1.000000        0.70010748        0.00737545        0.00782536        0.00733009
      42         -0.851563        1.000000        0.73902933        0.01333680        0.00855875        0.00592355
      43         -0.850257        1.000000        0.76998748        0.01211065        0.02891050        0.00256122
      44         -0.849753        1.000000        0.73551038        0.01320403        0.00691788        0.00256872
      45         -0.849479        1.000000        0.71129522        0.02273881        0.00231489        0.00725804
      46         -0.848175        1.000000        0.71204691        0.01450562        0.00560443        0.00392346
      47         -0.847946        1.000000        0.69266354        0.03217501        0.00152193        0.01620212
      48         -0.845834        1.000000        0.74328112        0.02436611        0.00227769        0.02062577
      49         -0.845407        1.000000        0.69808731        0.01287088        0.03514218        0.00093572
      50         -0.842138        1.000000        0.65657830        0.00893154        0.00158654        0.00619077
      51         -0.841866        1.000000        0.74559194        0.02266808        0.00273302        0.01491521
      52         -0.839393        1.000000        0.69237687        0.00087136        0.00533945        0.04367848
      53         -0.839304        1.000000        0.72922707        0.01210058        0.01119063        0.00457192
      54         -0.838852        1.000000        0.71170070        0.02644835        0.01003683        0.00307790
      55         -0.838798        1.000000        0.72360550        0.00131080        0.01762624        0.01195652
      56         -0.838181        1.000000        0.64698860        0.01823835        0.00380127        0.00184840
      57         -0.837821        1.000000        0.41974345        0.00806249        0.00516329        0.00791827
      58         -0.837549        1.000000        0.69646215        0.00019283        0.04261046        0.00345569
      59         -0.837187        1.000000        0.69320767        0.03130779        0.01691079        0.00159889
      60         -0.836564        1.000000        0.69269784        0.04124830        0.00836434        0.00026218
      61         -0.834125        1.000000        0.65306587        0.00804313        0.01182460        0.00662642
      62         -0.832466        1.000000        0.72467316        0.02125510        0.00901316        0.00742933
      63         -0.831917        1.000000        0.05783890        0.00704889        0.00032239        0.00327924
      64         -0.831737        1.000000        0.69218973        0.00002118        0.00882415        0.04141323
      65         -0.830164        1.000000        0.69137467        0.00027053        0.04574964        0.00438213
      66         -0.829054        1.000000        0.60792095        0.00968616        0.00310632        0.00647507
      67         -0.827673        1.000000        0.68497531        0.01109472        0.01096578        0.01055607
      68         -0.827518        1.000000        0.69968615        0.01305076        0.01798639        0.00592548
      69         -0.823005        1.000000        0.69606035        0.00019938        0.00541634        0.04341301
      70         -0.822726        1.000000        0.49246218        0.00544057        0.01595855        0.00511294
      71         -0.818869        1.000000        0.69200766        0.01300270        0.00809339        0.02915645
      72         -0.818597        1.000000        0.50847877        0.00849484        0.00830367        0.00616360
      73         -0.817602        1.000000        0.71298247        0.00594210        0.02185039        0.01798774
      74         -0.813464        1.000000        0.77600664        0.01718305        0.01190468        0.01081241
      75         -0.810915        1.000000        0.52305183        0.00936668        0.01404521        0.00944810
      76         -0.809518        1.000000        0.20706935        0.00267267        0.00666043        0.00577677
      77         -0.808821        1.000000        0.73673415        0.00372173        0.02250749        0.02076533
      78         -0.808586        1.000000        0.70803088        0.01980694        0.00623157        0.02199848
      79         -0.806728        1.000000        0.70627699        0.02048476        0.02252510        0.00494976
      80         -0.806526        1.000000        0.71973034        0.00922932        0.01640553        0.02156503
      81         -0.805910        1.000000        0.70614212        0.02811787        0.01751474        0.00172182
      82         -0.803045        1.000000        0.66238674        0.00801686        0.00975420        0.01486424
      83         -0.796640        1.000000        0.11467336        0.00664733        0.00743661        0.00145727
      84         -0.793116        1.000000        0.79525637        0.01878754        0.01198543        0.00658833
      85         -0.790038        1.000000        0.73010240        0.00904123        0.00823423        0.01748156
      86         -0.630103        1.000000        0.00000003        0.00000010        0.00000003        0.00000003
      87         -0.613544        1.000000        0.00026582        0.00006686        0.00082693        0.00056509
      88         -0.604655        1.000000        0.00236668        0.00748719        0.00186353        0.00132247
      89         -0.603163        1.000000        0.00015996        0.00129570        0.00021668        0.00118141
      90         -0.602787        1.000000        0.00150401        0.00442485        0.00159476        0.00099956
      91         -0.590647        1.000000        0.00081471        0.00248373        0.00322799        0.00023586
      92         -0.588102        1.000000        0.00081438        0.00272908        0.00352726        0.00022750
      93         -0.581127        1.000000        0.00040990        0.00242072        0.00200547        0.00061750
      94         -0.573060        1.000000        0.00024356        0.00142482        0.00143553        0.00020363
      95         -0.570249        1.000000        0.00084572        0.00103384        0.00496206        0.00105083
      96         -0.569436        1.000000        0.00446029        0.00277626        0.00216567        0.01681136
      97         -0.561008        1.000000        0.00876984        0.00322679        0.00391034        0.01941209
      98         -0.556390        1.000000        0.00053269        0.00053400        0.00226742        0.00067709
      99         -0.554744        1.000000        0.00097127        0.00197126        0.00308697        0.00087189
     100         -0.550024        1.000000        0.00086003        0.00396550        0.00116815        0.00054330
     101         -0.546658        1.000000        0.00081541        0.00732846        0.00116023        0.00105686
     102         -0.544971        1.000000        0.00024012        0.00047005        0.00037361        0.00042497
     103         -0.542042        1.000000        0.00060701        0.00083772        0.00180954        0.00097578
     104         -0.541825        1.000000        0.00086883        0.00077595        0.00092027        0.00047073
     105         -0.539575        1.000000        0.00079730        0.00591760        0.00407019        0.00172141
     106         -0.539525        1.000000        0.00082272        0.00403427        0.00218067        0.00262926
     107         -0.537614        1.000000        0.00060176        0.00200689        0.00168877        0.00219942
     108         -0.536878        1.000000        0.00054933        0.00724031        0.00255378        0.00250855
     109         -0.536296        1.000000        0.00145266        0.01072364        0.00394299        0.00421941
     110         -0.535540        1.000000        0.00073768        0.00882506        0.00290191        0.00332133
     111         -0.534608        1.000000        0.00070119        0.00113399        0.00110063        0.00245498
     112         -0.533212        1.000000        0.00059142        0.00206371        0.00293141        0.00463927
     113         -0.531818        1.000000        0.00083705        0.00222182        0.00246422        0.00163717
     114         -0.531057        1.000000        0.00058107        0.00173036        0.00093254        0.00216267
     115         -0.529355        1.000000        0.00175186        0.00713335        0.00575990        0.01520842
     116         -0.527532        1.000000        0.00143348        0.00212783        0.00517845        0.01837859
     117         -0.526124        1.000000        0.00136453        0.01129944        0.00752161        0.00873301
     118         -0.525513        1.000000        0.00072931        0.00372859        0.00835532        0.01605860
     119         -0.525387        1.000000        0.00118389        0.01526798        0.00879754        0.00624366
     120         -0.522930        1.000000        0.00065060        0.00084940        0.00082414        0.00493088
     121         -0.521427        1.000000        0.00009484        0.00037558        0.00033593        0.00040425
     122         -0.520470        1.000000        0.00084234        0.00258129        0.00338600        0.00963414
     123         -0.520281        1.000000        0.00096991        0.00221659        0.00244105        0.00756865
     124         -0.519314        1.000000        0.00090507        0.00096476        0.00098475        0.00579217
     125         -0.518918        1.000000        0.00081726        0.00597043        0.00330521        0.00743562
     126         -0.518380        1.000000        0.00134861        0.00316498        0.00514125        0.01869623
     127         -0.518217        1.000000        0.00130522        0.00077258        0.00083677        0.00432573
     128         -0.517007        1.000000        0.00026651        0.00039722        0.00175940        0.00758806
     129         -0.507256        1.000000        0.00002507        0.00058233        0.00055936        0.00086766
     130         -0.502476        1.000000        0.00002979        0.00188935        0.00034205        0.00083196
     131         -0.501695        1.000000        0.00005070        0.01928331        0.00196232        0.00244335
     132         -0.492198        1.000000        0.00003680        0.01875738        0.00144517        0.00223040
     133         -0.484394        1.000000        0.00112018        0.50038094        0.02530329        0.04849138
     134         -0.482366        1.000000        0.00293151        0.04118208        0.16267092        0.37311508
     135         -0.481158        1.000000        0.00075606        0.20546778        0.08075951        0.11210977
     136         -0.478179        1.000000        0.00099500        0.05998379        0.33546817        0.25423644
     137         -0.477689        1.000000        0.00021017        0.03567042        0.31241778        0.28531201
     138         -0.475207        1.000000        0.00044782        0.18841661        0.08319196        0.06645827
     139         -0.474379        1.000000        0.00306185        0.33909096        0.02088796        0.26871568
     140         -0.473464        1.000000        0.00122895        0.14170927        0.50241296        0.00528529
     141         -0.473050        1.000000        0.00015511        0.01220610        0.00521616        0.00707553
     142         -0.472187        1.000000        0.00235347        0.22720945        0.03778351        0.33713577
     143         -0.472157        1.000000        0.00220963        0.25099369        0.03346505        0.31987155
     144         -0.468862        1.000000        0.00027320        0.24342829        0.01619279        0.36940702
     145         -0.468117        1.000000        0.00156000        0.02407075        0.14400314        0.44589671
     146         -0.465573        1.000000        0.00166557        0.02312785        0.14084680        0.43188921
     147         -0.464342        1.000000        0.00037935        0.55907654        0.04221199        0.02928776
     148         -0.463229        1.000000        0.00063531        0.00851009        0.18361961        0.00126700
     149         -0.462574        1.000000        0.00313291        0.12052600        0.06506621        0.47330468
     150         -0.460842        1.000000        0.00105974        0.06961378        0.04994636        0.07271547
     151         -0.459519        1.000000        0.00170439        0.25842087        0.35694615        0.03059470
     152         -0.459076        1.000000        0.00054395        0.36364572        0.09140046        0.18161944
     153         -0.457388        1.000000        0.00044877        0.00973008        0.25501887        0.37114411
     154         -0.455193        1.000000        0.00036501        0.03682009        0.01190060        0.59166132
     155         -0.454446        1.000000        0.00130417        0.10656641        0.09634519        0.10253546
     156         -0.454259        1.000000        0.00161091        0.12838754        0.11284475        0.12177985
     157         -0.453743        1.000000        0.00175255        0.02583157        0.06250103        0.52104737
     158         -0.453589        1.000000        0.00231648        0.18063244        0.25010159        0.20786788
     159         -0.451862        1.000000        0.00207915        0.08107789        0.51128607        0.01218896
     160         -0.451820        1.000000        0.00018626        0.00695778        0.03527898        0.00239402
     161         -0.451752        1.000000        0.00326896        0.02259317        0.19432761        0.30684844
     162         -0.450470        1.000000        0.00510354        0.02118335        0.57946913        0.04598676
     163         -0.450021        1.000000        0.00351008        0.19504457        0.09862928        0.35069741
     164         -0.449259        1.000000        0.00026073        0.04332885        0.03604143        0.03220634
     165         -0.445603        1.000000        0.00117738        0.13766402        0.01422911        0.48466670
     166         -0.445042        1.000000        0.00286152        0.22058554        0.15788864        0.27447034
     167         -0.441785        1.000000        0.00026363        0.08555781        0.48786807        0.00769035
     168         -0.441091        1.000000        0.00044905        0.19136065        0.32892074        0.12417045
     169         -0.440589        1.000000        0.00157585        0.13783511        0.14967161        0.28612005
     170         -0.440151        1.000000        0.00002360        0.11171511        0.00186445        0.52408484
     171         -0.439689        1.000000        0.00020490        0.06944983        0.03778468        0.03603069
     172         -0.437730        1.000000        0.00051871        0.03525898        0.05789661        0.10940822
     173         -0.436443        1.000000        0.00224611        0.46487180        0.08974266        0.09298888
     174         -0.435885        1.000000        0.00240323        0.13146429        0.27568952        0.23546202
     175         -0.434706        1.000000        0.00485292        0.05451340        0.01806598        0.56194634
     176         -0.434603        1.000000        0.00198508        0.06702478        0.31952839        0.25570977
     177         -0.434597        1.000000        0.00504800        0.17992039        0.32443380        0.11988301
     178         -0.434435        1.000000        0.00048576        0.05422480        0.50928374        0.07382329
     179         -0.433333        1.000000        0.00595236        0.16602734        0.13602544        0.35791270
     180         -0.432365        1.000000        0.00202902        0.29055277        0.10224646        0.23022710
     181         -0.432194        1.000000        0.00147663        0.10546234        0.34891984        0.19490623
     182         -0.428548        1.000000        0.00483301        0.11756100        0.01422182        0.51077410
     183         -0.427988        1.000000        0.00446532        0.26443862        0.03276537        0.35228114
     184         -0.427460        1.000000        0.00304600        0.22900760        0.19668774        0.21382928
     185         -0.427229        1.000000        0.00027609        0.00651000        0.09985659        0.01490052
     186         -0.426390        1.000000        0.00343355        0.24117441        0.23731809        0.15815986
     187         -0.425453        1.000000        0.00006211        0.00673113        0.53729975        0.00181005
     188         -0.422605        1.000000        0.00130204        0.05306513        0.05324272        0.03833664
     189         -0.421601        1.000000        0.00138986        0.13313059        0.17812190        0.30500785
     190         -0.421353        1.000000        0.00505669        0.04123421        0.23328358        0.37478252
     191         -0.420558        1.000000        0.00026162        0.21465142        0.12176197        0.21304609
     192         -0.419358        1.000000        0.00781757        0.08486295        0.46418062        0.10664936
     193         -0.418942        1.000000        0.00295497        0.08463272        0.04966240        0.49384055
     194         -0.417281        1.000000        0.00076427        0.04233750        0.04221784        0.05151852
     195         -0.415672        1.000000        0.00184458        0.05554119        0.04237569        0.52433012
     196         -0.414638        1.000000        0.00322321        0.09471261        0.23428384        0.01970287
     197         -0.414355        1.000000        0.00271216        0.09466156        0.23685580        0.03037184
     198         -0.413453        1.000000        0.00575652        0.09789852        0.37804908        0.17941715
     199         -0.413197        1.000000        0.00393919        0.07120178        0.39082494        0.07191031
     200         -0.412702        1.000000        0.00549317        0.14811338        0.12858336        0.34560898
     201         -0.411336        1.000000        0.00342306        0.29130656        0.12265430        0.21452294
     202         -0.411206        1.000000        0.00054655        0.01255649        0.06788858        0.01811717
     203         -0.410283        1.000000        0.00359448        0.15359496        0.28689039        0.20983544
     204         -0.409894        1.000000        0.00022925        0.00369024        0.01234877        0.00485812
     205         -0.408464        1.000000        0.00271349        0.33480736        0.05649903        0.03884322
     206         -0.407492        1.000000        0.00002282        0.02259691        0.37941023        0.17231204
     207         -0.407054        1.000000        0.00332857        0.06789211        0.42956195        0.10804055
     208         -0.405453        1.000000        0.00191015        0.10780293        0.02065888        0.01778541
     209         -0.404658        1.000000        0.00393192        0.27676837        0.28031508        0.08656136
     210         -0.404469        1.000000        0.00668823        0.03784240        0.19703870        0.39960908
     211         -0.403211        1.000000        0.00003599        0.06295950        0.07040903        0.49721908
     212         -0.402349        1.000000        0.00024107        0.00451708        0.03497318        0.02021267
     213         -0.401522        1.000000        0.00053461        0.02492521        0.00751325        0.01092398
     214         -0.400707        1.000000        0.00056024        0.05651711        0.02424884        0.02356291
     215         -0.399332        1.000000        0.00591710        0.06018914        0.10052925        0.46767810
     216         -0.397873        1.000000        0.00012979        0.27046997        0.31968713        0.01614246
     217         -0.395806        1.000000        0.00006903        0.02944306        0.04446555        0.52144490
     218         -0.395631        1.000000        0.00046501        0.01696791        0.02620554        0.04102119
     219         -0.394808        1.000000        0.00007134        0.02995957        0.00272180        0.59112405
     220         -0.394543        1.000000        0.00009843        0.04641778        0.09834643        0.47633366
     221         -0.393792        1.000000        0.00461076        0.26021305        0.26308833        0.11797913
     222         -0.389723        1.000000        0.00001042        0.09579180        0.43942123        0.09296668
     223         -0.388775        1.000000        0.00000831        0.42970593        0.00644463        0.19010933
     224         -0.385410        1.000000        0.00441575        0.39229695        0.09241360        0.12799726
     225         -0.382900        1.000000        0.00192675        0.23037521        0.32808456        0.02752031
     226         -0.380803        1.000000        0.00213946        0.00171187        0.03319394        0.00557502
     227         -0.380457        1.000000        0.00298192        0.02136618        0.00170370        0.01695422
     228         -0.379392        1.000000        0.00586844        0.12909952        0.05488623        0.44701935
     229         -0.378721        1.000000        0.00002141        0.60388272        0.02383326        0.00016020
     230         -0.378035        1.000000        0.00380736        0.28836521        0.19528496        0.12673493
     231         -0.375495        1.000000        0.00001102        0.29109871        0.33374813        0.00287865
     232         -0.373506        1.000000        0.00457329        0.05457623        0.34651691        0.23754835
     233         -0.368549        1.000000        0.12765981        0.31787466        0.27436927        0.07865484
     234         -0.364006        1.000000        0.00042503        0.00705416        0.02538839        0.01071022
     235         -0.360843        1.000000        0.00549692        0.03604755        0.02435235        0.01039237
     236         -0.352981        1.000000        0.12941045        0.11542855        0.45113534        0.12246207
     237         -0.352737        1.000000        0.04671223        0.09445700        0.12477888        0.08881104
     238         -0.352616        1.000000        0.06507185        0.12699198        0.16939066        0.11269066
     239         -0.348463        1.000000        0.11808944        0.16061045        0.20472269        0.30201271
     240         -0.348328        1.000000        0.00018453        0.00031418        0.00035400        0.00041388
     241         -0.347055        1.000000        0.00010009        0.00014747        0.00019153        0.00021049
     242         -0.339126        1.000000        0.02378220        0.02230739        0.11802218        0.02598200
     243         -0.336797        1.000000        0.12136224        0.26079294        0.24987200        0.19948682
     244         -0.335413        1.000000        0.04173499        0.12095657        0.02073867        0.09319258
     245         -0.334679        1.000000        0.12055296        0.04954646        0.44382563        0.20327625
     246         -0.330867        1.000000        0.00685507        0.00437740        0.00375921        0.05137108
     247         -0.330334        1.000000        0.00204334        0.00748719        0.01031148        0.00317997
     248         -0.327776        1.000000        0.12807851        0.26786063        0.19766601        0.16509069
     249         -0.327477        1.000000        0.00541759        0.01503553        0.01998211        0.01569859
     250         -0.327246        1.000000        0.13106901        0.27354156        0.20452241        0.16748552
     251         -0.325955        1.000000        0.02597223        0.01812841        0.05730538        0.05010791
     252         -0.325735        1.000000        0.13258131        0.06244045        0.31092284        0.28639714
     253         -0.324915        1.000000        0.12527138        0.05996721        0.30459409        0.23442875
     254         -0.323201        1.000000        0.12613907        0.33797677        0.16088982        0.22736076
     255         -0.321826        1.000000        0.02572256        0.03767443        0.05771413        0.09464407
     256         -0.314536        1.000000        0.12820688        0.31856054        0.20294466        0.17035636
     257         -0.313829        1.000000        0.06130984        0.10975871        0.10441583        0.15000227
     258         -0.312652        1.000000        0.12394590        0.11701721        0.16713481        0.31801806
     259         -0.312432        1.000000        0.11427459        0.10355717        0.23975594        0.21009686