# Projected DOS for atomic kind N at iteration step i = 0, E(Fermi) =    -0.128555 a.u.
#     MO Eigenvalue [a.u.]      Occupation                 s                py                pz                px
       1         -0.932975        1.000000        0.00000000        0.00000001        0.00000000        0.00000000
       2         -0.923369        1.000000        0.00000000        0.00000000        0.00000000        0.00000000
       3         -0.922485        1.000000        0.00000002        0.00000000        0.00000000        0.00000001
       4         -0.917151        1.000000        0.00037666        0.00005139        0.00000032        0.00000114
       5         -0.914873        1.000000        0.00002787        0.00000416        0.00000883        0.00000831
       6         -0.911518        1.000000        0.00000000        0.00000000        0.00000000        0.00000000
       7         -0.907442        1.000000        0.00000220        0.00000029        0.00000002        0.00000002
       8         -0.906332        1.000000        0.00001638        0.00000169        0.00000000        0.00000117
       9         -0.906159        1.000000        0.00000318        0.00000011        0.00000011        0.00000117
      10         -0.906114        1.000000        0.00000001        0.00000000        0.00000000        0.00000000
      11         -0.905672        1.000000        0.00000010        0.00000001        0.00000000        0.00000002
      12         -0.902644        1.000000        0.00000001        0.00000000        0.00000000        0.00000000
      13         -0.899769        1.000000        0.00008743        0.00001098        0.00000098        0.00000503
      14         -0.896883        1.000000        0.00000388        0.00000002        0.00000020        0.00000005
      15         -0.891112        1.000000        0.00001906        0.00000136        0.00000012        0.00000024
      16         -0.888091        1.000000        0.00000006        0.00000000        0.00000000        0.00000000
      17         -0.887748        1.000000        0.00000038        0.00000000        0.00000000        0.00000000
      18         -0.887238        1.000000        0.61334048        0.00002082        0.00012851        0.00001440
      19         -0.884614        1.000000        0.00000712        0.00000000        0.00000000        0.00000000
      20         -0.884366        1.000000        0.00001444        0.00000001        0.00000000        0.00000067
      21         -0.882257        1.000000        0.01650790        0.00000005        0.00000048        0.00060745
      22         -0.881964        1.000000        0.00000024        0.00000000        0.00000001        0.00000001
      23         -0.881711        1.000000        0.00039564        0.00001058        0.00000079        0.00001595
      24         -0.880737        1.000000        0.00000008        0.00000000        0.00000000        0.00000000
      25         -0.879860        1.000000        0.00001028        0.00000227        0.00000004        0.00000035
      26         -0.879127        1.000000        0.00000021        0.00000000        0.00000000        0.00000000
      27         -0.877222        1.000000        0.61507736        0.00008336        0.00000061        0.00038785
      28         -0.876040        1.000000        0.00000095        0.00000000        0.00000000        0.00000000
      29         -0.872516        1.000000        0.00000002        0.00000001        0.00000000        0.00000001
      30         -0.872228        1.000000        0.00000029        0.00000000        0.00000000        0.00000002
      31         -0.872145        1.000000        0.02479243        0.00089166        0.00000021        0.00007463
      32         -0.870541        1.000000        0.00015116        0.00000109        0.00000215        0.00000258
      33         -0.868925        1.000000        0.00022461        0.00000457        0.00000033        0.00000582
      34         -0.868197        1.000000        0.00003672        0.00000006        0.00000002        0.00000027
      35         -0.866156        1.000000        0.02283924        0.00000937        0.00012088        0.00001671
      36         -0.861810        1.000000        0.00085007        0.00001358        0.00000021        0.00000067
      37         -0.858982        1.000000        0.00000005        0.00000000        0.00000000        0.00000000
      38         -0.856960        1.000000        0.00005935        0.00000017        0.00000072        0.00000014
      39         -0.854255        1.000000        0.00334590        0.00002444        0.00012659        0.00005993
      40         -0.853331        1.000000        0.09857536        0.00001199        0.00001064        0.00000088
      41         -0.853082        1.000000        0.01359018        0.00008666        0.00000736        0.00013168
      42         -0.851564        1.000000        0.00000001        0.00000000        0.00000000        0.00000000
      43         -0.850260        1.000000        0.00000046        0.00000004        0.00000004        0.00000010
      44         -0.849754        1.000000        0.00000382        0.00000003        0.00000003        0.00000002
      45         -0.849311        1.000000        0.00000962        0.00000000        0.00000010        0.00000046
      46         -0.848192        1.000000        0.00078314        0.00000080        0.00000458        0.00000116
      47         -0.847948        1.000000        0.00000002        0.00000000        0.00000000        0.00000000
      48         -0.845468        1.000000        0.00000296        0.00000000        0.00000000        0.00000008
      49         -0.842124        1.000000        0.05081891        0.00001041        0.00012446        0.00003496
      50         -0.840333        1.000000        0.00005821        0.00000007        0.00000017        0.00000031
      51         -0.839395        1.000000        0.00000001        0.00000000        0.00000000        0.00000000
      52         -0.839304        1.000000        0.01065231        0.00000835        0.00000113        0.00002105
      53         -0.839207        1.000000        0.00271097        0.00000012        0.00000227        0.00000092
      54         -0.839020        1.000000        0.00002142        0.00000010        0.00000052        0.00000181
      55         -0.838180        1.000000        0.06255255        0.00042779        0.00002560        0.00029988
      56         -0.837824        1.000000        0.25957549        0.00000510        0.00122432        0.00036640
      57         -0.837554        1.000000        0.00166360        0.00000280        0.00000338        0.00001049
      58         -0.837159        1.000000        0.00003995        0.00000002        0.00000001        0.00000013
      59         -0.836564        1.000000        0.00000147        0.00000000        0.00000000        0.00000000
      60         -0.835956        1.000000        0.00115800        0.00000173        0.00000625        0.00000153
      61         -0.834117        1.000000        0.07185618        0.00000369        0.00000280        0.00006770
      62         -0.831917        1.000000        0.55531577        0.00090401        0.00002978        0.00046636
      63         -0.831898        1.000000        0.00002105        0.00000014        0.00000023        0.00000218
      64         -0.831698        1.000000        0.00000001        0.00000000        0.00000000        0.00000000
      65         -0.830174        1.000000        0.00000000        0.00000000        0.00000000        0.00000000
      66         -0.829054        1.000000        0.09597208        0.00002435        0.00000540        0.00000098
      67         -0.827669        1.000000        0.05795883        0.00009057        0.00006788        0.00000826
      68         -0.827508        1.000000        0.02628983        0.00047048        0.00044772        0.00004300
      69         -0.824451        1.000000        0.00001243        0.00000010        0.00000092        0.00000422
      70         -0.822724        1.000000        0.21150824        0.00000019        0.00481714        0.00103354
      71         -0.821479        1.000000        0.00000092        0.00000000        0.00000002        0.00000001
      72         -0.818839        1.000000        0.00000000        0.00000000        0.00000000        0.00000000
      73         -0.818607        1.000000        0.18320461        0.00024879        0.00054488        0.00015616
      74         -0.813480        1.000000        0.00000080        0.00000001        0.00000001        0.00000001
      75         -0.810930        1.000000        0.13700444        0.00022774        0.00122593        0.00026063
      76         -0.810542        1.000000        0.01841887        0.00002642        0.00017733        0.00003338
      77         -0.809508        1.000000        0.43924571        0.00393006        0.00025092        0.00133836
      78         -0.808087        1.000000        0.00001045        0.00000139        0.00000102        0.00000421
      79         -0.807329        1.000000        0.00000015        0.00000001        0.00000001        0.00000005
      80         -0.805687        1.000000        0.00001524        0.00000022        0.00000005        0.00000011
      81         -0.804826        1.000000        0.00003734        0.00000281        0.00000006        0.00001167
      82         -0.803037        1.000000        0.06856084        0.00041962        0.00103085        0.00042235
      83         -0.796639        1.000000        0.50324823        0.00053043        0.00067004        0.00214399
      84         -0.793123        1.000000        0.00000760        0.00000012        0.00000021        0.00000017
      85         -0.790036        1.000000        0.03616088        0.00039524        0.00125025        0.00049343
      86         -0.630106        1.000000        0.01753436        0.00267338        0.12679884        0.06155264
      87         -0.613534        1.000000        0.01299785        0.04210305        0.02984051        0.13143712
      88         -0.604644        1.000000        0.00794595        0.00021101        0.01621498        0.04581048
      89         -0.603173        1.000000        0.02820238        0.00583942        0.13764585        0.01551466
      90         -0.602776        1.000000        0.01922469        0.00222930        0.03165221        0.06742441
      91         -0.590654        1.000000        0.01547762        0.00139672        0.00895368        0.07040223
      92         -0.588111        1.000000        0.01394985        0.00143156        0.00855677        0.06595096
      93         -0.581125        1.000000        0.03221088        0.01096021        0.01754669        0.12550195
      94         -0.573046        1.000000        0.02237495        0.01754874        0.02239931        0.13115148
      95         -0.569681        1.000000        0.00030519        0.00029864        0.00035217        0.00206168
      96         -0.569362        1.000000        0.00008679        0.00000271        0.00006644        0.00018190
      97         -0.560967        1.000000        0.00004589        0.00009558        0.00027947        0.00005676
      98         -0.556334        1.000000        0.00005820        0.00050266        0.00023622        0.00062013
      99         -0.550751        1.000000        0.00018921        0.00014381        0.00048727        0.00069983
     100         -0.546842        1.000000        0.00014419        0.00544002        0.00437522        0.00025209
     101         -0.546341        1.000000        0.00022528        0.00475342        0.00021159        0.00034984
     102         -0.545303        1.000000        0.00006734        0.00197809        0.00111934        0.00143987
     103         -0.541520        1.000000        0.00001583        0.00071923        0.00045799        0.00055933
     104         -0.539595        1.000000        0.00001081        0.00075258        0.00043113        0.00003860
     105         -0.539422        1.000000        0.00068141        0.00734097        0.00498617        0.01195688
     106         -0.538007        1.000000        0.00022230        0.04115359        0.00090629        0.00071221
     107         -0.537007        1.000000        0.00014889        0.01062410        0.01342280        0.01432798
     108         -0.536779        1.000000        0.00020948        0.00729618        0.00898626        0.00001928
     109         -0.536112        1.000000        0.00029863        0.00160184        0.00021907        0.00095057
     110         -0.535587        1.000000        0.00034991        0.00200097        0.00331774        0.00682354
     111         -0.534071        1.000000        0.00004962        0.01003727        0.00201792        0.00441666
     112         -0.531116        1.000000        0.00015887        0.01026769        0.00225214        0.01107109
     113         -0.531066        1.000000        0.00035371        0.01841084        0.00399443        0.01494787
     114         -0.529584        1.000000        0.00002065        0.00147052        0.00076553        0.00279273
     115         -0.529140        1.000000        0.00025771        0.00466159        0.00060089        0.00024341
     116         -0.527452        1.000000        0.00016890        0.00866409        0.00965077        0.01379879
     117         -0.526003        1.000000        0.00026394        0.00315535        0.00085901        0.00092592
     118         -0.525311        1.000000        0.00011931        0.00263304        0.00157994        0.00121130
     119         -0.525243        1.000000        0.00048924        0.00056447        0.00204680        0.00360039
     120         -0.522405        1.000000        0.00027382        0.00700286        0.01921271        0.01133531
     121         -0.521441        1.000000        0.00000680        0.00041023        0.00026951        0.00016933
     122         -0.520357        1.000000        0.00002354        0.00298842        0.00116199        0.00264209
     123         -0.519951        1.000000        0.00007328        0.00088195        0.00447912        0.00178701
     124         -0.518947        1.000000        0.00012074        0.00210529        0.00211714        0.00060602
     125         -0.518861        1.000000        0.00011899        0.00002848        0.00163201        0.00046480
     126         -0.518274        1.000000        0.00005462        0.00550511        0.00147612        0.00154663
     127         -0.517917        1.000000        0.00026126        0.00201057        0.00076510        0.00063152
     128         -0.516604        1.000000        0.00002949        0.00369112        0.00223399        0.00235046
     129         -0.506935        1.000000        0.00021748        0.01795089        0.13776523        0.31997336
     130         -0.502174        1.000000        0.00007161        0.46156266        0.01869314        0.00903955
     131         -0.501686        1.000000        0.00001812        0.38922756        0.09190945        0.05125352
     132         -0.492145        1.000000        0.00012342        0.03300296        0.36339540        0.13245812
     133         -0.484412        1.000000        0.00002731        0.00439947        0.02439287        0.00061248
     134         -0.482350        1.000000        0.00000108        0.00110798        0.00235007        0.00011361
     135         -0.481159        1.000000        0.00000182        0.11049763        0.03353110        0.05901309
     136         -0.478179        1.000000        0.00000178        0.00017318        0.00000062        0.00001710
     137         -0.477656        1.000000        0.00000048        0.00029915        0.00013065        0.00007826
     138         -0.475207        1.000000        0.00007348        0.12186457        0.04568504        0.09537715
     139         -0.474376        1.000000        0.00000424        0.01107722        0.00005445        0.00014745
     140         -0.473467        1.000000        0.00000000        0.00000092        0.00000058        0.00000049
     141         -0.472932        1.000000        0.00004908        0.53607266        0.00547831        0.00333725
     142         -0.472185        1.000000        0.00000312        0.00043961        0.00013743        0.00033860
     143         -0.472153        1.000000        0.00000647        0.00039493        0.00007987        0.00020423
     144         -0.468863        1.000000        0.00001168        0.00272897        0.00146903        0.00467431
     145         -0.468117        1.000000        0.00000758        0.00385217        0.00089288        0.00036421
     146         -0.465568        1.000000        0.00001292        0.00294322        0.00122384        0.00243834
     147         -0.464311        1.000000        0.00002776        0.00007740        0.00181863        0.00180114
     148         -0.463219        1.000000        0.00189563        0.00223824        0.20912810        0.18671737
     149         -0.462581        1.000000        0.00000026        0.00000814        0.00002045        0.00000069
     150         -0.460842        1.000000        0.00008745        0.11233472        0.00866688        0.27988908
     151         -0.459526        1.000000        0.00000003        0.00004437        0.00002453        0.00000184
     152         -0.459097        1.000000        0.00000001        0.00000158        0.00000210        0.00000116
     153         -0.457374        1.000000        0.00000070        0.00001216        0.00001248        0.00001668
     154         -0.455206        1.000000        0.00000304        0.00008867        0.00015202        0.00000502
     155         -0.454450        1.000000        0.00006778        0.16837133        0.11330554        0.02360830
     156         -0.454261        1.000000        0.00008064        0.12577825        0.09018648        0.01807455
     157         -0.453739        1.000000        0.00001953        0.01494327        0.00060124        0.00157334
     158         -0.453586        1.000000        0.00000045        0.00004878        0.00047759        0.00008520
     159         -0.451883        1.000000        0.00000004        0.00100972        0.00929162        0.00079108
     160         -0.451809        1.000000        0.00000056        0.04920701        0.47314214        0.03986459
     161         -0.451756        1.000000        0.00020545        0.09285424        0.00434568        0.00862059
     162         -0.450436        1.000000        0.00001066        0.00075729        0.00088439        0.00022261
     163         -0.450021        1.000000        0.00000077        0.00004857        0.00000604        0.00005566
     164         -0.449258        1.000000        0.00029136        0.20845878        0.20187207        0.06377702
     165         -0.445604        1.000000        0.00000053        0.00028179        0.00036600        0.00011820
     166         -0.445041        1.000000        0.00000003        0.00000415        0.00000135        0.00000028
     167         -0.441781        1.000000        0.00008474        0.00084298        0.00216846        0.02435948
     168         -0.441082        1.000000        0.00000030        0.00003095        0.00000135        0.00001170
     169         -0.440588        1.000000        0.00034257        0.01433579        0.03627603        0.00056637
     170         -0.440102        1.000000        0.00000551        0.00120380        0.00004071        0.00011543
     171         -0.439665        1.000000        0.00182899        0.40035947        0.01976539        0.03550437
     172         -0.437730        1.000000        0.00144700        0.19675025        0.17962193        0.00010394
     173         -0.436440        1.000000        0.00002704        0.00253174        0.00400695        0.00052344
     174         -0.435887        1.000000        0.00001161        0.00132357        0.00013036        0.00014883
     175         -0.434598        1.000000        0.00000409        0.01529109        0.00072417        0.00066820
     176         -0.434594        1.000000        0.00003239        0.00183432        0.00219727        0.00114817
     177         -0.434420        1.000000        0.00000337        0.00031098        0.00007932        0.00005669
     178         -0.434076        1.000000        0.00000231        0.00062578        0.00004817        0.00001390
     179         -0.433335        1.000000        0.00000465        0.00013342        0.00003537        0.00002025
     180         -0.432341        1.000000        0.00025287        0.00233692        0.01404251        0.00779218
     181         -0.432195        1.000000        0.00000533        0.00171041        0.00051685        0.00006398
     182         -0.427984        1.000000        0.00000157        0.00000031        0.00011317        0.00009266
     183         -0.427458        1.000000        0.00001777        0.00120301        0.00030293        0.00008111
     184         -0.426975        1.000000        0.00001913        0.00032998        0.00069223        0.00062104
     185         -0.426390        1.000000        0.00000982        0.00046346        0.00015155        0.00007669
     186         -0.426022        1.000000        0.00000037        0.00001789        0.00018975        0.00001621
     187         -0.425381        1.000000        0.00002096        0.00041310        0.00025766        0.00031457
     188         -0.422604        1.000000        0.00014062        0.20216058        0.22945961        0.00211253
     189         -0.421537        1.000000        0.00025477        0.00676058        0.00082298        0.00004998
     190         -0.421349        1.000000        0.00000006        0.00005978        0.00010745        0.00010075
     191         -0.420329        1.000000        0.00001927        0.00030158        0.00016581        0.00001213
     192         -0.419357        1.000000        0.00000013        0.00000061        0.00000114        0.00000218
     193         -0.418939        1.000000        0.00000130        0.00001290        0.00017210        0.00000595
     194         -0.415661        1.000000        0.00000334        0.00001351        0.00008973        0.00002827
     195         -0.415171        1.000000        0.00025874        0.00172743        0.00397008        0.00079896
     196         -0.414663        1.000000        0.00016509        0.00045590        0.00334428        0.00282108
     197         -0.414355        1.000000        0.00018117        0.00027807        0.00321530        0.00478832
     198         -0.413446        1.000000        0.00000827        0.00006938        0.00020776        0.00006476
     199         -0.413200        1.000000        0.00011600        0.00054709        0.00594822        0.00150893
     200         -0.412710        1.000000        0.00001559        0.00005829        0.00061027        0.00014027
     201         -0.411334        1.000000        0.00008721        0.00855902        0.00773238        0.00041102
     202         -0.411195        1.000000        0.00262452        0.00092760        0.08438495        0.03409898
     203         -0.410284        1.000000        0.00006108        0.00041400        0.00156278        0.00035170
     204         -0.409855        1.000000        0.00483333        0.00618845        0.19832375        0.09334163
     205         -0.408423        1.000000        0.00028126        0.00166586        0.00994815        0.00155635
     206         -0.407495        1.000000        0.00001996        0.00009066        0.00121292        0.00028327
     207         -0.406883        1.000000        0.00014328        0.00124531        0.00221465        0.00103171
     208         -0.405410        1.000000        0.00008002        0.00061373        0.00141026        0.00023080
     209         -0.404660        1.000000        0.00000213        0.00004596        0.00000744        0.00009185
     210         -0.404415        1.000000        0.00000213        0.00012914        0.00004117        0.00007172
     211         -0.403217        1.000000        0.00000086        0.00003023        0.00003484        0.00015560
     212         -0.402339        1.000000        0.00008131        0.00119310        0.00234735        0.00154409
     213         -0.401311        1.000000        0.00056857        0.00232698        0.00124976        0.00972082
     214         -0.400619        1.000000        0.00036777        0.00180705        0.00275475        0.00671552
     215         -0.399335        1.000000        0.00000226        0.00003371        0.00005826        0.00003673
     216         -0.397877        1.000000        0.00000416        0.00003745        0.00009323        0.00007575
     217         -0.396457        1.000000        0.00000313        0.00014036        0.00008827        0.00012561
     218         -0.395806        1.000000        0.00037605        0.00425311        0.00167113        0.00985971
     219         -0.395582        1.000000        0.00873596        0.08578492        0.03949536        0.24307567
     220         -0.394800        1.000000        0.00001202        0.00001595        0.00010912        0.00002232
     221         -0.394543        1.000000        0.00000213        0.00001577        0.00005079        0.00002152
     222         -0.389704        1.000000        0.00000031        0.00000130        0.00000153        0.00000224
     223         -0.388791        1.000000        0.00000033        0.00000461        0.00000110        0.00000426
     224         -0.384968        1.000000        0.00021721        0.00269280        0.00433134        0.00425095
     225         -0.382879        1.000000        0.00165440        0.00003657        0.03432768        0.00322174
     226         -0.380788        1.000000        0.00887096        0.00853301        0.15086482        0.25161907
     227         -0.380466        1.000000        0.00854219        0.02169204        0.35776864        0.03936141
     228         -0.379945        1.000000        0.00000108        0.00006250        0.00000239        0.00001554
     229         -0.378393        1.000000        0.00000232        0.00000446        0.00001742        0.00003079
     230         -0.378163        1.000000        0.00033706        0.00458328        0.00091330        0.00578930
     231         -0.375485        1.000000        0.00000008        0.00000040        0.00000251        0.00000184
     232         -0.372774        1.000000        0.00000128        0.00001190        0.00002012        0.00005985
     233         -0.368550        1.000000        0.00000112        0.00001641        0.00012491        0.00021884
     234         -0.364014        1.000000        0.00591071        0.01417916        0.01453905        0.38728326
     235         -0.360842        1.000000        0.01037759        0.03333743        0.03722277        0.31663257
     236         -0.352987        1.000000        0.00000513        0.00003570        0.00001642        0.00008181
     237         -0.352733        1.000000        0.00478551        0.01349779        0.02735807        0.16628593
     238         -0.352613        1.000000        0.00448557        0.01289349        0.02532097        0.16068455
     239         -0.348467        1.000000        0.00000039        0.00001261        0.00003438        0.00006747
     240         -0.348326        1.000000        0.00000786        0.02433491        0.00756330        0.00606324
     241         -0.347064        1.000000        0.00000109        0.01273724        0.00667083        0.01766292
     242         -0.339125        1.000000        0.00105302        0.00008370        0.00874423        0.00989729
     243         -0.336797        1.000000        0.00002244        0.00000292        0.00014405        0.00016558
     244         -0.335426        1.000000        0.00070100        0.00024762        0.00586957        0.00035846
     245         -0.334686        1.000000        0.00001374        0.00012272        0.00000789        0.00015005
     246         -0.330876        1.000000        0.00011786        0.00091273        0.01159374        0.01736118
     247         -0.330306        1.000000        0.00001066        0.01500727        0.00441164        0.01359785
     248         -0.327769        1.000000        0.00008654        0.00027878        0.00073176        0.00607322
     249         -0.327454        1.000000        0.00000159        0.00854814        0.02203999        0.00035694
     250         -0.327235        1.000000        0.00005942        0.00054520        0.00074052        0.00438882
     251         -0.325847        1.000000        0.00001507        0.04301857        0.00000814        0.00085187
     252         -0.325390        1.000000        0.00003761        0.00053347        0.00107490        0.00000545
     253         -0.323868        1.000000        0.00001134        0.00205961        0.00004597        0.00010703
     254         -0.323202        1.000000        0.00000103        0.00097450        0.00007752        0.00004104
     255         -0.321820        1.000000        0.00029384        0.00009443        0.00717071        0.00813371
     256         -0.314532        1.000000        0.00002542        0.00142797        0.00037329        0.00090491
     257         -0.313827        1.000000        0.00018699        0.00776560        0.00041023        0.00290655
     258         -0.312681        1.000000        0.00051018        0.02421244        0.00150160        0.00042028
     259         -0.312430        1.000000        0.00042029        0.01056772        0.01340242        0.00405549