# Projected DOS for atomic kind O at iteration step i = 0, E(Fermi) =    -0.128555 a.u.
#     MO Eigenvalue [a.u.]      Occupation                 s                py                pz                px
       1         -0.932975        1.000000        0.71382823        0.00401714        0.01806323        0.00978497
       2         -0.923369        1.000000        0.71750926        0.01530037        0.00371940        0.01096266
       3         -0.922485        1.000000        0.70297763        0.01429732        0.00939063        0.00324399
       4         -0.917151        1.000000        0.70994662        0.00337150        0.00066507        0.02887668
       5         -0.914873        1.000000        0.70797421        0.03108466        0.00548254        0.00017027
       6         -0.911518        1.000000        0.71483796        0.01523310        0.00552521        0.01067474
       7         -0.907442        1.000000        0.70772350        0.02046690        0.00434476        0.01399679
       8         -0.906332        1.000000        0.70586788        0.00794930        0.01834418        0.00356133
       9         -0.906159        1.000000        0.71245827        0.00370683        0.02074353        0.00423894
      10         -0.906114        1.000000        0.71530631        0.00982255        0.00957144        0.00352848
      11         -0.905672        1.000000        0.70888926        0.00496501        0.02086388        0.00457562
      12         -0.902644        1.000000        0.71151765        0.00215756        0.02253673        0.00329965
      13         -0.899769        1.000000        0.70902965        0.02543531        0.00938139        0.00108134
      14         -0.896883        1.000000        0.70897706        0.00693241        0.02206071        0.00379826
      15         -0.891112        1.000000        0.71084529        0.01800615        0.01192611        0.00131752
      16         -0.888091        1.000000        0.72608819        0.00343934        0.02709551        0.00160734
      17         -0.887748        1.000000        0.73106335        0.01148682        0.00918171        0.00999841
      18         -0.887238        1.000000        0.00000017        0.00000001        0.00000000        0.00000000
      19         -0.884614        1.000000        0.71668772        0.01495384        0.01804868        0.00290359
      20         -0.884366        1.000000        0.74390088        0.01781879        0.01192914        0.00687627
      21         -0.882257        1.000000        0.69018907        0.01257911        0.00516989        0.01623032
      22         -0.881964        1.000000        0.70608664        0.02602048        0.00785429        0.00526737
      23         -0.881711        1.000000        0.72526057        0.01718540        0.00677579        0.00987712
      24         -0.880737        1.000000        0.71878217        0.01155938        0.00872404        0.00229559
      25         -0.879860        1.000000        0.71005306        0.00650077        0.01112700        0.00399308
      26         -0.879127        1.000000        0.70529273        0.00274350        0.00010440        0.03519991
      27         -0.877222        1.000000        0.00012175        0.00000627        0.00000707        0.00000711
      28         -0.876040        1.000000        0.71866087        0.01573345        0.00746222        0.00866399
      29         -0.872516        1.000000        0.71415755        0.00939013        0.01727153        0.00279504
      30         -0.872228        1.000000        0.72714499        0.00850726        0.01156488        0.00833186
      31         -0.872145        1.000000        0.69291543        0.01879451        0.00255689        0.00834329
      32         -0.870541        1.000000        0.71977361        0.00875746        0.00851145        0.01488838
      33         -0.868925        1.000000        0.71300250        0.00516921        0.01261970        0.00918219
      34         -0.868197        1.000000        0.70651253        0.03754307        0.00048189        0.00197668
      35         -0.866156        1.000000        0.68531088        0.00395325        0.00955202        0.00198767
      36         -0.861810        1.000000        0.71818884        0.00356309        0.01476257        0.01027178
      37         -0.858982        1.000000        0.70399450        0.02170110        0.01174242        0.00625371
      38         -0.856960        1.000000        0.76007465        0.00252612        0.02281535        0.01005004
      39         -0.854255        1.000000        0.71144353        0.01480544        0.00781460        0.00980960
      40         -0.853331        1.000000        0.60847846        0.00887063        0.00686820        0.00530267
      41         -0.853082        1.000000        0.70011426        0.00737986        0.00782313        0.00732950
      42         -0.851564        1.000000        0.73903107        0.01333904        0.00855755        0.00592451
      43         -0.850260        1.000000        0.76999129        0.01211036        0.02891033        0.00256105
      44         -0.849754        1.000000        0.73550838        0.01320361        0.00691864        0.00256883
      45         -0.849311        1.000000        0.71138256        0.02305275        0.00218595        0.00724671
      46         -0.848192        1.000000        0.71204629        0.01448567        0.00563871        0.00394379
      47         -0.847948        1.000000        0.69266501        0.03217473        0.00152203        0.01620135
      48         -0.845468        1.000000        0.69815942        0.01286354        0.03514598        0.00093793
      49         -0.842124        1.000000        0.64737149        0.00732022        0.00152714        0.00521689
      50         -0.840333        1.000000        0.75400284        0.02503427        0.00263197        0.01549937
      51         -0.839395        1.000000        0.69237592        0.00087136        0.00533955        0.04367824
      52         -0.839304        1.000000        0.72928703        0.01210065        0.01119125        0.00457114
      53         -0.839207        1.000000        0.72308326        0.00145112        0.01759557        0.01179430
      54         -0.839020        1.000000        0.71171101        0.02638393        0.01005817        0.00306928
      55         -0.838180        1.000000        0.64699370        0.01824064        0.00379954        0.00184772
      56         -0.837824        1.000000        0.42104940        0.00813672        0.00516137        0.00798397
      57         -0.837554        1.000000        0.69645774        0.00018865        0.04261825        0.00345636
      58         -0.837159        1.000000        0.69318554        0.03131344        0.01690881        0.00159876
      59         -0.836564        1.000000        0.69269768        0.04124819        0.00836442        0.00026219
      60         -0.835956        1.000000        0.73191389        0.02933549        0.00132450        0.01796347
      61         -0.834117        1.000000        0.65315798        0.00805058        0.01181407        0.00663143
      62         -0.831917        1.000000        0.05763696        0.00704503        0.00031917        0.00327848
      63         -0.831898        1.000000        0.72449135        0.02118830        0.00912641        0.00731707
      64         -0.831698        1.000000        0.69216707        0.00002111        0.00882414        0.04141547
      65         -0.830174        1.000000        0.69137072        0.00027065        0.04574851        0.00438249
      66         -0.829054        1.000000        0.60783000        0.00968135        0.00310945        0.00647640
      67         -0.827669        1.000000        0.68451419        0.01104448        0.01084240        0.01064395
      68         -0.827508        1.000000        0.69981454        0.01307907        0.01812155        0.00584036
      69         -0.824451        1.000000        0.71714654        0.00602802        0.02151546        0.01780814
      70         -0.822724        1.000000        0.49245760        0.00544187        0.01595916        0.00510977
      71         -0.821479        1.000000        0.69493978        0.00019930        0.00542843        0.04354744
      72         -0.818839        1.000000        0.69199291        0.01300253        0.00809411        0.02915574
      73         -0.818607        1.000000        0.50837108        0.00846196        0.00832933        0.00617824
      74         -0.813480        1.000000        0.77602413        0.01718289        0.01190612        0.01080936
      75         -0.810930        1.000000        0.54989472        0.00805284        0.01520316        0.01129241
      76         -0.810542        1.000000        0.71188380        0.00493364        0.02104301        0.01893077
      77         -0.809508        1.000000        0.20653862        0.00265966        0.00663732        0.00576274
      78         -0.808087        1.000000        0.70755269        0.02054004        0.02245505        0.00487294
      79         -0.807329        1.000000        0.70688308        0.02803430        0.01747874        0.00172637
      80         -0.805687        1.000000        0.70622187        0.01991430        0.00624432        0.02214975
      81         -0.804826        1.000000        0.71814298        0.00902549        0.01644429        0.02188144
      82         -0.803037        1.000000        0.66300516        0.00803968        0.00978191        0.01485937
      83         -0.796639        1.000000        0.11473036        0.00664707        0.00744048        0.00145708
      84         -0.793123        1.000000        0.79525995        0.01878766        0.01198544        0.00658829
      85         -0.790036        1.000000        0.73011022        0.00904456        0.00823898        0.01748130
      86         -0.630106        1.000000        0.00000003        0.00000010        0.00000003        0.00000003
      87         -0.613534        1.000000        0.00026533        0.00006689        0.00082696        0.00056624
      88         -0.604644        1.000000        0.00236711        0.00749290        0.00186419        0.00132274
      89         -0.603173        1.000000        0.00015991        0.00129577        0.00021651        0.00118129
      90         -0.602776        1.000000        0.00150400        0.00442363        0.00159476        0.00099998
      91         -0.590654        1.000000        0.00081347        0.00247747        0.00321934        0.00023554
      92         -0.588111        1.000000        0.00081502        0.00273546        0.00353320        0.00022791
      93         -0.581125        1.000000        0.00041001        0.00242096        0.00200556        0.00061756
      94         -0.573046        1.000000        0.00024062        0.00142808        0.00143378        0.00020071
      95         -0.569681        1.000000        0.00084310        0.00100670        0.00469708        0.00107746
      96         -0.569362        1.000000        0.00445907        0.00278060        0.00217816        0.01681911
      97         -0.560967        1.000000        0.00878752        0.00323465        0.00392016        0.01945981
      98         -0.556334        1.000000        0.00056204        0.00056551        0.00243804        0.00073270
      99         -0.550751        1.000000        0.00087333        0.00395431        0.00120490        0.00055834
     100         -0.546842        1.000000        0.00080877        0.00697294        0.00113872        0.00104639
     101         -0.546341        1.000000        0.00084497        0.00238695        0.00224852        0.00088376
     102         -0.545303        1.000000        0.00025830        0.00040784        0.00038934        0.00040985
     103         -0.541520        1.000000        0.00085546        0.00077572        0.00095024        0.00043924
     104         -0.539595        1.000000        0.00075359        0.00668393        0.00490068        0.00139749
     105         -0.539422        1.000000        0.00084430        0.00349710        0.00128716        0.00301289
     106         -0.538007        1.000000        0.00063957        0.00129499        0.00205600        0.00160359
     107         -0.537007        1.000000        0.00059905        0.00460212        0.00276483        0.00243628
     108         -0.536779        1.000000        0.00077045        0.00924244        0.00283697        0.00187152
     109         -0.536112        1.000000        0.00160668        0.00880013        0.00387071        0.00533077
     110         -0.535587        1.000000        0.00064787        0.00626318        0.00265562        0.00302603
     111         -0.534071        1.000000        0.00065778        0.00127950        0.00166768        0.00332249
     112         -0.531116        1.000000        0.00069147        0.00239528        0.00223056        0.00423342
     113         -0.531066        1.000000        0.00049312        0.00175576        0.00155308        0.00241045
     114         -0.529584        1.000000        0.00090085        0.00250096        0.00270611        0.00236035
     115         -0.529140        1.000000        0.00163087        0.00626839        0.00514760        0.01429709
     116         -0.527452        1.000000        0.00141846        0.00231115        0.00541751        0.01831641
     117         -0.526003        1.000000        0.00144110        0.01403169        0.00911825        0.00834181
     118         -0.525311        1.000000        0.00108635        0.01272484        0.00745861        0.00671373
     119         -0.525243        1.000000        0.00069366        0.00326465        0.00759685        0.01522023
     120         -0.522405        1.000000        0.00065936        0.00088678        0.00085460        0.00506478
     121         -0.521441        1.000000        0.00009654        0.00040547        0.00033715        0.00042086
     122         -0.520357        1.000000        0.00085671        0.00423401        0.00517592        0.01381571
     123         -0.519951        1.000000        0.00094011        0.00064722        0.00091572        0.00366034
     124         -0.518947        1.000000        0.00087165        0.00317207        0.00228857        0.00716920
     125         -0.518861        1.000000        0.00083908        0.00401869        0.00151004        0.00475175
     126         -0.518274        1.000000        0.00134181        0.00283833        0.00556414        0.01998009
     127         -0.517917        1.000000        0.00127970        0.00076992        0.00083606        0.00432998
     128         -0.516604        1.000000        0.00026565        0.00037406        0.00172580        0.00737216
     129         -0.506935        1.000000        0.00002720        0.00063945        0.00058196        0.00093438
     130         -0.502174        1.000000        0.00002982        0.00310441        0.00045674        0.00091465
     131         -0.501686        1.000000        0.00004936        0.01805021        0.00184309        0.00232942
     132         -0.492145        1.000000        0.00003844        0.01879606        0.00144378        0.00224228
     133         -0.484412        1.000000        0.00112024        0.50048012        0.02523356        0.04840016
     134         -0.482350        1.000000        0.00293200        0.04102983        0.16253583        0.37285580
     135         -0.481159        1.000000        0.00075625        0.20555319        0.08079679        0.11215242
     136         -0.478179        1.000000        0.00099519        0.05997988        0.33548915        0.25422418
     137         -0.477656        1.000000        0.00020964        0.03576744        0.31227963        0.28516707
     138         -0.475207        1.000000        0.00044761        0.18835097        0.08316921        0.06642957
     139         -0.474376        1.000000        0.00307568        0.34044642        0.02095857        0.26973272
     140         -0.473467        1.000000        0.00122889        0.14167508        0.50245290        0.00528652
     141         -0.472932        1.000000        0.00014219        0.01088015        0.00496687        0.00610978
     142         -0.472185        1.000000        0.00207012        0.27139158        0.03005720        0.30433531
     143         -0.472153        1.000000        0.00249530        0.20677220        0.04118884        0.35257659
     144         -0.468863        1.000000        0.00027303        0.24343060        0.01619029        0.36939874
     145         -0.468117        1.000000        0.00156049        0.02407699        0.14399862        0.44586161
     146         -0.465568        1.000000        0.00166610        0.02311600        0.14082920        0.43177721
     147         -0.464311        1.000000        0.00038464        0.55842239        0.04222676        0.02916583
     148         -0.463219        1.000000        0.00063660        0.00902523        0.18368046        0.00128241
     149         -0.462581        1.000000        0.00313231        0.12055478        0.06504327        0.47331285
     150         -0.460842        1.000000        0.00105986        0.06959322        0.04996349        0.07275642
     151         -0.459526        1.000000        0.00170338        0.25852876        0.35670899        0.03074879
     152         -0.459097        1.000000        0.00054516        0.36352058        0.09167103        0.18143837
     153         -0.457374        1.000000        0.00044897        0.00973286        0.25506955        0.37098892
     154         -0.455206        1.000000        0.00036462        0.03683642        0.01189315        0.59165432
     155         -0.454450        1.000000        0.00125322        0.10244878        0.09268662        0.09853465
     156         -0.454261        1.000000        0.00166172        0.13250496        0.11648909        0.12577773
     157         -0.453739        1.000000        0.00175357        0.02582205        0.06263033        0.52075414
     158         -0.453586        1.000000        0.00231904        0.18062107        0.24999725        0.20797311
     159         -0.451883        1.000000        0.00217482        0.08480745        0.53508447        0.01275013
     160         -0.451809        1.000000        0.00009149        0.00321763        0.01152442        0.00193547
     161         -0.451756        1.000000        0.00326691        0.02260004        0.19413035        0.30695820
     162         -0.450436        1.000000        0.00509928        0.02108750        0.57949690        0.04573743
     163         -0.450021        1.000000        0.00351041        0.19501871        0.09875017        0.35060133
     164         -0.449258        1.000000        0.00026158        0.04331355        0.03621983        0.03221701
     165         -0.445604        1.000000        0.00117737        0.13766773        0.01422468        0.48466487
     166         -0.445041        1.000000        0.00286210        0.22070101        0.15782796        0.27441336
     167         -0.441781        1.000000        0.00026400        0.08555503        0.48785354        0.00769147
     168         -0.441082        1.000000        0.00044778        0.19128221        0.32904842        0.12414049
     169         -0.440588        1.000000        0.00157596        0.13781040        0.14972982        0.28600680
     170         -0.440102        1.000000        0.00002102        0.11200804        0.00186591        0.52361854
     171         -0.439665        1.000000        0.00020401        0.06946145        0.03774119        0.03613540
     172         -0.437730        1.000000        0.00051786        0.03526076        0.05798495        0.10925690
     173         -0.436440        1.000000        0.00224699        0.46508861        0.08973732        0.09296717
     174         -0.435887        1.000000        0.00241203        0.13193651        0.27404446        0.23664716
     175         -0.434598        1.000000        0.00505546        0.18091357        0.32647008        0.11636859
     176         -0.434594        1.000000        0.00198302        0.06590970        0.31704985        0.25986196
     177         -0.434420        1.000000        0.00046906        0.05370901        0.51161824        0.07195132
     178         -0.434076        1.000000        0.00498962        0.05481389        0.01831110        0.56005317
     179         -0.433335        1.000000        0.00595214        0.16599597        0.13604690        0.35793027
     180         -0.432341        1.000000        0.00201286        0.29244238        0.10214291        0.22828696
     181         -0.432195        1.000000        0.00147637        0.10544976        0.34894305        0.19493338
     182         -0.427984        1.000000        0.00446191        0.26275964        0.03299910        0.35368980
     183         -0.427458        1.000000        0.00305812        0.23046277        0.19715861        0.21499129
     184         -0.426975        1.000000        0.00026434        0.00577012        0.12935739        0.01433675
     185         -0.426390        1.000000        0.00343521        0.24100073        0.23746675        0.15784136
     186         -0.426022        1.000000        0.00543260        0.12094516        0.01425508        0.50440402
     187         -0.425381        1.000000        0.00007768        0.00658708        0.50716651        0.00252543
     188         -0.422604        1.000000        0.00130189        0.05305496        0.05315194        0.03822959
     189         -0.421537        1.000000        0.00148537        0.13324037        0.18243235        0.31647408
     190         -0.421349        1.000000        0.00505605        0.04122658        0.23295231        0.37513117
     191         -0.420329        1.000000        0.00018446        0.23537762        0.13021754        0.22605255
     192         -0.419357        1.000000        0.00781624        0.08484347        0.46422007        0.10664447
     193         -0.418939        1.000000        0.00294565        0.08455998        0.04971354        0.49266087
     194         -0.415661        1.000000        0.00183303        0.05522218        0.04216930        0.52047210
     195         -0.415171        1.000000        0.00098417        0.02318137        0.04343150        0.03509691
     196         -0.414663        1.000000        0.00228265        0.06078214        0.14509656        0.02805665
     197         -0.414355        1.000000        0.00361737        0.12828874        0.32360615        0.02309355
     198         -0.413446        1.000000        0.00567885        0.09676458        0.37608710        0.17747921
     199         -0.413200        1.000000        0.00395508        0.07043410        0.39666516        0.06884336
     200         -0.412710        1.000000        0.00553800        0.14967335        0.12627969        0.34962277
     201         -0.411334        1.000000        0.00342342        0.29119982        0.12268415        0.21444337
     202         -0.411195        1.000000        0.00053521        0.01271985        0.06723322        0.01771606
     203         -0.410284        1.000000        0.00359721        0.15351770        0.28704356        0.21020877
     204         -0.409855        1.000000        0.00025221        0.00416444        0.01394322        0.00521206
     205         -0.408423        1.000000        0.00275563        0.33708776        0.05985461        0.03973128
     206         -0.407495        1.000000        0.00002320        0.02260042        0.37945758        0.17232438
     207         -0.406883        1.000000        0.00319070        0.07247812        0.40905186        0.10382166
     208         -0.405410        1.000000        0.00184635        0.09916487        0.02388034        0.01801959
     209         -0.404660        1.000000        0.00394484        0.27557048        0.28161066        0.08624819
     210         -0.404415        1.000000        0.00669380        0.03750280        0.19727757        0.40038666
     211         -0.403217        1.000000        0.00005732        0.06409066        0.07146181        0.49526000
     212         -0.402339        1.000000        0.00023603        0.00421612        0.03541460        0.02035754
     213         -0.401311        1.000000        0.00057026        0.03375100        0.00921874        0.01342500
     214         -0.400619        1.000000        0.00053161        0.04777162        0.02225591        0.02125325
     215         -0.399335        1.000000        0.00591111        0.06011617        0.10055410        0.46732527
     216         -0.397877        1.000000        0.00013001        0.27040832        0.31960308        0.01614853
     217         -0.396457        1.000000        0.00412684        0.25694224        0.25800125        0.12786375
     218         -0.395806        1.000000        0.00011046        0.03270947        0.04770035        0.52804030
     219         -0.395582        1.000000        0.00046762        0.01599860        0.02567329        0.02808172
     220         -0.394800        1.000000        0.00007069        0.02992624        0.00279635        0.59087442
     221         -0.394543        1.000000        0.00009815        0.04638256        0.09820502        0.47643671
     222         -0.389704        1.000000        0.00001074        0.09580158        0.43929237        0.09297247
     223         -0.388791        1.000000        0.00000831        0.42969139        0.00644583        0.19011320
     224         -0.384968        1.000000        0.00448455        0.39393440        0.09167771        0.12819588
     225         -0.382879        1.000000        0.00192887        0.23036126        0.32802245        0.02753624
     226         -0.380788        1.000000        0.00213452        0.00169331        0.03316332        0.00555311
     227         -0.380466        1.000000        0.00298162        0.02136503        0.00170983        0.01694958
     228         -0.379945        1.000000        0.00572865        0.12055429        0.04921958        0.46211155
     229         -0.378393        1.000000        0.00002722        0.60243330        0.02425156        0.00031663
     230         -0.378163        1.000000        0.00380549        0.29699058        0.20100465        0.11228406
     231         -0.375485        1.000000        0.00001105        0.29118915        0.33364275        0.00287589
     232         -0.372774        1.000000        0.00467795        0.05511699        0.34593721        0.23636979
     233         -0.368550        1.000000        0.12765686        0.31787684        0.27436440        0.07865474
     234         -0.364014        1.000000        0.00042214        0.00706356        0.02542119        0.01069883
     235         -0.360842        1.000000        0.00549615        0.03604491        0.02434580        0.01039132
     236         -0.352987        1.000000        0.12941385        0.11542678        0.45115804        0.12246483
     237         -0.352733        1.000000        0.05423590        0.10792838        0.14482023        0.09948982
     238         -0.352613        1.000000        0.05754432        0.11350841        0.14940374        0.10196262
     239         -0.348467        1.000000        0.11808975        0.16059388        0.20476076        0.30208356
     240         -0.348326        1.000000        0.00016902        0.00029258        0.00032548        0.00037421
     241         -0.347064        1.000000        0.00010071        0.00014827        0.00019240        0.00021201
     242         -0.339125        1.000000        0.02375543        0.02228677        0.11797641        0.02592847
     243         -0.336797        1.000000        0.12136154        0.26080069        0.24985703        0.19948757
     244         -0.335426        1.000000        0.04171365        0.12093520        0.02073008        0.09312865
     245         -0.334686        1.000000        0.12056800        0.04952874        0.44391726        0.20332474
     246         -0.330876        1.000000        0.00685138        0.00437231        0.00375391        0.05136390
     247         -0.330306        1.000000        0.00201801        0.00744920        0.01020898        0.00311506
     248         -0.327769        1.000000        0.12770611        0.26777925        0.19522875        0.16589921
     249         -0.327454        1.000000        0.00535843        0.01496696        0.01982362        0.01555119
     250         -0.327235        1.000000        0.13149033        0.27634115        0.20612318        0.16554620
     251         -0.325847        1.000000        0.00787781        0.00905241        0.01554131        0.01500596
     252         -0.325390        1.000000        0.13148213        0.05965351        0.31214324        0.28215943
     253         -0.323868        1.000000        0.14335159        0.06168923        0.36086063        0.26292704
     254         -0.323202        1.000000        0.12600150        0.33674049        0.16120600        0.22712613
     255         -0.321820        1.000000        0.02696496        0.03772888        0.06123820        0.09670770
     256         -0.314532        1.000000        0.12815218        0.31834642        0.20298080        0.17025363
     257         -0.313827        1.000000        0.06133427        0.10977339        0.10444727        0.15005303
     258         -0.312681        1.000000        0.12536326        0.11950546        0.16830298        0.32103908
     259         -0.312430        1.000000        0.10382645        0.09504781        0.21901375        0.18975546