# Projected DOS for atomic kind N at iteration step i = 0, E(Fermi) =    -0.128777 a.u.
#     MO Eigenvalue [a.u.]      Occupation                 s                py                pz                px
       1         -0.932961        1.000000        0.00000000        0.00000001        0.00000000        0.00000000
       2         -0.923367        1.000000        0.00000000        0.00000000        0.00000000        0.00000000
       3         -0.922484        1.000000        0.00000002        0.00000000        0.00000000        0.00000001
       4         -0.917149        1.000000        0.00037665        0.00005138        0.00000032        0.00000114
       5         -0.914891        1.000000        0.00002785        0.00000416        0.00000883        0.00000831
       6         -0.911516        1.000000        0.00000000        0.00000000        0.00000000        0.00000000
       7         -0.907439        1.000000        0.00000220        0.00000029        0.00000002        0.00000002
       8         -0.906332        1.000000        0.00001638        0.00000169        0.00000000        0.00000117
       9         -0.906187        1.000000        0.00000329        0.00000012        0.00000012        0.00000119
      10         -0.906110        1.000000        0.00000001        0.00000000        0.00000000        0.00000000
      11         -0.905671        1.000000        0.00000010        0.00000001        0.00000000        0.00000002
      12         -0.902635        1.000000        0.00000001        0.00000000        0.00000000        0.00000000
      13         -0.899774        1.000000        0.00008739        0.00001098        0.00000098        0.00000503
      14         -0.896890        1.000000        0.00000388        0.00000002        0.00000020        0.00000005
      15         -0.891115        1.000000        0.00001903        0.00000135        0.00000012        0.00000024
      16         -0.888090        1.000000        0.00000006        0.00000000        0.00000000        0.00000000
      17         -0.887744        1.000000        0.00000038        0.00000000        0.00000000        0.00000000
      18         -0.887260        1.000000        0.61335515        0.00002098        0.00012902        0.00001436
      19         -0.884603        1.000000        0.00000706        0.00000000        0.00000000        0.00000000
      20         -0.884366        1.000000        0.00001448        0.00000001        0.00000000        0.00000067
      21         -0.882259        1.000000        0.01650605        0.00000005        0.00000048        0.00060755
      22         -0.881885        1.000000        0.00000019        0.00000000        0.00000001        0.00000001
      23         -0.881710        1.000000        0.00039488        0.00001058        0.00000079        0.00001592
      24         -0.880739        1.000000        0.00000008        0.00000000        0.00000000        0.00000000
      25         -0.879860        1.000000        0.00001030        0.00000227        0.00000004        0.00000035
      26         -0.879145        1.000000        0.00000024        0.00000000        0.00000000        0.00000000
      27         -0.877207        1.000000        0.61508211        0.00008330        0.00000061        0.00038919
      28         -0.876046        1.000000        0.00000098        0.00000000        0.00000000        0.00000000
      29         -0.872701        1.000000        0.00011516        0.00000140        0.00000199        0.00000249
      30         -0.872592        1.000000        0.00000031        0.00000000        0.00000000        0.00000002
      31         -0.872515        1.000000        0.00000002        0.00000001        0.00000000        0.00000001
      32         -0.872139        1.000000        0.02480999        0.00089174        0.00000021        0.00007461
      33         -0.868926        1.000000        0.00022530        0.00000458        0.00000033        0.00000583
      34         -0.868196        1.000000        0.00003679        0.00000006        0.00000002        0.00000027
      35         -0.866159        1.000000        0.02285844        0.00000933        0.00012108        0.00001660
      36         -0.861772        1.000000        0.00084231        0.00001340        0.00000021        0.00000066
      37         -0.859049        1.000000        0.00000005        0.00000000        0.00000000        0.00000000
      38         -0.856955        1.000000        0.00005943        0.00000017        0.00000072        0.00000014
      39         -0.854257        1.000000        0.00335030        0.00002446        0.00012672        0.00006001
      40         -0.853333        1.000000        0.09857261        0.00001197        0.00001065        0.00000087
      41         -0.853094        1.000000        0.01359881        0.00008671        0.00000738        0.00013172
      42         -0.851563        1.000000        0.00000001        0.00000000        0.00000000        0.00000000
      43         -0.850257        1.000000        0.00000045        0.00000004        0.00000004        0.00000010
      44         -0.849753        1.000000        0.00000387        0.00000003        0.00000003        0.00000002
      45         -0.849479        1.000000        0.00001055        0.00000000        0.00000010        0.00000050
      46         -0.848175        1.000000        0.00079400        0.00000080        0.00000464        0.00000118
      47         -0.847946        1.000000        0.00000002        0.00000000        0.00000000        0.00000000
      48         -0.845834        1.000000        0.00000714        0.00000083        0.00000001        0.00000006
      49         -0.845407        1.000000        0.00000291        0.00000000        0.00000000        0.00000008
      50         -0.842138        1.000000        0.04658127        0.00000928        0.00011405        0.00003104
      51         -0.841866        1.000000        0.00460033        0.00000124        0.00001139        0.00000444
      52         -0.839393        1.000000        0.00000001        0.00000000        0.00000000        0.00000000
      53         -0.839304        1.000000        0.01069552        0.00000836        0.00000114        0.00002110
      54         -0.838852        1.000000        0.00002097        0.00000009        0.00000051        0.00000177
      55         -0.838798        1.000000        0.00254447        0.00000006        0.00000167        0.00000080
      56         -0.838181        1.000000        0.06255643        0.00042758        0.00002555        0.00029996
      57         -0.837821        1.000000        0.26073424        0.00000546        0.00122967        0.00036806
      58         -0.837549        1.000000        0.00167486        0.00000280        0.00000338        0.00001047
      59         -0.837187        1.000000        0.00003922        0.00000002        0.00000001        0.00000013
      60         -0.836564        1.000000        0.00000148        0.00000000        0.00000000        0.00000000
      61         -0.834125        1.000000        0.07191414        0.00000369        0.00000281        0.00006785
      62         -0.832466        1.000000        0.00001804        0.00000015        0.00000022        0.00000226
      63         -0.831917        1.000000        0.55515204        0.00090449        0.00002973        0.00046621
      64         -0.831737        1.000000        0.00000001        0.00000000        0.00000000        0.00000000
      65         -0.830164        1.000000        0.00000000        0.00000000        0.00000000        0.00000000
      66         -0.829054        1.000000        0.09588429        0.00002433        0.00000532        0.00000097
      67         -0.827673        1.000000        0.05729623        0.00009748        0.00007479        0.00000898
      68         -0.827518        1.000000        0.02677762        0.00046355        0.00044086        0.00004240
      69         -0.823005        1.000000        0.00002196        0.00000000        0.00000049        0.00000011
      70         -0.822726        1.000000        0.21149915        0.00000019        0.00481641        0.00103368
      71         -0.818869        1.000000        0.00000000        0.00000000        0.00000000        0.00000000
      72         -0.818597        1.000000        0.18311873        0.00024895        0.00054440        0.00015621
      73         -0.817602        1.000000        0.00025614        0.00000198        0.00000056        0.00000665
      74         -0.813464        1.000000        0.00000082        0.00000001        0.00000001        0.00000001
      75         -0.810915        1.000000        0.15497566        0.00025115        0.00139355        0.00029105
      76         -0.809518        1.000000        0.43878694        0.00392546        0.00025080        0.00133510
      77         -0.808821        1.000000        0.00002563        0.00000092        0.00000041        0.00000048
      78         -0.808586        1.000000        0.00023246        0.00000238        0.00000000        0.00000091
      79         -0.806728        1.000000        0.00001264        0.00000164        0.00000103        0.00000513
      80         -0.806526        1.000000        0.00003562        0.00000251        0.00000008        0.00001046
      81         -0.805910        1.000000        0.00000017        0.00000002        0.00000001        0.00000007
      82         -0.803045        1.000000        0.06915806        0.00042168        0.00103900        0.00042474
      83         -0.796640        1.000000        0.50329426        0.00053054        0.00066992        0.00214385
      84         -0.793116        1.000000        0.00000756        0.00000012        0.00000021        0.00000017
      85         -0.790038        1.000000        0.03618352        0.00039511        0.00125017        0.00049327
      86         -0.630103        1.000000        0.01752047        0.00266892        0.12679853        0.06158499
      87         -0.613544        1.000000        0.01299448        0.04206290        0.02982894        0.13141143
      88         -0.604655        1.000000        0.00793176        0.00021498        0.01620589        0.04581910
      89         -0.603163        1.000000        0.02819657        0.00583830        0.13766190        0.01551969
      90         -0.602787        1.000000        0.01918934        0.00224558        0.03162882        0.06739812
      91         -0.590647        1.000000        0.01542622        0.00139121        0.00892368        0.07017947
      92         -0.588102        1.000000        0.01399026        0.00143479        0.00858181        0.06615536
      93         -0.581127        1.000000        0.03220753        0.01095801        0.01754287        0.12548444
      94         -0.573060        1.000000        0.02232870        0.01751301        0.02235671        0.13085390
      95         -0.570249        1.000000        0.00037136        0.00033452        0.00039512        0.00242768
      96         -0.569436        1.000000        0.00008056        0.00000386        0.00007419        0.00015524
      97         -0.561008        1.000000        0.00004605        0.00009881        0.00027958        0.00006008
      98         -0.556390        1.000000        0.00005569        0.00057130        0.00025885        0.00062521
      99         -0.554744        1.000000        0.00058447        0.00291527        0.00061419        0.00017692
     100         -0.550024        1.000000        0.00001969        0.00097845        0.00012150        0.00055382
     101         -0.546658        1.000000        0.00014846        0.00561462        0.00459249        0.00028960
     102         -0.544971        1.000000        0.00006888        0.00205653        0.00119223        0.00149978
     103         -0.542042        1.000000        0.00017683        0.01319956        0.00082243        0.00424117
     104         -0.541825        1.000000        0.00001289        0.00039241        0.00021268        0.00026672
     105         -0.539575        1.000000        0.00017431        0.00269873        0.00103324        0.00177879
     106         -0.539525        1.000000        0.00053217        0.00634555        0.00398563        0.00912066
     107         -0.537614        1.000000        0.00027878        0.04486620        0.00282426        0.00024375
     108         -0.536878        1.000000        0.00001765        0.00678186        0.01771812        0.01298041
     109         -0.536296        1.000000        0.00016112        0.00182944        0.00235299        0.00342557
     110         -0.535540        1.000000        0.00032600        0.00411366        0.00518909        0.00970919
     111         -0.534608        1.000000        0.00014967        0.01333526        0.00240160        0.00755662
     112         -0.533212        1.000000        0.00060614        0.00451890        0.00186704        0.00707935
     113         -0.531818        1.000000        0.00003140        0.00049853        0.00031305        0.00088220
     114         -0.531057        1.000000        0.00007861        0.00225297        0.00037632        0.00097189
     115         -0.529355        1.000000        0.00020230        0.00104568        0.00089859        0.00189236
     116         -0.527532        1.000000        0.00016390        0.01065394        0.00890193        0.01209042
     117         -0.526124        1.000000        0.00030703        0.00406644        0.00096965        0.00078672
     118         -0.525513        1.000000        0.00040209        0.00143633        0.00385293        0.00832870
     119         -0.525387        1.000000        0.00008005        0.00206984        0.00135753        0.00117186
     120         -0.522930        1.000000        0.00027812        0.00686837        0.01888571        0.01130868
     121         -0.521427        1.000000        0.00000528        0.00034527        0.00028016        0.00021605
     122         -0.520470        1.000000        0.00002586        0.00323531        0.00141046        0.00325161
     123         -0.520281        1.000000        0.00006910        0.00011890        0.00364772        0.00109068
     124         -0.519314        1.000000        0.00023959        0.00080530        0.00335159        0.00073132
     125         -0.518918        1.000000        0.00001606        0.00116057        0.00022800        0.00034488
     126         -0.518380        1.000000        0.00004362        0.00586886        0.00116056        0.00110047
     127         -0.518217        1.000000        0.00024234        0.00181000        0.00081759        0.00039344
     128         -0.517007        1.000000        0.00002950        0.00386097        0.00193210        0.00202666
     129         -0.507256        1.000000        0.00017002        0.02657873        0.13390879        0.32524256
     130         -0.502476        1.000000        0.00011062        0.46820972        0.01908086        0.00557846
     131         -0.501695        1.000000        0.00001383        0.38509019        0.09528991        0.05628635
     132         -0.492198        1.000000        0.00012061        0.03272436        0.36613582        0.13275562
     133         -0.484394        1.000000        0.00002764        0.00442557        0.02430204        0.00060059
     134         -0.482366        1.000000        0.00000105        0.00110950        0.00236192        0.00011277
     135         -0.481158        1.000000        0.00000182        0.11056443        0.03355788        0.05908079
     136         -0.478179        1.000000        0.00000177        0.00018184        0.00000064        0.00001707
     137         -0.477689        1.000000        0.00000045        0.00027081        0.00013088        0.00007866
     138         -0.475207        1.000000        0.00007367        0.12177819        0.04566549        0.09537251
     139         -0.474379        1.000000        0.00000430        0.01320984        0.00007323        0.00016003
     140         -0.473464        1.000000        0.00000000        0.00000097        0.00000058        0.00000050
     141         -0.473050        1.000000        0.00004204        0.53519165        0.00571519        0.00313233
     142         -0.472187        1.000000        0.00000414        0.00045488        0.00011141        0.00027123
     143         -0.472157        1.000000        0.00000538        0.00037342        0.00010520        0.00027056
     144         -0.468862        1.000000        0.00001169        0.00272543        0.00146805        0.00467388
     145         -0.468117        1.000000        0.00000758        0.00384953        0.00089289        0.00036430
     146         -0.465573        1.000000        0.00001293        0.00293429        0.00122303        0.00242506
     147         -0.464342        1.000000        0.00002536        0.00006406        0.00164768        0.00162858
     148         -0.463229        1.000000        0.00190784        0.00245647        0.20912492        0.18711594
     149         -0.462574        1.000000        0.00000027        0.00000820        0.00002059        0.00000069
     150         -0.460842        1.000000        0.00008724        0.11243735        0.00865646        0.27985452
     151         -0.459519        1.000000        0.00000003        0.00004451        0.00002460        0.00000184
     152         -0.459076        1.000000        0.00000001        0.00000163        0.00000219        0.00000118
     153         -0.457388        1.000000        0.00000069        0.00001187        0.00001223        0.00001647
     154         -0.455193        1.000000        0.00000304        0.00008911        0.00015253        0.00000507
     155         -0.454446        1.000000        0.00006583        0.16286654        0.10949080        0.02283887
     156         -0.454259        1.000000        0.00008177        0.13133973        0.09401197        0.01885128
     157         -0.453743        1.000000        0.00001938        0.01484042        0.00059721        0.00156282
     158         -0.453589        1.000000        0.00000045        0.00004870        0.00047735        0.00008519
     159         -0.451862        1.000000        0.00000004        0.00321503        0.03039750        0.00257184
     160         -0.451820        1.000000        0.00000052        0.04691439        0.45229125        0.03809818
     161         -0.451752        1.000000        0.00020589        0.09290753        0.00425070        0.00860904
     162         -0.450470        1.000000        0.00001090        0.00070363        0.00082937        0.00020330
     163         -0.450021        1.000000        0.00000077        0.00004824        0.00000562        0.00005554
     164         -0.449259        1.000000        0.00029151        0.20852745        0.20194373        0.06379269
     165         -0.445603        1.000000        0.00000053        0.00028148        0.00036577        0.00011827
     166         -0.445042        1.000000        0.00000003        0.00000413        0.00000133        0.00000028
     167         -0.441785        1.000000        0.00008474        0.00084279        0.00216803        0.02436571
     168         -0.441091        1.000000        0.00000030        0.00003129        0.00000135        0.00001174
     169         -0.440589        1.000000        0.00034143        0.01441525        0.03610401        0.00058231
     170         -0.440151        1.000000        0.00000480        0.00102969        0.00004374        0.00009934
     171         -0.439689        1.000000        0.00182828        0.40048590        0.01973249        0.03547687
     172         -0.437730        1.000000        0.00144712        0.19662685        0.17972367        0.00010258
     173         -0.436443        1.000000        0.00002709        0.00254023        0.00400974        0.00052061
     174         -0.435885        1.000000        0.00001156        0.00131742        0.00012974        0.00014812
     175         -0.434706        1.000000        0.00000304        0.00080625        0.00008635        0.00001248
     176         -0.434603        1.000000        0.00003315        0.00192404        0.00216385        0.00114062
     177         -0.434597        1.000000        0.00000369        0.01518831        0.00075655        0.00067782
     178         -0.434435        1.000000        0.00000354        0.00032881        0.00008756        0.00006130
     179         -0.433333        1.000000        0.00000474        0.00013380        0.00003630        0.00002090
     180         -0.432365        1.000000        0.00025278        0.00229469        0.01383144        0.00772431
     181         -0.432194        1.000000        0.00000536        0.00170773        0.00051895        0.00006503
     182         -0.428548        1.000000        0.00000063        0.00003947        0.00034091        0.00006478
     183         -0.427988        1.000000        0.00000164        0.00000009        0.00013667        0.00010121
     184         -0.427460        1.000000        0.00001805        0.00116798        0.00030522        0.00008516
     185         -0.427229        1.000000        0.00002086        0.00040559        0.00072159        0.00061832
     186         -0.426390        1.000000        0.00000979        0.00046504        0.00014921        0.00007536
     187         -0.425453        1.000000        0.00001851        0.00037612        0.00020353        0.00030013
     188         -0.422605        1.000000        0.00014038        0.20199946        0.22933670        0.00211497
     189         -0.421601        1.000000        0.00024515        0.00663000        0.00096454        0.00004582
     190         -0.421353        1.000000        0.00000005        0.00005888        0.00010663        0.00010065
     191         -0.420558        1.000000        0.00003413        0.00051615        0.00023276        0.00002485
     192         -0.419358        1.000000        0.00000013        0.00000074        0.00000109        0.00000215
     193         -0.418942        1.000000        0.00000124        0.00001272        0.00017015        0.00000563
     194         -0.417281        1.000000        0.00020523        0.00172445        0.00253787        0.00034070
     195         -0.415672        1.000000        0.00000608        0.00000526        0.00014942        0.00003949
     196         -0.414638        1.000000        0.00013541        0.00054023        0.00192439        0.00381960
     197         -0.414355        1.000000        0.00017421        0.00017592        0.00388924        0.00363547
     198         -0.413453        1.000000        0.00000167        0.00005395        0.00004910        0.00001963
     199         -0.413197        1.000000        0.00011399        0.00052347        0.00585455        0.00146421
     200         -0.412702        1.000000        0.00001691        0.00006010        0.00069300        0.00015987
     201         -0.411336        1.000000        0.00008590        0.00856142        0.00769141        0.00039307
     202         -0.411206        1.000000        0.00258263        0.00092463        0.08266737        0.03337495
     203         -0.410283        1.000000        0.00006531        0.00041645        0.00172287        0.00042369
     204         -0.409894        1.000000        0.00496708        0.00635759        0.20246601        0.09490871
     205         -0.408464        1.000000        0.00028050        0.00166000        0.00991742        0.00153609
     206         -0.407492        1.000000        0.00001985        0.00009045        0.00120586        0.00028074
     207         -0.407054        1.000000        0.00013997        0.00125222        0.00173625        0.00077728
     208         -0.405453        1.000000        0.00008353        0.00063511        0.00154517        0.00025456
     209         -0.404658        1.000000        0.00000234        0.00004981        0.00000773        0.00010199
     210         -0.404469        1.000000        0.00000221        0.00013103        0.00004116        0.00007501
     211         -0.403211        1.000000        0.00000086        0.00002764        0.00003397        0.00014837
     212         -0.402349        1.000000        0.00006279        0.00106016        0.00220937        0.00119545
     213         -0.401522        1.000000        0.00063500        0.00255733        0.00125868        0.01100379
     214         -0.400707        1.000000        0.00026436        0.00143298        0.00285712        0.00460632
     215         -0.399332        1.000000        0.00000217        0.00003288        0.00005608        0.00003523
     216         -0.397873        1.000000        0.00000387        0.00003569        0.00009192        0.00006936
     217         -0.395806        1.000000        0.00059007        0.00639225        0.00257337        0.01574803
     218         -0.395631        1.000000        0.00855565        0.08382749        0.03845803        0.23789553
     219         -0.394808        1.000000        0.00001189        0.00001586        0.00010863        0.00002119
     220         -0.394543        1.000000        0.00000201        0.00001491        0.00004974        0.00001936
     221         -0.393792        1.000000        0.00000147        0.00005818        0.00012623        0.00017347
     222         -0.389723        1.000000        0.00000028        0.00000123        0.00000126        0.00000189
     223         -0.388775        1.000000        0.00000031        0.00000440        0.00000102        0.00000402
     224         -0.385410        1.000000        0.00024281        0.00297260        0.00455797        0.00483119
     225         -0.382900        1.000000        0.00165247        0.00003696        0.03433262        0.00320173
     226         -0.380803        1.000000        0.00888445        0.00848738        0.15086808        0.25161936
     227         -0.380457        1.000000        0.00854469        0.02169031        0.35780406        0.03931417
     228         -0.379392        1.000000        0.00000618        0.00017573        0.00000784        0.00009962
     229         -0.378721        1.000000        0.00000206        0.00000719        0.00002569        0.00003712
     230         -0.378035        1.000000        0.00032755        0.00441580        0.00087484        0.00560381
     231         -0.375495        1.000000        0.00000007        0.00000037        0.00000247        0.00000181
     232         -0.373506        1.000000        0.00000137        0.00001207        0.00002335        0.00006529
     233         -0.368549        1.000000        0.00000112        0.00001640        0.00012498        0.00021884
     234         -0.364006        1.000000        0.00591406        0.01417881        0.01455261        0.38727525
     235         -0.360843        1.000000        0.01037790        0.03333351        0.03721754        0.31663059
     236         -0.352981        1.000000        0.00000523        0.00003602        0.00001695        0.00008509
     237         -0.352737        1.000000        0.00545044        0.01538393        0.03108066        0.18979169
     238         -0.352616        1.000000        0.00381991        0.01099883        0.02150247        0.13720528
     239         -0.348463        1.000000        0.00000038        0.00001393        0.00003593        0.00006815
     240         -0.348328        1.000000        0.00000809        0.02430633        0.00757567        0.00605810
     241         -0.347055        1.000000        0.00000109        0.01271485        0.00666904        0.01762172
     242         -0.339126        1.000000        0.00105238        0.00008447        0.00873156        0.00986655
     243         -0.336797        1.000000        0.00002247        0.00000289        0.00014431        0.00016627
     244         -0.335413        1.000000        0.00070175        0.00024567        0.00586313        0.00035741
     245         -0.334679        1.000000        0.00001379        0.00012426        0.00000801        0.00015067
     246         -0.330867        1.000000        0.00011799        0.00091511        0.01158647        0.01735121
     247         -0.330334        1.000000        0.00001066        0.01494441        0.00448633        0.01359146
     248         -0.327776        1.000000        0.00008438        0.00026945        0.00070974        0.00594800
     249         -0.327477        1.000000        0.00000163        0.00861134        0.02197858        0.00034377
     250         -0.327246        1.000000        0.00006150        0.00057774        0.00076300        0.00450978
     251         -0.325955        1.000000        0.00000862        0.03665286        0.00001906        0.00095802
     252         -0.325735        1.000000        0.00003324        0.00051472        0.00093167        0.00000762
     253         -0.324915        1.000000        0.00001753        0.00836825        0.00004115        0.00003356
     254         -0.323201        1.000000        0.00000091        0.00089285        0.00007871        0.00004542
     255         -0.321826        1.000000        0.00029870        0.00008131        0.00729102        0.00814734
     256         -0.314536        1.000000        0.00002533        0.00141344        0.00037011        0.00091076
     257         -0.313829        1.000000        0.00018641        0.00775713        0.00041067        0.00290611
     258         -0.312652        1.000000        0.00051930        0.02471224        0.00174379        0.00049133
     259         -0.312432        1.000000        0.00046836        0.00725744        0.01421373        0.00420668