# Projected DOS for atomic kind H at iteration step i = 0, E(Fermi) =    -0.128555 a.u.
#     MO Eigenvalue [a.u.]      Occupation                 s
       1         -0.932975        1.000000        0.25370423
       2         -0.923369        1.000000        0.25189187
       3         -0.922485        1.000000        0.26916245
       4         -0.917151        1.000000        0.25616774
       5         -0.914873        1.000000        0.25503396
       6         -0.911518        1.000000        0.25279186
       7         -0.907442        1.000000        0.25341078
       8         -0.906332        1.000000        0.26346404
       9         -0.906159        1.000000        0.25827378
      10         -0.906114        1.000000        0.26078735
      11         -0.905672        1.000000        0.25832578
      12         -0.902644        1.000000        0.25968173
      13         -0.899769        1.000000        0.25455186
      14         -0.896883        1.000000        0.25781294
      15         -0.891112        1.000000        0.25749644
      16         -0.888091        1.000000        0.24159788
      17         -0.887748        1.000000        0.23575875
      18         -0.887238        1.000000        0.28059996
      19         -0.884614        1.000000        0.24720023
      20         -0.884366        1.000000        0.21614179
      21         -0.882257        1.000000        0.25472536
      22         -0.881964        1.000000        0.25463036
      23         -0.881711        1.000000        0.24026919
      24         -0.880737        1.000000        0.25783896
      25         -0.879860        1.000000        0.26805775
      26         -0.879127        1.000000        0.25631099
      27         -0.877222        1.000000        0.28617188
      28         -0.876040        1.000000        0.24848932
      29         -0.872516        1.000000        0.25566465
      30         -0.872228        1.000000        0.24270087
      31         -0.872145        1.000000        0.24689613
      32         -0.870541        1.000000        0.24726336
      33         -0.868925        1.000000        0.25937795
      34         -0.868197        1.000000        0.25339244
      35         -0.866156        1.000000        0.27176250
      36         -0.861810        1.000000        0.25214402
      37         -0.858982        1.000000        0.25587124
      38         -0.856960        1.000000        0.19708832
      39         -0.854255        1.000000        0.25154954
      40         -0.853331        1.000000        0.25246477
      41         -0.853082        1.000000        0.26078063
      42         -0.851564        1.000000        0.22910610
      43         -0.850260        1.000000        0.17264887
      44         -0.849754        1.000000        0.23826196
      45         -0.849311        1.000000        0.25574177
      46         -0.848192        1.000000        0.26259146
      47         -0.847948        1.000000        0.25733934
      48         -0.845468        1.000000        0.25261650
      49         -0.842124        1.000000        0.27720164
      50         -0.840333        1.000000        0.19731435
      51         -0.839395        1.000000        0.25765435
      52         -0.839304        1.000000        0.22738390
      53         -0.839207        1.000000        0.24266127
      54         -0.839020        1.000000        0.24852404
      55         -0.838180        1.000000        0.25386717
      56         -0.837824        1.000000        0.24229629
      57         -0.837554        1.000000        0.25483268
      58         -0.837159        1.000000        0.25673891
      59         -0.836564        1.000000        0.25732610
      60         -0.835956        1.000000        0.21612838
      61         -0.834117        1.000000        0.23533618
      62         -0.831917        1.000000        0.25880983
      63         -0.831898        1.000000        0.23753539
      64         -0.831698        1.000000        0.25750431
      65         -0.830174        1.000000        0.25811581
      66         -0.829054        1.000000        0.25675800
      67         -0.827669        1.000000        0.21354683
      68         -0.827508        1.000000        0.23033956
      69         -0.824451        1.000000        0.23674699
      70         -0.822724        1.000000        0.21586470
      71         -0.821479        1.000000        0.25564703
      72         -0.818839        1.000000        0.25760620
      73         -0.818607        1.000000        0.24465074
      74         -0.813480        1.000000        0.16477975
      75         -0.810930        1.000000        0.24695912
      76         -0.810542        1.000000        0.22013198
      77         -0.809508        1.000000        0.24555382
      78         -0.808087        1.000000        0.24413496
      79         -0.807329        1.000000        0.24559477
      80         -0.805687        1.000000        0.24535211
      81         -0.804826        1.000000        0.23404137
      82         -0.803037        1.000000        0.21708496
      83         -0.796639        1.000000        0.24493137
      84         -0.793123        1.000000        0.13892213
      85         -0.790036        1.000000        0.18729118
      86         -0.630106        1.000000        0.34676307
      87         -0.613534        1.000000        0.33798257
      88         -0.604644        1.000000        0.13762520
      89         -0.603173        1.000000        0.36909360
      90         -0.602776        1.000000        0.23516463
      91         -0.590654        1.000000        0.19765164
      92         -0.588111        1.000000        0.17563675
      93         -0.581125        1.000000        0.37518681
      94         -0.573046        1.000000        0.35492295
      95         -0.569681        1.000000        0.00613569
      96         -0.569362        1.000000        0.00390949
      97         -0.560967        1.000000        0.00489239
      98         -0.556334        1.000000        0.00241348
      99         -0.550751        1.000000        0.00251280
     100         -0.546842        1.000000        0.01695842
     101         -0.546341        1.000000        0.00952645
     102         -0.545303        1.000000        0.00420167
     103         -0.541520        1.000000        0.00312703
     104         -0.539595        1.000000        0.00909691
     105         -0.539422        1.000000        0.02616713
     106         -0.538007        1.000000        0.03641404
     107         -0.537007        1.000000        0.03590244
     108         -0.536779        1.000000        0.02468316
     109         -0.536112        1.000000        0.02056799
     110         -0.535587        1.000000        0.01905369
     111         -0.534071        1.000000        0.01830559
     112         -0.531116        1.000000        0.02477675
     113         -0.531066        1.000000        0.03083424
     114         -0.529584        1.000000        0.01084274
     115         -0.529140        1.000000        0.02901542
     116         -0.527452        1.000000        0.04509101
     117         -0.526003        1.000000        0.03349229
     118         -0.525311        1.000000        0.02869475
     119         -0.525243        1.000000        0.02593506
     120         -0.522405        1.000000        0.03374575
     121         -0.521441        1.000000        0.00214276
     122         -0.520357        1.000000        0.02388500
     123         -0.519951        1.000000        0.01023966
     124         -0.518947        1.000000        0.01270106
     125         -0.518861        1.000000        0.00918618
     126         -0.518274        1.000000        0.02992278
     127         -0.517917        1.000000        0.00411802
     128         -0.516604        1.000000        0.01408694
     129         -0.506935        1.000000        0.25340991
     130         -0.502174        1.000000        0.25679327
     131         -0.501686        1.000000        0.30249160
     132         -0.492145        1.000000        0.28867139
     133         -0.484412        1.000000        0.31519673
     134         -0.482350        1.000000        0.30928950
     135         -0.481159        1.000000        0.32848724
     136         -0.478179        1.000000        0.34326332
     137         -0.477656        1.000000        0.35768731
     138         -0.475207        1.000000        0.33975779
     139         -0.474376        1.000000        0.34955873
     140         -0.473467        1.000000        0.34867054
     141         -0.472932        1.000000        0.33745157
     142         -0.472185        1.000000        0.33025549
     143         -0.472153        1.000000        0.32717962
     144         -0.468863        1.000000        0.35956766
     145         -0.468117        1.000000        0.34092455
     146         -0.465568        1.000000        0.32505985
     147         -0.464311        1.000000        0.34445546
     148         -0.463219        1.000000        0.32786668
     149         -0.462581        1.000000        0.33540476
     150         -0.460842        1.000000        0.32704671
     151         -0.459526        1.000000        0.34483692
     152         -0.459097        1.000000        0.34314130
     153         -0.457374        1.000000        0.34656373
     154         -0.455206        1.000000        0.35543303
     155         -0.454450        1.000000        0.33716941
     156         -0.454261        1.000000        0.33604167
     157         -0.453739        1.000000        0.34569162
     158         -0.453586        1.000000        0.33814459
     159         -0.451883        1.000000        0.34392806
     160         -0.451809        1.000000        0.33937098
     161         -0.451756        1.000000        0.34062446
     162         -0.450436        1.000000        0.34360212
     163         -0.450021        1.000000        0.34765764
     164         -0.449258        1.000000        0.34093668
     165         -0.445604        1.000000        0.34106652
     166         -0.445041        1.000000        0.34382000
     167         -0.441781        1.000000        0.34001257
     168         -0.441082        1.000000        0.34741897
     169         -0.440588        1.000000        0.33714624
     170         -0.440102        1.000000        0.35719600
     171         -0.439665        1.000000        0.32534950
     172         -0.437730        1.000000        0.32034385
     173         -0.436440        1.000000        0.33906920
     174         -0.435887        1.000000        0.34868599
     175         -0.434598        1.000000        0.34799647
     176         -0.434594        1.000000        0.34613558
     177         -0.434420        1.000000        0.34971004
     178         -0.434076        1.000000        0.33234388
     179         -0.433335        1.000000        0.32553339
     180         -0.432341        1.000000        0.34440912
     181         -0.432195        1.000000        0.34287615
     182         -0.427984        1.000000        0.34503666
     183         -0.427458        1.000000        0.34283156
     184         -0.426975        1.000000        0.08318987
     185         -0.426390        1.000000        0.34494454
     186         -0.426022        1.000000        0.34920254
     187         -0.425381        1.000000        0.28725079
     188         -0.422604        1.000000        0.31762337
     189         -0.421537        1.000000        0.33925683
     190         -0.421349        1.000000        0.34408067
     191         -0.420329        1.000000        0.33786884
     192         -0.419357        1.000000        0.33044726
     193         -0.418939        1.000000        0.33419165
     194         -0.415661        1.000000        0.33476293
     195         -0.415171        1.000000        0.05890815
     196         -0.414663        1.000000        0.12874229
     197         -0.414355        1.000000        0.26132943
     198         -0.413446        1.000000        0.32576018
     199         -0.413200        1.000000        0.28717566
     200         -0.412710        1.000000        0.32392573
     201         -0.411334        1.000000        0.34540572
     202         -0.411195        1.000000        0.10001658
     203         -0.410284        1.000000        0.33981334
     204         -0.409855        1.000000        0.12887092
     205         -0.408423        1.000000        0.24814763
     206         -0.407495        1.000000        0.34087491
     207         -0.406883        1.000000        0.32020794
     208         -0.405410        1.000000        0.07564468
     209         -0.404660        1.000000        0.34874563
     210         -0.404415        1.000000        0.34636589
     211         -0.403217        1.000000        0.36474700
     212         -0.402339        1.000000        0.03507259
     213         -0.401311        1.000000        0.03592610
     214         -0.400619        1.000000        0.05438249
     215         -0.399335        1.000000        0.33653801
     216         -0.397877        1.000000        0.35608180
     217         -0.396457        1.000000        0.35014429
     218         -0.395806        1.000000        0.35734601
     219         -0.395582        1.000000        0.18917280
     220         -0.394800        1.000000        0.36461882
     221         -0.394543        1.000000        0.36398076
     222         -0.389704        1.000000        0.36935316
     223         -0.388791        1.000000        0.36995919
     224         -0.384968        1.000000        0.35309600
     225         -0.382879        1.000000        0.35679498
     226         -0.380788        1.000000        0.17710666
     227         -0.380466        1.000000        0.17102263
     228         -0.379945        1.000000        0.35401747
     229         -0.378393        1.000000        0.36417641
     230         -0.378163        1.000000        0.35665748
     231         -0.375485        1.000000        0.36803572
     232         -0.372774        1.000000        0.35492231
     233         -0.368550        1.000000        0.15924092
     234         -0.364014        1.000000        0.17663413
     235         -0.360842        1.000000        0.17834428
     236         -0.352987        1.000000        0.14501369
     237         -0.352733        1.000000        0.18187886
     238         -0.352613        1.000000        0.18322426
     239         -0.348467        1.000000        0.15893209
     240         -0.348326        1.000000        0.41900494
     241         -0.347064        1.000000        0.42025557
     242         -0.339125        1.000000        0.35086025
     243         -0.336797        1.000000        0.12196845
     244         -0.335426        1.000000        0.32540997
     245         -0.334686        1.000000        0.11848507
     246         -0.330876        1.000000        0.40589605
     247         -0.330306        1.000000        0.41643569
     248         -0.327769        1.000000        0.16384428
     249         -0.327454        1.000000        0.40040157
     250         -0.327235        1.000000        0.15761763
     251         -0.325847        1.000000        0.41184056
     252         -0.325390        1.000000        0.16000948
     253         -0.323868        1.000000        0.14294219
     254         -0.323202        1.000000        0.12160929
     255         -0.321820        1.000000        0.35867126
     256         -0.314532        1.000000        0.12959326
     257         -0.313827        1.000000        0.27944025
     258         -0.312681        1.000000        0.16615299
     259         -0.312430        1.000000        0.21523670
     260         -0.312394        1.000000        0.33357600
     261         -0.311320        1.000000        0.16683287
     262         -0.309730        1.000000        0.30028047
     263         -0.308540        1.000000        0.38670815
     264         -0.304781        1.000000        0.10597970
     265         -0.303927        1.000000        0.15182808
     266         -0.301507        1.000000        0.10526238
     267         -0.300014        1.000000        0.02171232
     268         -0.295975        1.000000        0.39852481
     269         -0.292252        1.000000        0.16676339
     270         -0.291604        1.000000        0.12152006
     271         -0.290174        1.000000        0.08447181
     272         -0.288821        1.000000        0.13132265
     273         -0.288746        1.000000        0.08919289
     274         -0.285152        1.000000        0.08195842
     275         -0.283717        1.000000        0.05349841
     276         -0.282993        1.000000        0.13064143
     277         -0.278623        1.000000        0.12409712
     278         -0.276718        1.000000        0.11337150
     279         -0.276589        1.000000        0.11264801
     280         -0.275800        1.000000        0.07878080
     281         -0.275739        1.000000        0.06704161
     282         -0.275602        1.000000        0.07488437
     283         -0.274460        1.000000        0.11958497
     284         -0.274062        1.000000        0.08871991
     285         -0.269652        1.000000        0.10245389
     286         -0.266781        1.000000        0.10548180
     287         -0.264781        1.000000        0.05380272
     288         -0.261900        1.000000        0.10106059
     289         -0.261648        1.000000        0.11024182
     290         -0.260068        1.000000        0.08807896
     291         -0.259090        1.000000        0.03914127
     292         -0.259081        1.000000        0.03228753
     293         -0.258301        1.000000        0.07507249
     294         -0.258232        1.000000        0.10049073
     295         -0.257107        1.000000        0.02211444
     296         -0.256507        1.000000        0.03984231
     297         -0.253804        1.000000        0.05650695
     298         -0.252612        1.000000        0.02894266
     299         -0.246142        1.000000        0.04701813
     300         -0.246090        1.000000        0.04354348
     301         -0.245015        1.000000        0.08238294
     302         -0.240128        1.000000        0.03944865
     303         -0.239889        1.000000        0.00920717
     304         -0.237458        1.000000        0.00440177
     305         -0.237122        1.000000        0.02597538
     306         -0.234706        1.000000        0.00653918
     307         -0.234183        1.000000        0.00567967
     308         -0.233115        1.000000        0.05048003
     309         -0.232481        1.000000        0.07179657
     310         -0.232230        1.000000        0.01992069
     311         -0.230108        1.000000        0.00609509
     312         -0.229668        1.000000        0.01696605
     313         -0.228995        1.000000        0.05187541
     314         -0.226867        1.000000        0.00580673
     315         -0.226284        1.000000        0.00844841
     316         -0.225625        1.000000        0.02971465
     317         -0.225563        1.000000        0.03237894
     318         -0.224917        1.000000        0.01168744
     319         -0.224606        1.000000        0.02282864
     320         -0.224426        1.000000        0.02221617
     321         -0.224188        1.000000        0.01803911
     322         -0.223449        1.000000        0.02186947
     323         -0.223081        1.000000        0.07416920
     324         -0.222560        1.000000        0.00593931
     325         -0.221064        1.000000        0.05424912
     326         -0.220274        1.000000        0.04750470
     327         -0.219769        1.000000        0.03053203
     328         -0.219702        1.000000        0.03447815
     329         -0.218779        1.000000        0.01526234
     330         -0.218711        1.000000        0.01737946
     331         -0.217539        1.000000        0.03398826
     332         -0.215740        1.000000        0.00856938
     333         -0.215351        1.000000        0.03663822
     334         -0.215095        1.000000        0.04160356
     335         -0.215007        1.000000        0.01003499
     336         -0.214626        1.000000        0.04084764
     337         -0.214208        1.000000        0.00659280
     338         -0.213966        1.000000        0.02091331
     339         -0.213828        1.000000        0.01823484
     340         -0.213318        1.000000        0.02969929
     341         -0.212769        1.000000        0.01873737
     342         -0.212324        1.000000        0.05223228
     343         -0.211540        1.000000        0.00747421
     344         -0.210713        1.000000        0.01650109
     345         -0.210101        1.000000        0.02760454
     346         -0.209428        1.000000        0.00214053
     347         -0.208928        1.000000        0.01449945
     348         -0.207876        1.000000        0.01779138
     349         -0.207693        1.000000        0.03651120
     350         -0.207433        1.000000        0.03060971
     351         -0.207099        1.000000        0.03566631
     352         -0.207038        1.000000        0.03789504
     353         -0.206845        1.000000        0.03871586
     354         -0.206452        1.000000        0.02311327
     355         -0.205760        1.000000        0.01047843
     356         -0.205164        1.000000        0.07227703
     357         -0.204798        1.000000        0.01589308
     358         -0.204525        1.000000        0.02077390
     359         -0.204201        1.000000        0.00915455
     360         -0.204031        1.000000        0.01513556
     361         -0.203746        1.000000        0.01832618
     362         -0.203322        1.000000        0.01065105
     363         -0.202664        1.000000        0.01700969
     364         -0.202183        1.000000        0.01513219
     365         -0.201946        1.000000        0.01799106
     366         -0.201436        1.000000        0.01487409
     367         -0.200804        1.000000        0.00868392
     368         -0.200381        1.000000        0.00595247
     369         -0.199787        1.000000        0.01645896
     370         -0.198900        1.000000        0.01207397
     371         -0.198450        1.000000        0.01094018
     372         -0.198233        1.000000        0.05329605
     373         -0.198032        1.000000        0.02029592
     374         -0.197901        1.000000        0.01313920
     375         -0.197581        1.000000        0.01320311
     376         -0.196136        1.000000        0.01331589
     377         -0.196060        1.000000        0.00826902
     378         -0.195030        1.000000        0.01206001
     379         -0.194831        1.000000        0.02570440
     380         -0.194067        1.000000        0.00792336
     381         -0.193726        1.000000        0.00219211
     382         -0.193473        1.000000        0.00372207
     383         -0.192626        1.000000        0.00718729
     384         -0.191512        1.000000        0.01038926
     385         -0.191210        1.000000        0.00624111
     386         -0.190583        1.000000        0.02463450
     387         -0.190331        1.000000        0.02424170
     388         -0.190040        1.000000        0.03055778
     389         -0.187470        1.000000        0.00614498
     390         -0.186208        1.000000        0.00625656
     391         -0.184963        1.000000        0.00585339
     392         -0.184873        1.000000        0.00675453
     393         -0.184552        1.000000        0.00417241
     394         -0.184018        1.000000        0.00668710
     395         -0.183376        1.000000        0.00598193
     396         -0.183087        1.000000        0.00753454
     397         -0.182974        1.000000        0.00233177
     398         -0.182381        1.000000        0.00316357
     399         -0.182197        1.000000        0.00477073
     400         -0.181518        1.000000        0.01437836
     401         -0.180687        1.000000        0.01100887
     402         -0.180018        1.000000        0.04263329
     403         -0.179903        1.000000        0.00971676
     404         -0.179601        1.000000        0.00285387
     405         -0.179152        1.000000        0.00839675
     406         -0.178962        1.000000        0.00185397
     407         -0.178281        1.000000        0.00725689
     408         -0.177925        1.000000        0.00564275
     409         -0.177099        1.000000        0.01796914
     410         -0.176921        1.000000        0.00567310
     411         -0.176583        1.000000        0.00513799
     412         -0.175719        1.000000        0.00773200
     413         -0.175118        1.000000        0.00866928
     414         -0.174249        1.000000        0.00889151
     415         -0.173411        1.000000        0.01592646
     416         -0.173241        1.000000        0.00444699
     417         -0.172639        1.000000        0.00684700
     418         -0.172350        1.000000        0.00767393
     419         -0.171899        1.000000        0.00400943
     420         -0.171415        1.000000        0.00351096
     421         -0.171357        1.000000        0.00249214
     422         -0.170461        1.000000        0.00256524
     423         -0.169818        1.000000        0.00483634
     424         -0.169469        1.000000        0.00404064
     425         -0.168983        1.000000        0.00162867
     426         -0.168357        1.000000        0.00268679
     427         -0.168039        1.000000        0.00417543
     428         -0.167849        1.000000        0.00721352
     429         -0.167557        1.000000        0.00548346
     430         -0.167444        1.000000        0.00244713
     431         -0.167012        1.000000        0.00225298
     432         -0.166508        1.000000        0.00515069
     433         -0.166278        1.000000        0.00342780
     434         -0.165807        1.000000        0.00575491
     435         -0.165565        1.000000        0.00781972
     436         -0.164685        1.000000        0.00260372
     437         -0.164422        1.000000        0.00292463
     438         -0.164101        1.000000        0.00217287
     439         -0.163882        1.000000        0.00189036
     440         -0.163592        1.000000        0.00212542
     441         -0.163442        1.000000        0.00186523
     442         -0.162836        1.000000        0.00279543
     443         -0.162670        1.000000        0.00306753
     444         -0.161864        1.000000        0.00453773
     445         -0.161735        1.000000        0.00454640
     446         -0.161539        1.000000        0.00275911
     447         -0.161116        1.000000        0.00256699
     448         -0.160654        1.000000        0.00313321
     449         -0.160191        1.000000        0.00270548
     450         -0.159975        1.000000        0.00148730
     451         -0.159708        1.000000        0.00204329
     452         -0.159339        1.000000        0.00173135
     453         -0.158732        1.000000        0.00220527
     454         -0.158642        1.000000        0.00229892
     455         -0.157450        1.000000        0.00192799
     456         -0.157070        1.000000        0.00151625
     457         -0.156849        1.000000        0.00197635
     458         -0.156577        1.000000        0.00162664
     459         -0.156280        1.000000        0.00106112
     460         -0.155723        1.000000        0.00206114
     461         -0.154921        1.000000        0.00160515
     462         -0.154144        1.000000        0.00084256
     463         -0.153765        1.000000        0.00154666
     464         -0.153541        1.000000        0.00118100
     465         -0.153449        1.000000        0.00131509
     466         -0.153101        1.000000        0.00244204
     467         -0.152509        1.000000        0.00168379
     468         -0.152232        1.000000        0.00193849
     469         -0.152072        1.000000        0.00165069
     470         -0.151314        1.000000        0.00111363
     471         -0.151085        1.000000        0.00188942
     472         -0.150618        1.000000        0.00303839
     473         -0.150428        1.000000        0.00116698
     474         -0.150197        1.000000        0.00283403
     475         -0.149478        1.000000        0.00185332
     476         -0.149104        1.000000        0.00100553
     477         -0.148595        1.000000        0.00135233
     478         -0.147347        1.000000        0.00299956
     479         -0.146698        1.000000        0.00081077
     480         -0.146694        1.000000        0.00094921
     481         -0.145730        1.000000        0.00081467
     482         -0.145623        1.000000        0.00011166
     483         -0.145467        1.000000        0.00058079
     484         -0.144942        1.000000        0.00101228
     485         -0.144668        1.000000        0.00058807
     486         -0.144189        1.000000        0.00089976
     487         -0.143741        1.000000        0.00074338
     488         -0.143660        1.000000        0.00095668
     489         -0.143475        1.000000        0.00012844