# Projected DOS for atomic kind I at iteration step i = 0, E(Fermi) =    -0.128777 a.u.
#     MO Eigenvalue [a.u.]      Occupation                 s                py                pz                px
       1         -0.932961        1.000000        0.00010550        0.00017316        0.00020588        0.00010658
       2         -0.923367        1.000000        0.00010960        0.00016112        0.00023192        0.00010283
       3         -0.922484        1.000000        0.00016842        0.00028494        0.00009918        0.00035914
       4         -0.917149        1.000000        0.00008596        0.00020913        0.00012784        0.00003837
       5         -0.914891        1.000000        0.00002430        0.00000255        0.00003534        0.00013834
       6         -0.911516        1.000000        0.00020017        0.00038828        0.00017589        0.00016842
       7         -0.907439        1.000000        0.00000329        0.00001278        0.00000596        0.00002876
       8         -0.906332        1.000000        0.00015603        0.00026648        0.00015155        0.00021015
       9         -0.906187        1.000000        0.00009171        0.00012617        0.00025686        0.00009403
      10         -0.906110        1.000000        0.00024740        0.00052409        0.00020227        0.00000897
      11         -0.905671        1.000000        0.00072495        0.00088997        0.00034065        0.00041861
      12         -0.902635        1.000000        0.00014316        0.00017336        0.00035578        0.00011214
      13         -0.899774        1.000000        0.00007228        0.00005094        0.00000622        0.00027040
      14         -0.896890        1.000000        0.00005276        0.00008319        0.00008703        0.00016762
      15         -0.891115        1.000000        0.00007078        0.00011223        0.00001475        0.00018381
      16         -0.888090        1.000000        0.00001347        0.00000401        0.00006849        0.00008164
      17         -0.887744        1.000000        0.00073241        0.00113947        0.00057745        0.00006153
      18         -0.887260        1.000000        0.00017440        0.00038658        0.00007539        0.00038215
      19         -0.884603        1.000000        0.00005309        0.00008417        0.00004318        0.00001512
      20         -0.884366        1.000000        0.00119490        0.00108444        0.00058051        0.00044975
      21         -0.882259        1.000000        0.00014659        0.00018088        0.00048178        0.00007345
      22         -0.881885        1.000000        0.00001506        0.00005240        0.00001822        0.00004158
      23         -0.881710        1.000000        0.00000582        0.00010123        0.00000371        0.00002599
      24         -0.880739        1.000000        0.00020410        0.00021173        0.00009586        0.00026114
      25         -0.879860        1.000000        0.00004064        0.00005994        0.00011388        0.00003501
      26         -0.879145        1.000000        0.00005106        0.00006128        0.00006885        0.00015344
      27         -0.877207        1.000000        0.00014808        0.00033648        0.00033631        0.00008822
      28         -0.876046        1.000000        0.00031340        0.00015623        0.00004499        0.00047207
      29         -0.872701        1.000000        0.00018947        0.00001467        0.00073779        0.00000734
      30         -0.872592        1.000000        0.00047896        0.00009276        0.00128247        0.00003059
      31         -0.872515        1.000000        0.00017587        0.00015781        0.00006471        0.00031622
      32         -0.872139        1.000000        0.00001875        0.00001322        0.00004090        0.00000769
      33         -0.868926        1.000000        0.00010704        0.00006365        0.00006361        0.00014075
      34         -0.868196        1.000000        0.00000310        0.00000213        0.00002228        0.00000771
      35         -0.866159        1.000000        0.00000501        0.00002422        0.00002984        0.00001143
      36         -0.861772        1.000000        0.00001042        0.00001759        0.00000170        0.00002071
      37         -0.859049        1.000000        0.00010183        0.00030121        0.00000550        0.00002695
      38         -0.856955        1.000000        0.00255793        0.00254502        0.00199602        0.00027343
      39         -0.854257        1.000000        0.00008384        0.00005829        0.00002116        0.00023547
      40         -0.853333        1.000000        0.00001993        0.00003379        0.00002410        0.00002273
      41         -0.853094        1.000000        0.00008980        0.00004735        0.00020516        0.00011083
      42         -0.851563        1.000000        0.00148371        0.00066004        0.00050285        0.00138734
      43         -0.850257        1.000000        0.00585026        0.00379262        0.00345997        0.00067032
      44         -0.849753        1.000000        0.00131563        0.00050663        0.00027282        0.00143514
      45         -0.849479        1.000000        0.00005746        0.00000148        0.00001058        0.00031012
      46         -0.848175        1.000000        0.00007846        0.00006316        0.00004290        0.00012225
      47         -0.847946        1.000000        0.00001462        0.00002138        0.00005970        0.00000161
      48         -0.845834        1.000000        0.00039143        0.00000595        0.00116176        0.00003422
      49         -0.845407        1.000000        0.00003692        0.00017199        0.00005701        0.00000082
      50         -0.842138        1.000000        0.00021413        0.00008800        0.00036879        0.00006693
      51         -0.841866        1.000000        0.00152848        0.00008240        0.00297809        0.00019020
      52         -0.839393        1.000000        0.00001115        0.00002837        0.00000188        0.00003843
      53         -0.839304        1.000000        0.00118034        0.00043565        0.00034095        0.00091666
      54         -0.838852        1.000000        0.00001995        0.00001884        0.00000264        0.00010910
      55         -0.838798        1.000000        0.00002380        0.00010821        0.00000220        0.00002464
      56         -0.838181        1.000000        0.00001107        0.00001179        0.00001492        0.00002449
      57         -0.837821        1.000000        0.00005799        0.00010963        0.00005148        0.00007696
      58         -0.837549        1.000000        0.00003757        0.00006936        0.00005018        0.00002304
      59         -0.837187        1.000000        0.00003358        0.00002556        0.00014187        0.00000615
      60         -0.836564        1.000000        0.00001293        0.00003650        0.00000713        0.00004234
      61         -0.834125        1.000000        0.00002383        0.00003440        0.00016513        0.00000967
      62         -0.832466        1.000000        0.00004439        0.00004556        0.00000154        0.00017449
      63         -0.831917        1.000000        0.00004023        0.00010888        0.00008959        0.00006392
      64         -0.831737        1.000000        0.00001014        0.00000091        0.00004059        0.00001572
      65         -0.830164        1.000000        0.00001704        0.00005937        0.00002469        0.00000342
      66         -0.829054        1.000000        0.00007381        0.00010295        0.00005481        0.00008602
      67         -0.827673        1.000000        0.00016963        0.00005043        0.00014674        0.00020833
      68         -0.827518        1.000000        0.00009303        0.00010551        0.00004557        0.00021959
      69         -0.823005        1.000000        0.00003440        0.00007159        0.00005129        0.00007269
      70         -0.822726        1.000000        0.00006419        0.00009604        0.00005122        0.00006670
      71         -0.818869        1.000000        0.00002365        0.00002382        0.00005603        0.00004283
      72         -0.818597        1.000000        0.00007823        0.00010782        0.00007116        0.00010012
      73         -0.817602        1.000000        0.00012608        0.00014863        0.00000638        0.00036256
      74         -0.813464        1.000000        0.00861382        0.00346261        0.00088076        0.00633506
      75         -0.810915        1.000000        0.00004855        0.00005706        0.00005952        0.00003446
      76         -0.809518        1.000000        0.00007850        0.00010463        0.00019211        0.00001173
      77         -0.808821        1.000000        0.00011400        0.00039409        0.00000287        0.00006997
      78         -0.808586        1.000000        0.00001762        0.00003081        0.00000289        0.00004450
      79         -0.806728        1.000000        0.00002306        0.00003445        0.00002273        0.00004649
      80         -0.806526        1.000000        0.00002639        0.00003139        0.00000242        0.00011288
      81         -0.805910        1.000000        0.00006394        0.00000536        0.00008047        0.00011869
      82         -0.803045        1.000000        0.00005085        0.00004395        0.00003623        0.00005915
      83         -0.796640        1.000000        0.00001074        0.00000949        0.00001296        0.00003272
      84         -0.793116        1.000000        0.01399668        0.00452177        0.00132971        0.00858864
      85         -0.790038        1.000000        0.00002353        0.00002863        0.00001882        0.00002427
      86         -0.630103        1.000000        0.00248909        0.00043308        0.00046494        0.00050984
      87         -0.613544        1.000000        0.00134082        0.00012188        0.00030691        0.00017294
      88         -0.604655        1.000000        0.60113599        0.00549780        0.00776699        0.00046197
      89         -0.603163        1.000000        0.00201979        0.00015585        0.00039136        0.00031211
      90         -0.602787        1.000000        0.35025232        0.00296263        0.00426375        0.00013353
      91         -0.590647        1.000000        0.45828641        0.00717477        0.00708299        0.00083867
      92         -0.588102        1.000000        0.50223954        0.00700831        0.00723623        0.00131382
      93         -0.581127        1.000000        0.00220369        0.00020183        0.00018641        0.00011717
      94         -0.573060        1.000000        0.01495694        0.00018986        0.00015127        0.00026128
      95         -0.570249        1.000000        0.85472905        0.00434508        0.00586294        0.00359673
      96         -0.569436        1.000000        0.94749381        0.00632553        0.00113725        0.00802793
      97         -0.561008        1.000000        0.93868694        0.00478137        0.00085310        0.00614379
      98         -0.556390        1.000000        0.88185933        0.00494687        0.00258055        0.00264163
      99         -0.554744        1.000000        0.90247509        0.00211985        0.00326249        0.00185167
     100         -0.550024        1.000000        0.95873570        0.00496432        0.00845568        0.00103551
     101         -0.546658        1.000000        0.83056181        0.00420082        0.00416148        0.00355084
     102         -0.544971        1.000000        0.94008143        0.00192723        0.00096767        0.00036469
     103         -0.542042        1.000000        0.86937791        0.00286649        0.00160847        0.00216290
     104         -0.541825        1.000000        0.95037287        0.00113603        0.00046056        0.00181633
     105         -0.539575        1.000000        0.92450650        0.00744470        0.00518391        0.00120300
     106         -0.539525        1.000000        0.85499148        0.00464403        0.00392011        0.00183460
     107         -0.537614        1.000000        0.81098783        0.00278781        0.00367763        0.00207669
     108         -0.536878        1.000000        0.83157248        0.00230630        0.00264758        0.00165130
     109         -0.536296        1.000000        0.83631881        0.00505521        0.00372776        0.00171149
     110         -0.535540        1.000000        0.86633956        0.00264540        0.00216702        0.00095080
     111         -0.534608        1.000000        0.85613599        0.00288902        0.00244077        0.00223241
     112         -0.533212        1.000000        0.87357426        0.00253510        0.00295815        0.00183650
     113         -0.531818        1.000000        0.94982391        0.00049812        0.00020551        0.00058793
     114         -0.531057        1.000000        0.91297103        0.00082846        0.00316206        0.00093505
     115         -0.529355        1.000000        0.89316825        0.00292885        0.00076568        0.00132504
     116         -0.527532        1.000000        0.84841385        0.00146779        0.00080032        0.00269587
     117         -0.526124        1.000000        0.89837597        0.00104614        0.00183172        0.00083711
     118         -0.525513        1.000000        0.88654539        0.00090276        0.00191192        0.00105201
     119         -0.525387        1.000000        0.90355340        0.00101938        0.00188108        0.00087921
     120         -0.522930        1.000000        0.88725605        0.00031360        0.00074742        0.00066998
     121         -0.521427        1.000000        0.95380813        0.00144571        0.00050313        0.00156267
     122         -0.520470        1.000000        0.91472576        0.00129399        0.00097478        0.00075407
     123         -0.520281        1.000000        0.92498075        0.00108371        0.00094257        0.00056485
     124         -0.519314        1.000000        0.95816943        0.00478486        0.00133151        0.00746536
     125         -0.518918        1.000000        0.92107405        0.00061305        0.00274759        0.00052263
     126         -0.518380        1.000000        0.90350915        0.00060122        0.00102800        0.00049563
     127         -0.518217        1.000000        0.96099961        0.00403994        0.00088284        0.00551558
     128         -0.517007        1.000000        0.94313776        0.00051652        0.00074886        0.00065435
     129         -0.507256        1.000000        0.18754342        0.00227994        0.00122043        0.00339041
     130         -0.502476        1.000000        0.17173120        0.00466585        0.00109819        0.00253909
     131         -0.501695        1.000000        0.06973899        0.00481956        0.00388674        0.00045185
     132         -0.492198        1.000000        0.08736584        0.00409913        0.00317913        0.00090153
     133         -0.484394        1.000000        0.06694745        0.00064771        0.00217274        0.00230841
     134         -0.482366        1.000000        0.09217044        0.00153558        0.00161870        0.00293152
     135         -0.481158        1.000000        0.03608150        0.00196129        0.00060833        0.00072037
     136         -0.478179        1.000000        0.00497028        0.00011162        0.00019921        0.00031701
     137         -0.477689        1.000000        0.00407196        0.00023727        0.00019266        0.00235570
     138         -0.475207        1.000000        0.01783648        0.00288569        0.00028362        0.00061404
     139         -0.474379        1.000000        0.00148302        0.00054745        0.00044778        0.00088966
     140         -0.473464        1.000000        0.00036122        0.00008457        0.00013694        0.00006873
     141         -0.473050        1.000000        0.00973332        0.00362232        0.00074031        0.00178849
     142         -0.472187        1.000000        0.05263320        0.00229930        0.00253170        0.00254009
     143         -0.472157        1.000000        0.05095096        0.00209444        0.00241813        0.00241098
     144         -0.468862        1.000000        0.00014859        0.00008680        0.00042268        0.00023680
     145         -0.468117        1.000000        0.02295439        0.00374705        0.00025069        0.00551892
     146         -0.465573        1.000000        0.06125754        0.00059878        0.00021771        0.00563467
     147         -0.464342        1.000000        0.01173054        0.00197206        0.00363974        0.00068711
     148         -0.463229        1.000000        0.00269195        0.00070570        0.00064976        0.00109147
     149         -0.462574        1.000000        0.00139006        0.00018184        0.00069551        0.00005239
     150         -0.460842        1.000000        0.01023851        0.00092202        0.00056074        0.00023366
     151         -0.459519        1.000000        0.00276206        0.00234517        0.00130327        0.00020070
     152         -0.459076        1.000000        0.01238445        0.00123135        0.00446349        0.00064252
     153         -0.457388        1.000000        0.01216063        0.00101541        0.00080300        0.00165373
     154         -0.455193        1.000000        0.00241802        0.00024045        0.00041816        0.00005874
     155         -0.454446        1.000000        0.00865772        0.00178693        0.00154527        0.00151804
     156         -0.454259        1.000000        0.01264083        0.00172808        0.00101786        0.00117013
     157         -0.453743        1.000000        0.01266448        0.00378304        0.00034520        0.00277256
     158         -0.453589        1.000000        0.00980454        0.00176592        0.00086809        0.00196181
     159         -0.451862        1.000000        0.00494335        0.00095624        0.00188256        0.00063897
     160         -0.451820        1.000000        0.01096716        0.00207299        0.00247686        0.00034452
     161         -0.451752        1.000000        0.00419718        0.00139600        0.00027077        0.00031079
     162         -0.450470        1.000000        0.00128635        0.00033229        0.00071286        0.00022543
     163         -0.450021        1.000000        0.00250703        0.00001910        0.00124810        0.00018966
     164         -0.449259        1.000000        0.00085393        0.00030069        0.00030420        0.00041971
     165         -0.445603        1.000000        0.01068255        0.00245671        0.00147539        0.00082001
     166         -0.445042        1.000000        0.00017602        0.00010193        0.00001994        0.00005284
     167         -0.441785        1.000000        0.03286835        0.00114235        0.00810959        0.00137468
     168         -0.441091        1.000000        0.00513771        0.00106394        0.00031680        0.00049982
     169         -0.440589        1.000000        0.00648333        0.00315115        0.00141575        0.00534555
     170         -0.440151        1.000000        0.00073371        0.00150323        0.00017490        0.00038766
     171         -0.439689        1.000000        0.00286098        0.00047518        0.00134213        0.00021743
     172         -0.437730        1.000000        0.00616214        0.00101845        0.00087324        0.00123351
     173         -0.436443        1.000000        0.00064045        0.00013709        0.00033155        0.00023487
     174         -0.435885        1.000000        0.00036447        0.00107016        0.00005898        0.00238797
     175         -0.434706        1.000000        0.00362808        0.00124332        0.00440850        0.00100826
     176         -0.434603        1.000000        0.00147346        0.00068216        0.00026093        0.00046260
     177         -0.434597        1.000000        0.00087654        0.00038022        0.00016070        0.00059790
     178         -0.434435        1.000000        0.00625769        0.00021867        0.00052121        0.00128202
     179         -0.433333        1.000000        0.00120870        0.00006511        0.00052121        0.00637716
     180         -0.432365        1.000000        0.00093168        0.00023230        0.00027429        0.00027229
     181         -0.432194        1.000000        0.00234229        0.00038463        0.00023288        0.00032525
     182         -0.428548        1.000000        0.00051885        0.00036587        0.00140284        0.00049256
     183         -0.427988        1.000000        0.00017530        0.00011800        0.00017624        0.00002080
     184         -0.427460        1.000000        0.00564475        0.00101382        0.00157724        0.00079626
     185         -0.427229        1.000000        0.14602626        0.03495547        0.04311799        0.03281808
     186         -0.426390        1.000000        0.00227625        0.00090029        0.00232942        0.00091276
     187         -0.425453        1.000000        0.02906868        0.00665412        0.00911813        0.00394685
     188         -0.422605        1.000000        0.00034610        0.00021113        0.00042636        0.00023280
     189         -0.421601        1.000000        0.00463486        0.00264830        0.00191445        0.00154367
     190         -0.421353        1.000000        0.00012307        0.00012242        0.00004102        0.00006573
     191         -0.420558        1.000000        0.01504320        0.01120799        0.00538072        0.00527791
     192         -0.419358        1.000000        0.00055505        0.00018848        0.00454262        0.00020569
     193         -0.418942        1.000000        0.00400380        0.00210795        0.00169330        0.00279849
     194         -0.417281        1.000000        0.10947350        0.03298253        0.03391474        0.02719606
     195         -0.415672        1.000000        0.00451298        0.00103459        0.00182490        0.00307868
     196         -0.414638        1.000000        0.05863011        0.01344009        0.02033484        0.02182776
     197         -0.414355        1.000000        0.05731261        0.01341177        0.01936739        0.01964361
     198         -0.413453        1.000000        0.00138435        0.00049598        0.00539128        0.00030129
     199         -0.413197        1.000000        0.01875288        0.00543503        0.00543805        0.00974625
     200         -0.412702        1.000000        0.00891775        0.00179758        0.00192198        0.00410587
     201         -0.411336        1.000000        0.00024398        0.00012164        0.00008203        0.00020590
     202         -0.411206        1.000000        0.07211955        0.02056088        0.01956098        0.02396816
     203         -0.410283        1.000000        0.00035507        0.00017296        0.00010148        0.00028950
     204         -0.409894        1.000000        0.03913889        0.00933497        0.01105662        0.01398372
     205         -0.408464        1.000000        0.03303203        0.01144395        0.01151012        0.02066743
     206         -0.407492        1.000000        0.00767388        0.00208104        0.00789802        0.00252084
     207         -0.407054        1.000000        0.01149462        0.00052555        0.00444307        0.00236521
     208         -0.405453        1.000000        0.09910447        0.03270370        0.02723254        0.02697295
     209         -0.404658        1.000000        0.00037474        0.00032585        0.00044569        0.00023682
     210         -0.404469        1.000000        0.00162792        0.00050076        0.00054616        0.00041085
     211         -0.403211        1.000000        0.00083919        0.00024356        0.00030596        0.00030782
     212         -0.402349        1.000000        0.11354776        0.02848258        0.03015396        0.03226205
     213         -0.401522        1.000000        0.12371303        0.02956675        0.03280186        0.02778976
     214         -0.400707        1.000000        0.11261353        0.02167176        0.02910786        0.02518988
     215         -0.399332        1.000000        0.00299875        0.00217931        0.00097894        0.00236912
     216         -0.397873        1.000000        0.00728205        0.00163310        0.00147901        0.00141557
     217         -0.395806        1.000000        0.00101278        0.00175638        0.00078583        0.00025506
     218         -0.395631        1.000000        0.00999510        0.00163135        0.00213862        0.00272302
     219         -0.394808        1.000000        0.00197360        0.00043823        0.00005543        0.00042699
     220         -0.394543        1.000000        0.00356403        0.00091841        0.00049439        0.00071493
     221         -0.393792        1.000000        0.00027038        0.00035492        0.00021168        0.00014969
     222         -0.389723        1.000000        0.00059176        0.00005025        0.00068881        0.00057472
     223         -0.388775        1.000000        0.00075202        0.00205897        0.00064267        0.00006073
     224         -0.385410        1.000000        0.00044481        0.00005339        0.00004518        0.00006129
     225         -0.382900        1.000000        0.00050244        0.00018490        0.00034811        0.00016112
     226         -0.380803        1.000000        0.00111992        0.00227256        0.00060350        0.00121252
     227         -0.380457        1.000000        0.00106865        0.00061320        0.00213286        0.00090618
     228         -0.379392        1.000000        0.00198971        0.00032576        0.00232656        0.00252536
     229         -0.378721        1.000000        0.00215543        0.00163709        0.00015479        0.00276115
     230         -0.378035        1.000000        0.00067803        0.00093788        0.00082967        0.00146851
     231         -0.375495        1.000000        0.00079608        0.00030765        0.00164148        0.00122676
     232         -0.373506        1.000000        0.00056565        0.00072449        0.00005261        0.00080400
     233         -0.368549        1.000000        0.00459751        0.00863698        0.02313998        0.00355936
     234         -0.364006        1.000000        0.00144815        0.00283820        0.00141527        0.00145705
     235         -0.360843        1.000000        0.00030747        0.00062494        0.00051565        0.00063686
     236         -0.352981        1.000000        0.00397112        0.02093458        0.00733958        0.00337255
     237         -0.352737        1.000000        0.00265365        0.00920220        0.00112476        0.00594773
     238         -0.352616        1.000000        0.00289604        0.01085952        0.00118265        0.00693655
     239         -0.348463        1.000000        0.00631451        0.02725240        0.00432442        0.01576676
     240         -0.348328        1.000000        0.00259916        0.00412993        0.00366810        0.00685097
     241         -0.347055        1.000000        0.00167047        0.00185472        0.00303425        0.00405419
     242         -0.339126        1.000000        0.00031564        0.00160982        0.00070347        0.00374141
     243         -0.336797        1.000000        0.00282168        0.00821880        0.02524189        0.00375795
     244         -0.335413        1.000000        0.00083419        0.00258102        0.00173813        0.00146689
     245         -0.334679        1.000000        0.00392090        0.02980349        0.01456993        0.00580970
     246         -0.330867        1.000000        0.00142643        0.00130244        0.00215214        0.00365015
     247         -0.330334        1.000000        0.00032334        0.00108141        0.00161796        0.00084930
     248         -0.327776        1.000000        0.00157574        0.00248281        0.00471707        0.00268885
     249         -0.327477        1.000000        0.00044467        0.00208038        0.00258340        0.00170900
     250         -0.327246        1.000000        0.00108217        0.00329104        0.00215870        0.00266293
     251         -0.325955        1.000000        0.00064426        0.00449673        0.00164858        0.00347528
     252         -0.325735        1.000000        0.00084148        0.00330200        0.01261920        0.00130308
     253         -0.324915        1.000000        0.00079113        0.00345724        0.00481512        0.00102816
     254         -0.323201        1.000000        0.00191251        0.00291195        0.00291584        0.00427793
     255         -0.321826        1.000000        0.00019842        0.00198611        0.00174522        0.00058708
     256         -0.314536        1.000000        0.00156697        0.00611954        0.00211157        0.00717154
     257         -0.313829        1.000000        0.00068297        0.00327627        0.00087564        0.00253274
     258         -0.312652        1.000000        0.00070325        0.00273108        0.00128907        0.00262125
     259         -0.312432        1.000000        0.00087042        0.00305833        0.00260526        0.00376992