100
Lattice="31.7900009155 0.0 0.0 0.0 31.0900001526 0.0 0.0 0.0 30.3899993896" Properties=species:S:1:pos:R:3 i=1 E=-3250.5119628633 pbc="F F F"
I       11.82708208      12.17282947       8.78232810
I       18.34605565      12.08123756       8.71617475
I       11.97978943      18.25665677       8.75661368
I       18.35404323      18.30003282       8.71931958
I       11.97230911       8.98161695      12.27754011
I       18.43727473       8.91992009      12.17803299
I        9.18484223      12.08100611      11.65303353
I       12.19611853      12.07695860      15.06379584
I       12.14986800      15.19134227      12.15413495
I       15.41317073      12.07246121      11.63147826
I       18.48795168      12.05595694      15.06534227
I       18.44018513      15.19375602      12.15749158
I       21.65189486      12.14396804      11.46228800
I        9.16833350      18.31414326      11.64784381
I       12.19215841      18.30855769      15.06331722
I       12.05287933      21.40491970      12.21254300
I       15.42042858      18.31124859      11.62672427
I       18.48831855      18.31334601      15.06106510
I       18.45155207      21.44607150      12.15720168
I       21.69148340      18.26737400      11.53806664
I       12.32544671       8.94652646      18.48092420
I       18.39467450       8.98586846      18.75618312
I        9.29777537      12.07962890      17.96948013
I       12.36778461      12.07434028      21.41047530
I       12.29833537      15.19273962      18.50667490
I       15.55976211      12.06805366      17.96654281
I       18.63681606      12.08025063      21.42119036
I       18.58720107      15.19014703      18.49942966
I       21.87848982      12.06733900      17.95586553
I        9.28459095      18.30404085      17.97315018
I       12.36178625      18.31445758      21.41137248
I       12.31599510      21.43575314      18.49995151
I       15.56319505      18.31815197      17.97118486
I       18.64077354      18.30878505      21.42180591
I       18.48862420      21.40684002      18.66382556
I       21.88314360      18.30592920      17.96695045
Pb      12.28459426      12.08474818      11.87152185
Pb      18.63389971      12.04342624      11.84245841
Pb      12.31042685      18.33732523      11.87152488
Pb      18.61413887      18.37248728      11.86097782
Pb      12.44035367      12.03869361      18.31192211
Pb      18.79890704      12.09290307      18.33055332
Pb      12.44388608      18.36508169      18.29441646
Pb      18.81292575      18.32160385      18.29966988
C       15.04659031      15.19694262       8.55881542
C       15.19343891       8.94802944      14.91031371
C        8.90523485      15.19848309      14.91366044
C       15.19347939      15.19744205      14.91439116
C       21.48722741      15.19648188      14.91135872
C       15.19331501      21.44715452      14.91234491
C       15.34834795      15.19722011      21.28102202
N       16.44158103      15.19914718       9.16901674
N       16.58365826       8.94820950      15.53447372
N       10.29411917      15.20184089      15.52954338
N       16.58591991      15.20021303      15.52865517
N       22.88094451      15.20051532      15.53279812
N       16.58602111      21.44658014      15.53165352
N       16.74760823      15.19535427      21.88747461
H       15.14916973      15.19984347       7.48997207
H       14.52164684      16.08049416       8.88152401
H       14.52000603      14.31991675       8.88951823
H       16.97088142      16.05638288       8.88467093
H       16.97618349      14.34357873       8.88836484
H       16.39516043      15.19603876      10.20760305
H       15.29414232       8.95681588      13.83921774
H       14.67303060       9.83302626      15.23819440
H       14.66889003       8.07313941      15.24396088
H       17.11544313       9.80336672      15.23353007
H       17.12877926       8.11998149      15.22642777
H       16.54802334       8.96872627      16.57695851
H        9.00659645      15.19451919      13.84309169
H        8.38170265      16.07708469      15.24136237
H        8.39082413      14.31275611      15.24015311
H       10.82615245      16.05220294      15.23584075
H       10.82133917      14.34637552      15.23838050
H       10.24790753      15.19347082      16.56905673
H       15.29433545      15.19373183      13.84468704
H       14.67481488      16.08109049      15.23964958
H       14.67546583      14.31279266      15.23915358
H       17.12193394      16.04846377      15.23767096
H       17.11809612      14.34864769      15.23954097
H       16.54555383      15.19374083      16.56757475
H       21.58757858      15.19805028      13.84079153
H       20.97115844      16.08220887      15.24125118
H       20.96947991      14.31392935      15.24536804
H       23.41448430      16.04324937      15.23668991
H       23.41041556      14.35298583      15.24395631
H       22.81438100      15.19596251      16.57212194
H       15.29418378      21.43994213      13.84142603
H       14.67140259      22.32815833      15.24128529
H       14.67514970      20.56345644      15.23976653
H       17.11428482      22.28780040      15.22677510
H       17.12094701      20.59695510      15.23632444
H       16.54113368      21.43841928      16.57074598
H       15.44843734      15.19389209      20.21046420
H       14.82300397      16.08178910      21.59427252
H       14.82304717      14.31183912      21.59376430
H       17.27605002      16.05080266      21.58924896
H       17.27732996      14.34003312      21.58881639
H       16.68886136      15.19630154      22.92085600
