# Projected DOS for atomic kind O at iteration step i = 0, E(Fermi) =    -0.140361 a.u.
#     MO Eigenvalue [a.u.]      Occupation                 s                py                pz                px
       1         -0.918191        1.000000        0.70424747        0.01552703        0.02615745        0.00073382
       2         -0.917865        1.000000        0.71280739        0.00172448        0.00374028        0.02629514
       3         -0.917339        1.000000        0.71428673        0.00693354        0.00111901        0.01507218
       4         -0.916815        1.000000        0.70727116        0.02215470        0.01156513        0.00408390
       5         -0.914459        1.000000        0.71203991        0.01729332        0.01022724        0.00032518
       6         -0.914303        1.000000        0.70846234        0.00233505        0.00210582        0.02255746
       7         -0.912550        1.000000        0.70812292        0.01105608        0.00440179        0.02244029
       8         -0.910361        1.000000        0.70828840        0.00168889        0.02704214        0.00608661
       9         -0.909538        1.000000        0.71290341        0.00243470        0.01420242        0.01131384
      10         -0.909163        1.000000        0.68837848        0.00195857        0.00052935        0.03156182
      11         -0.909158        1.000000        0.02080600        0.00005920        0.00001603        0.00095393
      12         -0.903153        1.000000        0.70813453        0.01314968        0.01073386        0.01245867
      13         -0.903152        1.000000        0.70849251        0.01238614        0.01122390        0.01227641
      14         -0.901865        1.000000        0.00003640        0.00000036        0.00000107        0.00000130
      15         -0.900039        1.000000        0.72556470        0.00442466        0.00294697        0.01059140
      16         -0.893468        1.000000        0.70560725        0.03447916        0.00008507        0.00539575
      17         -0.892218        1.000000        0.00136490        0.00001177        0.00000241        0.00002622
      18         -0.891559        1.000000        0.70355815        0.02972725        0.00888817        0.00269999
      19         -0.890341        1.000000        0.70590639        0.02371929        0.00045615        0.01332728
      20         -0.890052        1.000000        0.72693739        0.00677876        0.00318304        0.01876094
      21         -0.889217        1.000000        0.72394523        0.01335437        0.01559582        0.00229401
      22         -0.887765        1.000000        0.70842369        0.02571679        0.00046761        0.01074417
      23         -0.884622        1.000000        0.70747770        0.01493011        0.00553533        0.01750456
      24         -0.878900        1.000000        0.61380949        0.00912191        0.00927360        0.00395614
      25         -0.878014        1.000000        0.70322836        0.00887456        0.03033278        0.00239512
      26         -0.877925        1.000000        0.74781578        0.01375035        0.00276851        0.01283621
      27         -0.876530        1.000000        0.71820746        0.00398198        0.01226926        0.00637274
      28         -0.876402        1.000000        0.73364251        0.01256508        0.00908257        0.00811495
      29         -0.875144        1.000000        0.69592697        0.01448598        0.00114636        0.03397647
      30         -0.872704        1.000000        0.69615336        0.00833433        0.00271078        0.00781062
      31         -0.866191        1.000000        0.72755690        0.00115497        0.04240157        0.00288039
      32         -0.861107        1.000000        0.69221349        0.00636952        0.04397185        0.00006814
      33         -0.860727        1.000000        0.66618791        0.00302322        0.00675809        0.00484715
      34         -0.860032        1.000000        0.65315554        0.01058290        0.00946152        0.00565014
      35         -0.857151        1.000000        0.75593637        0.01311029        0.00332132        0.02435727
      36         -0.855051        1.000000        0.11813482        0.00410248        0.00473529        0.00242399
      37         -0.854259        1.000000        0.71412020        0.01450954        0.00964087        0.01176036
      38         -0.852719        1.000000        0.72645674        0.03917033        0.00634370        0.00163945
      39         -0.852590        1.000000        0.48947267        0.00713886        0.00710847        0.00474911
      40         -0.850559        1.000000        0.71053245        0.03727848        0.00226301        0.00957092
      41         -0.850287        1.000000        0.77371119        0.00364575        0.00412526        0.02877063
      42         -0.847838        1.000000        0.55498127        0.00378831        0.00860639        0.00766626
      43         -0.847064        1.000000        0.69193659        0.04963469        0.00050110        0.00024820
      44         -0.846027        1.000000        0.72217343        0.01108167        0.00019587        0.03404280
      45         -0.837577        1.000000        0.69204043        0.02625025        0.02135276        0.00275453
      46         -0.835010        1.000000        0.77598805        0.02764966        0.00635504        0.00766027
      47         -0.832614        1.000000        0.36165082        0.00386182        0.00711686        0.00618003
      48         -0.832020        1.000000        0.69590847        0.04597756        0.00044944        0.00141481
      49         -0.830276        1.000000        0.28362541        0.00992799        0.00577480        0.00154880
      50         -0.829685        1.000000        0.70273271        0.01813165        0.00223401        0.02841642
      51         -0.829438        1.000000        0.70158275        0.00194842        0.04242104        0.00473541
      52         -0.829144        1.000000        0.69380530        0.02601150        0.02378629        0.00000633
      53         -0.827276        1.000000        0.70114776        0.03921653        0.00917524        0.00014283
      54         -0.824423        1.000000        0.70972101        0.03750017        0.00218655        0.00858393
      55         -0.823790        1.000000        0.66331883        0.01252438        0.02041448        0.00623042
      56         -0.822335        1.000000        0.70562954        0.03578206        0.00321642        0.00928053
      57         -0.821007        1.000000        0.07635716        0.00639471        0.00226161        0.00298803
      58         -0.817811        1.000000        0.71416120        0.03857885        0.00032249        0.00943977
      59         -0.811598        1.000000        0.69042513        0.00779813        0.00890435        0.01878905
      60         -0.652584        1.000000        0.00000102        0.00000315        0.00000112        0.00000388
      61         -0.649832        1.000000        0.00000001        0.00000003        0.00000003        0.00000003
      62         -0.637966        1.000000        0.00003053        0.00005327        0.00013643        0.00045574
      63         -0.624070        1.000000        0.00013196        0.00054589        0.00127417        0.00026298
      64         -0.606431        1.000000        0.00025250        0.00175446        0.00006222        0.00006243
      65         -0.599570        1.000000        0.00185537        0.01148121        0.00270951        0.00038991
      66         -0.599393        1.000000        0.00034168        0.00206658        0.00020879        0.00139448
      67         -0.597633        1.000000        0.00577808        0.00173180        0.01135434        0.00691991
      68         -0.592509        1.000000        0.00112376        0.00679059        0.00182600        0.00018736
      69         -0.586498        1.000000        0.00123717        0.00286834        0.00363082        0.00608989
      70         -0.559261        1.000000        0.00011667        0.00009582        0.00087464        0.00032583
      71         -0.554937        1.000000        0.00022595        0.00059054        0.00029966        0.00046380
      72         -0.553820        1.000000        0.00067090        0.00540069        0.00153285        0.00033552
      73         -0.549403        1.000000        0.00010002        0.00031315        0.00011694        0.00013845
      74         -0.547144        1.000000        0.00053667        0.00104067        0.00080439        0.00126093
      75         -0.546522        1.000000        0.00042735        0.00085554        0.00115862        0.00081493
      76         -0.545055        1.000000        0.00026375        0.00087184        0.00070445        0.00070077
      77         -0.544331        1.000000        0.00078787        0.00087571        0.00522315        0.00116843
      78         -0.543233        1.000000        0.00074228        0.00305541        0.00101689        0.00183624
      79         -0.542088        1.000000        0.00024550        0.00058537        0.00100489        0.00049853
      80         -0.541345        1.000000        0.00040339        0.00127051        0.00090974        0.00143961
      81         -0.540437        1.000000        0.00013048        0.00026135        0.00042203        0.00046002
      82         -0.540324        1.000000        0.00072976        0.00126317        0.00234017        0.00154089
      83         -0.538679        1.000000        0.00062619        0.00395404        0.00120738        0.00213336
      84         -0.538307        1.000000        0.00015800        0.00040881        0.00066594        0.00092370
      85         -0.537652        1.000000        0.00034383        0.00086440        0.00282249        0.00091110
      86         -0.537170        1.000000        0.00045956        0.00100163        0.00473635        0.00215094
      87         -0.536419        1.000000        0.00046268        0.00281702        0.00131247        0.00180351
      88         -0.535726        1.000000        0.00075669        0.00116937        0.00262369        0.00457146
      89         -0.534170        1.000000        0.00022158        0.00031143        0.00066811        0.00079619
      90         -0.531881        1.000000        0.00025700        0.00027503        0.00065906        0.00109395
      91         -0.531728        1.000000        0.00049269        0.00553868        0.00184111        0.00170163
      92         -0.531233        1.000000        0.00036574        0.00155844        0.00105218        0.00174259
      93         -0.530857        1.000000        0.00039996        0.00221113        0.00687472        0.00130358
      94         -0.530751        1.000000        0.00020712        0.00125427        0.00056545        0.00095017
      95         -0.530303        1.000000        0.00053087        0.00104396        0.00091366        0.00338687
      96         -0.530036        1.000000        0.00033257        0.00240016        0.00126209        0.00238273
      97         -0.528373        1.000000        0.00093142        0.00434877        0.00383627        0.00435583
      98         -0.526836        1.000000        0.00030101        0.00099999        0.00136988        0.00108024
      99         -0.526288        1.000000        0.00024430        0.00084815        0.00113554        0.00101872
     100         -0.525633        1.000000        0.00038180        0.00013933        0.00033879        0.00130832
     101         -0.524190        1.000000        0.00057525        0.00995025        0.00237235        0.00484934
     102         -0.521516        1.000000        0.00019166        0.00150998        0.00477244        0.00099916
     103         -0.520836        1.000000        0.00018873        0.00164819        0.00480054        0.00096563
     104         -0.519692        1.000000        0.00053021        0.00121957        0.00243222        0.00091401
     105         -0.519610        1.000000        0.00018395        0.00011323        0.00461601        0.00083935
     106         -0.513225        1.000000        0.00002907        0.00007661        0.00020359        0.00012485
     107         -0.511165        1.000000        0.00007383        0.00004137        0.00402659        0.00062961
     108         -0.505617        1.000000        0.00001859        0.00004733        0.00012115        0.00018995
     109         -0.485500        1.000000        0.00000127        0.00058176        0.00108985        0.00061110
     110         -0.481987        1.000000        0.00114076        0.01324280        0.55096243        0.05336367
     111         -0.481260        1.000000        0.00086696        0.02159593        0.04807227        0.02551256
     112         -0.478430        1.000000        0.00022568        0.19438169        0.15243764        0.28569245
     113         -0.478274        1.000000        0.00243860        0.28047200        0.04634671        0.29317612
     114         -0.475794        1.000000        0.00022352        0.02534147        0.01038374        0.02838091
     115         -0.475610        1.000000        0.00224907        0.20633509        0.09633148        0.30550313
     116         -0.475008        1.000000        0.00235220        0.29872607        0.23664024        0.08476295
     117         -0.473995        1.000000        0.00020039        0.03452189        0.41881598        0.18553628
     118         -0.471727        1.000000        0.00069138        0.49652476        0.08467777        0.04994536
     119         -0.471580        1.000000        0.00003377        0.00255890        0.00319636        0.00129366
     120         -0.471221        1.000000        0.00035107        0.01456734        0.21581014        0.40806221
     121         -0.471140        1.000000        0.00041202        0.01869233        0.21502117        0.40374296
     122         -0.469794        1.000000        0.00178792        0.20852745        0.30926440        0.09400897
     123         -0.469286        1.000000        0.00016911        0.40116567        0.01645929        0.22176149
     124         -0.467066        1.000000        0.00254392        0.42398751        0.07774868        0.14098082
     125         -0.465912        1.000000        0.00081044        0.14790670        0.02502472        0.07191864
     126         -0.465577        1.000000        0.00214583        0.13488025        0.14277667        0.33631232
     127         -0.464584        1.000000        0.00005372        0.09356758        0.53295348        0.00340091
     128         -0.463841        1.000000        0.00235535        0.23833652        0.13457691        0.20675517
     129         -0.463633        1.000000        0.00040370        0.06558356        0.03799362        0.05067439
     130         -0.461869        1.000000        0.00165862        0.09460931        0.43824944        0.11764788
     131         -0.461101        1.000000        0.00003481        0.02565753        0.31941590        0.29367904
     132         -0.460094        1.000000        0.00253177        0.12651720        0.03975654        0.43324658
     133         -0.459483        1.000000        0.00056973        0.07824086        0.03475356        0.11148794
     134         -0.457859        1.000000        0.00356360        0.07262664        0.42695781        0.14617339
     135         -0.456460        1.000000        0.00065095        0.10559328        0.00441618        0.51951867
     136         -0.454971        1.000000        0.00021346        0.02032060        0.04681855        0.56034526
     137         -0.454083        1.000000        0.00203176        0.25113899        0.26155613        0.14141206
     138         -0.452752        1.000000        0.00190523        0.05948733        0.28928529        0.29425579
     139         -0.450054        1.000000        0.00088071        0.12503531        0.19949731        0.29830283
     140         -0.448165        1.000000        0.00031367        0.07900754        0.32605374        0.22237727
     141         -0.447709        1.000000        0.00171967        0.09479682        0.01308260        0.53713943
     142         -0.446929        1.000000        0.00015448        0.04463874        0.30190722        0.28812936
     143         -0.445975        1.000000        0.00167673        0.13876703        0.04387492        0.19320778
     144         -0.441544        1.000000        0.00753485        0.13606194        0.09742873        0.42233621
     145         -0.441302        1.000000        0.00305319        0.03511148        0.12380992        0.19504631
     146         -0.439866        1.000000        0.00456683        0.04801316        0.16621854        0.43242350
     147         -0.437027        1.000000        0.00035901        0.06722172        0.00915251        0.55302769
     148         -0.433872        1.000000        0.00450410        0.12406062        0.44000252        0.03125102
     149         -0.432999        1.000000        0.00347709        0.09370489        0.41054878        0.13379805
     150         -0.432885        1.000000        0.00312970        0.01668906        0.08393166        0.54456763
     151         -0.432526        1.000000        0.00008948        0.40385696        0.07140078        0.15150667
     152         -0.431800        1.000000        0.00000641        0.00231330        0.00067669        0.00114494
     153         -0.431163        1.000000        0.00000383        0.00009404        0.00020578        0.00031407
     154         -0.428206        1.000000        0.00232763        0.35707732        0.16842019        0.08169567
     155         -0.426697        1.000000        0.00018615        0.00592655        0.00194653        0.01914536
     156         -0.423130        1.000000        0.00553901        0.13129472        0.00571940        0.48492637
     157         -0.422455        1.000000        0.00291158        0.03507433        0.07415550        0.47319420
     158         -0.419962        1.000000        0.00199513        0.07963268        0.34094304        0.01881033
     159         -0.419657        1.000000        0.00029126        0.05122891        0.05021919        0.47343523
     160         -0.419549        1.000000        0.00069394        0.03606234        0.11109889        0.11431192
     161         -0.418636        1.000000        0.00028085        0.00260944        0.00710242        0.00775116
     162         -0.417056        1.000000        0.00028103        0.00951862        0.02757138        0.00367066
     163         -0.414832        1.000000        0.00206944        0.17574643        0.04905332        0.04955167
     164         -0.412667        1.000000        0.00065427        0.06072367        0.02024500        0.02842982
     165         -0.412101        1.000000        0.00127396        0.14834524        0.04755022        0.05005306
     166         -0.411403        1.000000        0.00029570        0.02387197        0.00944715        0.01854066
     167         -0.410497        1.000000        0.00013245        0.00245379        0.00158537        0.03759296
     168         -0.408060        1.000000        0.00011967        0.00262086        0.00184715        0.26839857
     169         -0.405314        1.000000        0.00017993        0.00357980        0.00206746        0.30097121
     170         -0.402561        1.000000        0.00171300        0.00752243        0.00589553        0.01738038
     171         -0.401733        1.000000        0.00427179        0.09122130        0.41605504        0.12896647
     172         -0.396903        1.000000        0.00471122        0.56392965        0.02482069        0.04778237
     173         -0.395532        1.000000        0.00000475        0.18216086        0.34141430        0.10612612
     174         -0.395386        1.000000        0.00187097        0.23934811        0.03760482        0.32049111
     175         -0.393612        1.000000        0.00013930        0.01925055        0.13849204        0.46656683
     176         -0.393174        1.000000        0.00611152        0.12358686        0.40149765        0.11940023
     177         -0.392082        1.000000        0.00139969        0.00917973        0.45342410        0.17581301
     178         -0.389067        1.000000        0.00861908        0.13929693        0.03571101        0.47043243
     179         -0.386150        1.000000        0.00002635        0.10428372        0.09844797        0.42621692
     180         -0.384350        1.000000        0.00023547        0.02010857        0.07079384        0.53959128
     181         -0.383936        1.000000        0.00260406        0.02656272        0.01962087        0.00134432
     182         -0.378015        1.000000        0.00215331        0.02631397        0.00335962        0.01127219
     183         -0.373099        1.000000        0.00063440        0.02425170        0.00660960        0.01333580
     184         -0.371361        1.000000        0.00114944        0.00359050        0.00149682        0.00198917
     185         -0.369000        1.000000        0.12438975        0.30982270        0.14820179        0.19811351
     186         -0.368002        1.000000        0.00181824        0.00442584        0.00245835        0.00303315
     187         -0.366242        1.000000        0.00027751        0.00063505        0.00029305        0.00042645
     188         -0.365284        1.000000        0.00027800        0.00059660        0.00027905        0.00042663
     189         -0.359470        1.000000        0.10319257        0.25082651        0.07104634        0.31043551
     190         -0.356430        1.000000        0.00293979        0.00609573        0.00083609        0.01195166
     191         -0.354769        1.000000        0.00437807        0.00582470        0.00123011        0.02382094
     192         -0.351857        1.000000        0.01771618        0.03285387        0.06100627        0.03729987
     193         -0.345418        1.000000        0.00004335        0.00008148        0.00021147        0.00013758
     194         -0.342961        1.000000        0.02531983        0.08059138        0.07261362        0.02180386
     195         -0.339324        1.000000        0.12261666        0.25371251        0.03579803        0.34908271
     196         -0.331727        1.000000        0.06986056        0.08727673        0.05654970        0.23816456
     197         -0.331053        1.000000        0.02941229        0.10740553        0.04146346        0.03989545
     198         -0.330895        1.000000        0.10371435        0.29170767        0.12297524        0.25742638
     199         -0.329209        1.000000        0.00123286        0.00190736        0.00221798        0.00218365
     200         -0.323807        1.000000        0.00716080        0.01508927        0.00949052        0.02691774
     201         -0.323607        1.000000        0.10452632        0.04641463        0.09967908        0.39560953
     202         -0.317657        1.000000        0.14333521        0.13818243        0.37272696        0.21640051
     203         -0.315812        1.000000        0.00405496        0.00566392        0.00645464        0.01690385
     204         -0.315592        1.000000        0.13150745        0.25735368        0.28196241        0.20565177
     205         -0.314698        1.000000        0.12538480        0.07517005        0.10661522        0.45127628
     206         -0.310369        1.000000        0.12420306        0.07170167        0.37653238        0.16887107
     207         -0.308181        1.000000        0.06515160        0.17791928        0.28252637        0.13935489
     208         -0.306702        1.000000        0.13297854        0.16558798        0.35466478        0.13827927
     209         -0.305382        1.000000        0.14885679        0.23699463        0.05428392        0.45508338
     210         -0.303407        1.000000        0.06980073        0.08622232        0.07153937        0.47481638
     211         -0.300389        1.000000        0.10440031        0.09400122        0.10853290        0.36320246
     212         -0.299180        1.000000        0.07146592        0.13187877        0.14111243        0.33217766
     213         -0.298090        1.000000        0.12716934        0.18028558        0.30806976        0.16346067
     214         -0.291613        1.000000        0.14857553        0.50910378        0.13423682        0.08301301
     215         -0.289746        1.000000        0.14904178        0.41617891        0.03104573        0.27547772
     216         -0.289526        1.000000        0.07226387        0.15646990        0.21189958        0.18499975
     217         -0.289252        1.000000        0.15161762        0.30696708        0.16939997        0.26953052
     218         -0.280397        1.000000        0.15235893        0.51706686        0.16480467        0.06612537
     219         -0.280294        1.000000        0.14561031        0.50400665        0.10807824        0.13632503
     220         -0.277661        1.000000        0.14796614        0.26737546        0.08157760        0.38475590
     221         -0.277258        1.000000        0.06594329        0.18619978        0.13504814        0.22048000
     222         -0.275719        1.000000        0.11146377        0.19458537        0.14385881        0.29015332
     223         -0.270037        1.000000        0.10828294        0.12371574        0.30563111        0.25519515
     224         -0.269127        1.000000        0.15155739        0.07148301        0.59605387        0.06533985
     225         -0.267235        1.000000        0.07559055        0.20237015        0.15550526        0.32148621
     226         -0.262039        1.000000        0.10450871        0.44688535        0.32145435        0.00610066
     227         -0.259285        1.000000        0.09438841        0.17467052        0.29207250        0.21783550
     228         -0.252379        1.000000        0.07197600        0.14126267        0.34813538        0.28389545
     229         -0.249958        1.000000        0.15322369        0.23150928        0.03369063        0.46236413
     230         -0.247807        1.000000        0.07729354        0.19425297        0.19882074        0.40607495
     231         -0.244332        1.000000        0.03830580        0.04489532        0.65748838        0.15558107
     232         -0.243844        1.000000        0.02918845        0.62465118        0.09654459        0.15290361
     233         -0.242422        1.000000        0.06572259        0.36645394        0.12555374        0.19223893
     234         -0.241052        1.000000        0.01264243        0.13469747        0.19560486        0.04503344
     235         -0.240399        1.000000        0.01028016        0.48348016        0.12270021        0.10639286
     236         -0.240236        1.000000        0.01013833        0.18779761        0.28123875        0.03206823
     237         -0.238679        1.000000        0.01572088        0.20442435        0.53879336        0.10534118
     238         -0.237994        1.000000        0.02588844        0.43692923        0.08919531        0.05575273
     239         -0.237659        1.000000        0.04562306        0.24195247        0.11111859        0.13856886
     240         -0.236844        1.000000        0.00465897        0.14254910        0.14569473        0.48747991
     241         -0.236159        1.000000        0.04029206        0.19846181        0.19307736        0.10838779
     242         -0.235663        1.000000        0.03867021        0.27574615        0.23107294        0.14322755
     243         -0.234655        1.000000        0.04137553        0.23728615        0.15961663        0.18965273
     244         -0.233947        1.000000        0.03017698        0.66208673        0.10715234        0.09349282
     245         -0.233701        1.000000        0.13163208        0.13218548        0.52555269        0.04017839
     246         -0.233354        1.000000        0.06446666        0.25131310        0.43592915        0.07074940
     247         -0.232116        1.000000        0.03084847        0.17006564        0.24176097        0.10425200
     248         -0.231137        1.000000        0.00126029        0.22265126        0.28081725        0.46262097
     249         -0.230874        1.000000        0.01833121        0.28383146        0.21273036        0.08904898
     250         -0.230853        1.000000        0.02091411        0.39177107        0.08945195        0.27742870
     251         -0.230510        1.000000        0.01966125        0.21745337        0.21486747        0.10097546
     252         -0.229423        1.000000        0.01665867        0.12019821        0.06904603        0.12693880
     253         -0.228717        1.000000        0.03391821        0.34953392        0.13954767        0.27101438
     254         -0.227573        1.000000        0.01753871        0.21269574        0.08525469        0.13674420
     255         -0.227097        1.000000        0.02142568        0.26819513        0.11131943        0.20472371
     256         -0.226234        1.000000        0.02022646        0.14682160        0.09047741        0.08749824
     257         -0.224983        1.000000        0.02195804        0.13000046        0.17647363        0.04251568
     258         -0.224180        1.000000        0.02305498        0.13863520        0.05247895        0.03338121
     259         -0.223122        1.000000        0.02378971        0.13741852        0.26401132        0.08560418