# Projected DOS for atomic kind N at iteration step i = 0, E(Fermi) =    -0.140361 a.u.
#     MO Eigenvalue [a.u.]      Occupation                 s                py                pz                px
       1         -0.918191        1.000000        0.00003994        0.00000332        0.00000000        0.00000474
       2         -0.917865        1.000000        0.00001697        0.00000015        0.00000019        0.00000001
       3         -0.917339        1.000000        0.00000001        0.00000000        0.00000000        0.00000000
       4         -0.916815        1.000000        0.00000000        0.00000000        0.00000000        0.00000000
       5         -0.914459        1.000000        0.00000040        0.00000001        0.00000000        0.00000000
       6         -0.914303        1.000000        0.00000125        0.00000000        0.00000001        0.00000004
       7         -0.912550        1.000000        0.00000001        0.00000000        0.00000000        0.00000000
       8         -0.910361        1.000000        0.00092441        0.00000724        0.00001819        0.00002260
       9         -0.909538        1.000000        0.00000123        0.00000001        0.00000000        0.00000000
      10         -0.909163        1.000000        0.01809965        0.00000314        0.00000131        0.00000617
      11         -0.909158        1.000000        0.59807735        0.00006024        0.00004095        0.00019110
      12         -0.903153        1.000000        0.00016648        0.00001698        0.00000482        0.00000069
      13         -0.903152        1.000000        0.00018185        0.00001820        0.00000510        0.00000075
      14         -0.901865        1.000000        0.61051829        0.00001610        0.00002835        0.00002497
      15         -0.900039        1.000000        0.00000018        0.00000000        0.00000002        0.00000004
      16         -0.893468        1.000000        0.00000444        0.00000000        0.00000000        0.00000000
      17         -0.892218        1.000000        0.61113306        0.00000080        0.00000453        0.00004870
      18         -0.891559        1.000000        0.00000005        0.00000000        0.00000002        0.00000001
      19         -0.890341        1.000000        0.00000012        0.00000000        0.00000000        0.00000000
      20         -0.890052        1.000000        0.00111260        0.00000001        0.00000023        0.00000099
      21         -0.889217        1.000000        0.00000655        0.00000008        0.00000001        0.00000001
      22         -0.887765        1.000000        0.00000080        0.00000001        0.00000000        0.00000000
      23         -0.884622        1.000000        0.00000029        0.00000000        0.00000000        0.00000000
      24         -0.878900        1.000000        0.09312197        0.00001637        0.00008632        0.00018109
      25         -0.878014        1.000000        0.00000006        0.00000000        0.00000000        0.00000000
      26         -0.877925        1.000000        0.00000193        0.00000000        0.00000008        0.00000016
      27         -0.876530        1.000000        0.00024506        0.00000230        0.00000228        0.00000030
      28         -0.876402        1.000000        0.00000125        0.00000005        0.00000000        0.00000001
      29         -0.875144        1.000000        0.00000001        0.00000000        0.00000000        0.00000000
      30         -0.872704        1.000000        0.02016653        0.00012722        0.00001237        0.00003944
      31         -0.866191        1.000000        0.00000000        0.00000000        0.00000000        0.00000000
      32         -0.861107        1.000000        0.00000001        0.00000000        0.00000000        0.00000000
      33         -0.860727        1.000000        0.04047991        0.00006943        0.00004633        0.00002113
      34         -0.860032        1.000000        0.05600845        0.00057831        0.00015328        0.00001394
      35         -0.857151        1.000000        0.00001229        0.00000000        0.00000062        0.00000182
      36         -0.855051        1.000000        0.50737559        0.00097958        0.00189587        0.00070506
      37         -0.854259        1.000000        0.00263092        0.00010164        0.00004061        0.00066186
      38         -0.852719        1.000000        0.00000651        0.00000000        0.00000000        0.00000000
      39         -0.852590        1.000000        0.19992166        0.00004692        0.00000537        0.00000725
      40         -0.850559        1.000000        0.00000007        0.00000000        0.00000000        0.00000000
      41         -0.850287        1.000000        0.00019451        0.00000003        0.00000093        0.00000081
      42         -0.847838        1.000000        0.14358876        0.00000642        0.00003270        0.00001701
      43         -0.847064        1.000000        0.00000362        0.00000000        0.00000007        0.00000004
      44         -0.846027        1.000000        0.00000001        0.00000002        0.00000001        0.00000000
      45         -0.837577        1.000000        0.00000000        0.00000000        0.00000000        0.00000000
      46         -0.835010        1.000000        0.00000304        0.00000093        0.00000004        0.00000014
      47         -0.832614        1.000000        0.31163597        0.00144715        0.00153408        0.00000453
      48         -0.832020        1.000000        0.00000286        0.00000001        0.00000002        0.00000000
      49         -0.830276        1.000000        0.37380809        0.00589443        0.00014697        0.00159629
      50         -0.829685        1.000000        0.00000043        0.00000000        0.00000000        0.00000000
      51         -0.829438        1.000000        0.00046197        0.00000618        0.00000010        0.00000243
      52         -0.829144        1.000000        0.00000003        0.00000000        0.00000000        0.00000000
      53         -0.827276        1.000000        0.00038550        0.00000390        0.00000196        0.00000018
      54         -0.824423        1.000000        0.00000003        0.00000000        0.00000000        0.00000002
      55         -0.823790        1.000000        0.04433695        0.00058220        0.00034306        0.00000287
      56         -0.822335        1.000000        0.00000009        0.00000000        0.00000000        0.00000000
      57         -0.821007        1.000000        0.53848267        0.00165011        0.00002415        0.00030737
      58         -0.817811        1.000000        0.00000000        0.00000000        0.00000000        0.00000000
      59         -0.811598        1.000000        0.05838424        0.00139433        0.00142479        0.00014178
      60         -0.652584        1.000000        0.01819662        0.00712719        0.09726610        0.08345600
      61         -0.649832        1.000000        0.01492265        0.00036447        0.06733967        0.12956702
      62         -0.637966        1.000000        0.01734403        0.00427622        0.04180069        0.14450231
      63         -0.624070        1.000000        0.02509668        0.00292583        0.00769633        0.15519344
      64         -0.606431        1.000000        0.02868787        0.01573486        0.01708542        0.12775267
      65         -0.599570        1.000000        0.00470887        0.00010541        0.00181745        0.06319627
      66         -0.599393        1.000000        0.02895519        0.00301070        0.10502128        0.05123255
      67         -0.597633        1.000000        0.00029743        0.00636325        0.00033948        0.00063904
      68         -0.592509        1.000000        0.01809201        0.00018820        0.00095863        0.10845743
      69         -0.586498        1.000000        0.00000099        0.00001038        0.00000035        0.00003325
      70         -0.559261        1.000000        0.00007523        0.00057491        0.00201161        0.00077585
      71         -0.554937        1.000000        0.00021033        0.02545356        0.00134034        0.00203861
      72         -0.553820        1.000000        0.00016992        0.00330843        0.00188044        0.00152985
      73         -0.549403        1.000000        0.00058560        0.02944046        0.01451852        0.02056115
      74         -0.547144        1.000000        0.00017091        0.00315234        0.01661830        0.00913466
      75         -0.546522        1.000000        0.00025808        0.02193436        0.02726163        0.01302526
      76         -0.545055        1.000000        0.00068735        0.03192306        0.00386522        0.00101251
      77         -0.544331        1.000000        0.00032034        0.02335473        0.02440492        0.01697394
      78         -0.543233        1.000000        0.00006199        0.01941890        0.00281220        0.00446456
      79         -0.542088        1.000000        0.00027052        0.00749201        0.00418034        0.00120468
      80         -0.541345        1.000000        0.00018125        0.01007949        0.01656310        0.00970231
      81         -0.540437        1.000000        0.00028627        0.03340492        0.02733130        0.01642262
      82         -0.540324        1.000000        0.00003963        0.05235366        0.00717868        0.00234722
      83         -0.538679        1.000000        0.00000669        0.00464841        0.00846632        0.00360436
      84         -0.538307        1.000000        0.00059793        0.02221019        0.01424633        0.01100984
      85         -0.537652        1.000000        0.00013455        0.02861720        0.05128842        0.02724333
      86         -0.537170        1.000000        0.00018287        0.02435115        0.02747785        0.01554992
      87         -0.536419        1.000000        0.00003967        0.00642928        0.02332422        0.01466727
      88         -0.535726        1.000000        0.00000883        0.00192899        0.00101395        0.00080132
      89         -0.534170        1.000000        0.00014629        0.02912453        0.02157276        0.01659033
      90         -0.531881        1.000000        0.00001718        0.00256239        0.00093077        0.00052104
      91         -0.531728        1.000000        0.00019862        0.00924696        0.00632843        0.00090039
      92         -0.531233        1.000000        0.00007711        0.00118949        0.00100860        0.00025739
      93         -0.530857        1.000000        0.00003653        0.04084479        0.01354266        0.00689875
      94         -0.530751        1.000000        0.00004947        0.00477006        0.01116585        0.00521626
      95         -0.530303        1.000000        0.00000727        0.00466982        0.00327719        0.00196598
      96         -0.530036        1.000000        0.00004434        0.00291232        0.00115154        0.00044947
      97         -0.528373        1.000000        0.00004098        0.00071483        0.00208297        0.00093422
      98         -0.526836        1.000000        0.00011084        0.05600005        0.05976151        0.03467067
      99         -0.526288        1.000000        0.00016597        0.03166853        0.09545421        0.05397913
     100         -0.525633        1.000000        0.00006347        0.03352387        0.01507880        0.01298864
     101         -0.524190        1.000000        0.00001267        0.00051431        0.00030715        0.00009398
     102         -0.521516        1.000000        0.00015864        0.26215981        0.02090112        0.00658002
     103         -0.520836        1.000000        0.00007423        0.08840343        0.01156758        0.00372709
     104         -0.519692        1.000000        0.00003156        0.02594654        0.00284292        0.00036777
     105         -0.519610        1.000000        0.00038138        0.30486217        0.04838758        0.00560452
     106         -0.513225        1.000000        0.00002109        0.29337736        0.13496209        0.08683650
     107         -0.511165        1.000000        0.00004668        0.02707753        0.16856411        0.25264679
     108         -0.505617        1.000000        0.00004044        0.19302553        0.26238081        0.03936395
     109         -0.485500        1.000000        0.00004661        0.41190676        0.14647798        0.00009555
     110         -0.481987        1.000000        0.00001453        0.00002458        0.00050491        0.00026857
     111         -0.481260        1.000000        0.00111353        0.12716523        0.34610550        0.02188339
     112         -0.478430        1.000000        0.00000032        0.00310334        0.00110086        0.00108435
     113         -0.478274        1.000000        0.00000154        0.00004495        0.00484780        0.00049987
     114         -0.475794        1.000000        0.00002029        0.01680069        0.45491615        0.04583875
     115         -0.475610        1.000000        0.00000284        0.00148441        0.03129737        0.00311274
     116         -0.475008        1.000000        0.00000050        0.00005437        0.00032159        0.00004890
     117         -0.473995        1.000000        0.00000005        0.00000020        0.00000766        0.00000110
     118         -0.471727        1.000000        0.00000006        0.00039957        0.00030653        0.00001275
     119         -0.471580        1.000000        0.00000262        0.32004870        0.24602682        0.00813286
     120         -0.471221        1.000000        0.00000108        0.00014953        0.00006895        0.00000564
     121         -0.471140        1.000000        0.00000061        0.00004302        0.00001145        0.00000357
     122         -0.469794        1.000000        0.00001532        0.00710936        0.00424955        0.00485707
     123         -0.469286        1.000000        0.00000020        0.00000339        0.00083497        0.00009326
     124         -0.467066        1.000000        0.00000018        0.00000438        0.00007119        0.00005205
     125         -0.465912        1.000000        0.00131444        0.32656234        0.01451942        0.02195277
     126         -0.465577        1.000000        0.00011626        0.03087106        0.00201639        0.00232048
     127         -0.464584        1.000000        0.00002161        0.00747681        0.00084037        0.00088985
     128         -0.463841        1.000000        0.00002315        0.04041867        0.00986178        0.00735948
     129         -0.463633        1.000000        0.00017140        0.30998966        0.07407861        0.05298816
     130         -0.461869        1.000000        0.00001548        0.00138628        0.00044072        0.00003814
     131         -0.461101        1.000000        0.00000004        0.00005903        0.00004887        0.00003155
     132         -0.460094        1.000000        0.00019100        0.01426248        0.02118702        0.00024750
     133         -0.459483        1.000000        0.00200758        0.14779391        0.22633984        0.00255657
     134         -0.457859        1.000000        0.00000033        0.00000959        0.00000073        0.00000174
     135         -0.456460        1.000000        0.00000103        0.00002709        0.00000689        0.00000179
     136         -0.454971        1.000000        0.00000138        0.00000935        0.00012941        0.00001006
     137         -0.454083        1.000000        0.00000513        0.00003992        0.00030644        0.00043349
     138         -0.452752        1.000000        0.00024756        0.00224108        0.00086244        0.00103541
     139         -0.450054        1.000000        0.00000026        0.00194177        0.00003688        0.00057792
     140         -0.448165        1.000000        0.00001927        0.00001009        0.00033810        0.00000524
     141         -0.447709        1.000000        0.00004160        0.00281211        0.00005242        0.00009937
     142         -0.446929        1.000000        0.00000730        0.00000730        0.00002829        0.00009585
     143         -0.445975        1.000000        0.00000298        0.07973810        0.02902842        0.12536854
     144         -0.441544        1.000000        0.00000084        0.00017990        0.00024570        0.00081874
     145         -0.441302        1.000000        0.00001884        0.03632385        0.05042668        0.16626510
     146         -0.439866        1.000000        0.00001837        0.00064825        0.00201687        0.00001122
     147         -0.437027        1.000000        0.00000007        0.00000150        0.00000834        0.00002471
     148         -0.433872        1.000000        0.00108121        0.03711917        0.00264794        0.00044389
     149         -0.432999        1.000000        0.00022084        0.00647027        0.01391857        0.00009265
     150         -0.432885        1.000000        0.00000446        0.00001885        0.00008732        0.00011281
     151         -0.432526        1.000000        0.00004704        0.00009976        0.00124591        0.00102503
     152         -0.431800        1.000000        0.00866085        0.01957447        0.23077963        0.18178598
     153         -0.431163        1.000000        0.00961189        0.00053824        0.15796398        0.27758677
     154         -0.428206        1.000000        0.00011533        0.00166224        0.00398980        0.00568729
     155         -0.426697        1.000000        0.00006868        0.00005977        0.00070341        0.00167549
     156         -0.423130        1.000000        0.00000209        0.00000863        0.00001631        0.00005758
     157         -0.422455        1.000000        0.00012823        0.00207801        0.00503458        0.00168920
     158         -0.419962        1.000000        0.00003769        0.00013076        0.00063870        0.00130662
     159         -0.419657        1.000000        0.00000737        0.00005028        0.00016604        0.00039870
     160         -0.419549        1.000000        0.00000521        0.00045287        0.00027675        0.00009698
     161         -0.418636        1.000000        0.00781418        0.00935818        0.08467976        0.28912501
     162         -0.417056        1.000000        0.00032686        0.00048792        0.00432658        0.01587288
     163         -0.414832        1.000000        0.00000889        0.00013813        0.00039125        0.00031215
     164         -0.412667        1.000000        0.00009476        0.00117591        0.00224700        0.01075799
     165         -0.412101        1.000000        0.00001012        0.00008500        0.00008463        0.00037261
     166         -0.411403        1.000000        0.00009627        0.00113859        0.00331530        0.01366761
     167         -0.410497        1.000000        0.00014206        0.00016248        0.00019106        0.00324306
     168         -0.408060        1.000000        0.00004935        0.00009174        0.00019714        0.00184644
     169         -0.405314        1.000000        0.00035045        0.00020484        0.00052296        0.01166357
     170         -0.402561        1.000000        0.00829739        0.00682318        0.02273379        0.37741657
     171         -0.401733        1.000000        0.00000007        0.00000143        0.00000718        0.00000699
     172         -0.396903        1.000000        0.00000158        0.00000007        0.00001417        0.00001973
     173         -0.395532        1.000000        0.00000002        0.00000037        0.00000010        0.00000116
     174         -0.395386        1.000000        0.00163875        0.01791244        0.00685349        0.00892845
     175         -0.393612        1.000000        0.00008041        0.00075049        0.00027134        0.00053285
     176         -0.393174        1.000000        0.00000024        0.00000264        0.00001737        0.00000900
     177         -0.392082        1.000000        0.00000071        0.00000516        0.00000025        0.00002557
     178         -0.389067        1.000000        0.00000007        0.00000058        0.00000370        0.00000149
     179         -0.386150        1.000000        0.00000054        0.00000142        0.00000188        0.00003064
     180         -0.384350        1.000000        0.00013815        0.00041722        0.00018818        0.00272929
     181         -0.383936        1.000000        0.00781735        0.02564619        0.04394779        0.33973483
     182         -0.378015        1.000000        0.00994958        0.00584459        0.28375737        0.12201284
     183         -0.373099        1.000000        0.00855334        0.00913012        0.00044749        0.39546532
     184         -0.371361        1.000000        0.00002444        0.03976183        0.00001172        0.00393363
     185         -0.369000        1.000000        0.00000116        0.00074956        0.00046238        0.00020069
     186         -0.368002        1.000000        0.00000217        0.00046302        0.02069620        0.02275935
     187         -0.366242        1.000000        0.00000641        0.00191217        0.02236761        0.01157376
     188         -0.365284        1.000000        0.00000206        0.03488155        0.00178434        0.00035542
     189         -0.359470        1.000000        0.00001084        0.00003290        0.00000915        0.00085051
     190         -0.356430        1.000000        0.00001154        0.00327677        0.02880945        0.00909191
     191         -0.354769        1.000000        0.00000894        0.03248044        0.00161433        0.00149473
     192         -0.351857        1.000000        0.00049818        0.00189462        0.00769271        0.00734589
     193         -0.345418        1.000000        0.00000122        0.03992044        0.01412551        0.00005153
     194         -0.342961        1.000000        0.00103395        0.00072636        0.00055445        0.02239796
     195         -0.339324        1.000000        0.00007440        0.00122133        0.00131551        0.00072344
     196         -0.331727        1.000000        0.00085122        0.00104463        0.00065694        0.00922777
     197         -0.331053        1.000000        0.00047553        0.00093290        0.00332905        0.00778992
     198         -0.330895        1.000000        0.00005234        0.00008889        0.00004180        0.00124468
     199         -0.329209        1.000000        0.00001802        0.00034405        0.04919661        0.00269267
     200         -0.323807        1.000000        0.00003643        0.00657718        0.02694740        0.00960206
     201         -0.323607        1.000000        0.00004367        0.00045660        0.00301126        0.00123358
     202         -0.317657        1.000000        0.00000031        0.00000305        0.00000175        0.00000659
     203         -0.315812        1.000000        0.00003016        0.01338807        0.02612086        0.00136840
     204         -0.315592        1.000000        0.00000728        0.00029098        0.00001423        0.00006734
     205         -0.314698        1.000000        0.00049632        0.02140347        0.00006040        0.00455593
     206         -0.310369        1.000000        0.00272948        0.01370873        0.03347776        0.01737206
     207         -0.308181        1.000000        0.00007313        0.00070543        0.00012651        0.00003292
     208         -0.306702        1.000000        0.00088686        0.02301628        0.00074660        0.00047968
     209         -0.305382        1.000000        0.00000022        0.00000253        0.00000132        0.00000009
     210         -0.303407        1.000000        0.00001393        0.00008489        0.00011950        0.00015059
     211         -0.300389        1.000000        0.00121019        0.02423535        0.01575160        0.00081174
     212         -0.299180        1.000000        0.00002824        0.00163691        0.00156788        0.00024378
     213         -0.298090        1.000000        0.00017196        0.01891806        0.00610168        0.01237533
     214         -0.291613        1.000000        0.00001273        0.00004871        0.00003090        0.00006484
     215         -0.289746        1.000000        0.00000256        0.00008836        0.00001125        0.00001927
     216         -0.289526        1.000000        0.00013661        0.00079099        0.00020193        0.00006538
     217         -0.289252        1.000000        0.00000054        0.00000540        0.00000205        0.00000200
     218         -0.280397        1.000000        0.00000078        0.00001165        0.00000121        0.00000144
     219         -0.280294        1.000000        0.00000009        0.00000367        0.00000068        0.00000050
     220         -0.277661        1.000000        0.00001193        0.00000980        0.00006491        0.00000138
     221         -0.277258        1.000000        0.00002858        0.00000014        0.00006302        0.00018339
     222         -0.275719        1.000000        0.00567526        0.07669409        0.00107206        0.02168324
     223         -0.270037        1.000000        0.00270994        0.02395757        0.01878360        0.00211660
     224         -0.269127        1.000000        0.00000357        0.00000210        0.00001372        0.00000118
     225         -0.267235        1.000000        0.00001221        0.00113457        0.00175958        0.00023530
     226         -0.262039        1.000000        0.00000583        0.00001457        0.00001175        0.00001018
     227         -0.259285        1.000000        0.01066526        0.02279206        0.05854532        0.02946444
     228         -0.252379        1.000000        0.00004183        0.00006246        0.00001817        0.00012331
     229         -0.249958        1.000000        0.00000392        0.00000678        0.00000239        0.00000451
     230         -0.247807        1.000000        0.00601811        0.00818879        0.00012125        0.02971169
     231         -0.244332        1.000000        0.00001947        0.00000824        0.00002076        0.00012015
     232         -0.243844        1.000000        0.00030291        0.00209445        0.00150049        0.00026597
     233         -0.242422        1.000000        0.00027170        0.00130814        0.00086021        0.00029840
     234         -0.241052        1.000000        0.00003293        0.00041368        0.00009014        0.00020399
     235         -0.240399        1.000000        0.00006529        0.00005316        0.00002820        0.00001428
     236         -0.240236        1.000000        0.00017231        0.00047488        0.00018951        0.00031494
     237         -0.238679        1.000000        0.00020895        0.00015954        0.00004063        0.00044688
     238         -0.237994        1.000000        0.00039924        0.00099869        0.00021517        0.00024707
     239         -0.237659        1.000000        0.00073796        0.00477140        0.00073318        0.00039009
     240         -0.236844        1.000000        0.00017813        0.00039887        0.00007668        0.00003960
     241         -0.236159        1.000000        0.00491196        0.03890152        0.00528024        0.00039326
     242         -0.235663        1.000000        0.00248669        0.01909996        0.00231911        0.00014760
     243         -0.234655        1.000000        0.00090749        0.00617517        0.00056917        0.00006075
     244         -0.233947        1.000000        0.00465990        0.03881815        0.00094378        0.01080862
     245         -0.233701        1.000000        0.00007756        0.00043424        0.00004982        0.00012834
     246         -0.233354        1.000000        0.00178672        0.00931413        0.00600627        0.00108162
     247         -0.232116        1.000000        0.00012246        0.00100105        0.00080959        0.00019160
     248         -0.231137        1.000000        0.00120486        0.00203984        0.00429460        0.00229576
     249         -0.230874        1.000000        0.00010420        0.00029161        0.00018683        0.00024043
     250         -0.230853        1.000000        0.00017462        0.00070614        0.00027463        0.00037232
     251         -0.230510        1.000000        0.00019882        0.00003484        0.00019023        0.00049348
     252         -0.229423        1.000000        0.00024124        0.00099160        0.00011156        0.00036249
     253         -0.228717        1.000000        0.00005654        0.00867544        0.00429605        0.02177794
     254         -0.227573        1.000000        0.00042791        0.00475044        0.00197261        0.00338113
     255         -0.227097        1.000000        0.00050460        0.01674553        0.00542585        0.01118827
     256         -0.226234        1.000000        0.00015301        0.00741517        0.00181687        0.00487014
     257         -0.224983        1.000000        0.00010406        0.00349045        0.00105723        0.00365552
     258         -0.224180        1.000000        0.00012076        0.00191859        0.00052803        0.00193337
     259         -0.223122        1.000000        0.00014962        0.00044677        0.00036901        0.00053594