# Projected DOS for atomic kind C at iteration step i = 0, E(Fermi) =    -0.141468 a.u.
#     MO Eigenvalue [a.u.]      Occupation                 s                py                pz                px
       1         -0.918192        1.000000        0.00000280        0.00000087        0.00000163        0.00000207
       2         -0.917876        1.000000        0.00000276        0.00000262        0.00000005        0.00000186
       3         -0.917344        1.000000        0.00000000        0.00000000        0.00000000        0.00000000
       4         -0.916851        1.000000        0.00000000        0.00000000        0.00000001        0.00000001
       5         -0.914464        1.000000        0.00000005        0.00000001        0.00000002        0.00000004
       6         -0.914308        1.000000        0.00000130        0.00000010        0.00000260        0.00000197
       7         -0.912557        1.000000        0.00000001        0.00000001        0.00000002        0.00000004
       8         -0.910367        1.000000        0.00007552        0.00000002        0.00000009        0.00007304
       9         -0.909537        1.000000        0.00000017        0.00000012        0.00000003        0.00000007
      10         -0.909168        1.000000        0.04866430        0.00008336        0.01281809        0.02343420
      11         -0.909165        1.000000        0.00877140        0.00001505        0.00231006        0.00422397
      12         -0.903193        1.000000        0.00002684        0.00000470        0.00002104        0.00000589
      13         -0.903102        1.000000        0.00000002        0.00000006        0.00000001        0.00000005
      14         -0.901871        1.000000        0.06366479        0.00194945        0.02281948        0.01958455
      15         -0.900044        1.000000        0.00000001        0.00000000        0.00000000        0.00000002
      16         -0.893526        1.000000        0.00000064        0.00000010        0.00000025        0.00000005
      17         -0.892223        1.000000        0.06143061        0.00094072        0.00934240        0.03363847
      18         -0.891581        1.000000        0.00000001        0.00000001        0.00000002        0.00000003
      19         -0.890327        1.000000        0.00000001        0.00000001        0.00000002        0.00000001
      20         -0.890057        1.000000        0.00006149        0.00000008        0.00007125        0.00017444
      21         -0.889224        1.000000        0.00000056        0.00000022        0.00000027        0.00000004
      22         -0.887748        1.000000        0.00000007        0.00000001        0.00000000        0.00000004
      23         -0.884617        1.000000        0.00000003        0.00000000        0.00000001        0.00000002
      24         -0.878914        1.000000        0.00964138        0.00002886        0.00007798        0.00698462
      25         -0.878048        1.000000        0.00000002        0.00000006        0.00000000        0.00000000
      26         -0.877926        1.000000        0.00000016        0.00000001        0.00000000        0.00000017
      27         -0.876538        1.000000        0.00002386        0.00000157        0.00000071        0.00001920
      28         -0.876408        1.000000        0.00000009        0.00000009        0.00000007        0.00000000
      29         -0.875350        1.000000        0.00000007        0.00000012        0.00000023        0.00000041
      30         -0.872721        1.000000        0.00209641        0.00000636        0.00019697        0.00145598
      31         -0.867077        1.000000        0.00000000        0.00000000        0.00000000        0.00000000
      32         -0.861112        1.000000        0.00000002        0.00000014        0.00000001        0.00000006
      33         -0.860699        1.000000        0.00417447        0.00015138        0.00001600        0.00307357
      34         -0.860048        1.000000        0.00561759        0.00030151        0.00281797        0.00127558
      35         -0.857158        1.000000        0.00002002        0.00001574        0.00005084        0.00009979
      36         -0.855056        1.000000        0.06464324        0.00038852        0.00104285        0.03755940
      37         -0.854275        1.000000        0.00024784        0.00000048        0.00008879        0.00011813
      38         -0.852600        1.000000        0.02391972        0.00029839        0.00189510        0.01383555
      39         -0.852244        1.000000        0.00000009        0.00000000        0.00000001        0.00000005
      40         -0.850713        1.000000        0.00000000        0.00000004        0.00000001        0.00000004
      41         -0.850276        1.000000        0.00002040        0.00000038        0.00000001        0.00001492
      42         -0.847795        1.000000        0.01605886        0.00032639        0.00000096        0.01095715
      43         -0.847108        1.000000        0.00000047        0.00000000        0.00000002        0.00000022
      44         -0.844849        1.000000        0.00000000        0.00000003        0.00000002        0.00000000
      45         -0.837609        1.000000        0.00000000        0.00000000        0.00000000        0.00000000
      46         -0.835024        1.000000        0.00000011        0.00000104        0.00000016        0.00000015
      47         -0.832620        1.000000        0.03703912        0.00024005        0.00003743        0.02338116
      48         -0.832323        1.000000        0.00000946        0.00000037        0.00000050        0.00000478
      49         -0.832022        1.000000        0.00000036        0.00000004        0.00000001        0.00000004
      50         -0.830278        1.000000        0.05345137        0.00139715        0.00341511        0.02517425
      51         -0.828879        1.000000        0.00000000        0.00000000        0.00000000        0.00000000
      52         -0.828641        1.000000        0.00000004        0.00000010        0.00000046        0.00000031
      53         -0.828576        1.000000        0.00000022        0.00000021        0.00000006        0.00000000
      54         -0.827445        1.000000        0.00001928        0.00000087        0.00000000        0.00001854
      55         -0.824904        1.000000        0.00000001        0.00000031        0.00000014        0.00000013
      56         -0.822765        1.000000        0.00553552        0.00003454        0.00001440        0.00388695
      57         -0.821022        1.000000        0.07512203        0.00134448        0.02790862        0.01297816
      58         -0.817674        1.000000        0.00000000        0.00000000        0.00000000        0.00000000
      59         -0.811229        1.000000        0.00838306        0.00009781        0.00001888        0.00401676
      60         -0.652591        1.000000        0.43954797        0.00002295        0.00123545        0.00074009
      61         -0.649841        1.000000        0.44234716        0.00000036        0.00029106        0.00067261
      62         -0.637972        1.000000        0.44069481        0.00010238        0.00045430        0.00102235
      63         -0.624092        1.000000        0.43472097        0.00006844        0.00034815        0.00528599
      64         -0.606437        1.000000        0.42705358        0.00068091        0.00052827        0.00638273
      65         -0.599580        1.000000        0.14178781        0.00001904        0.00009601        0.00076116
      66         -0.599408        1.000000        0.42702661        0.00015081        0.00446194        0.00280914
      67         -0.597655        1.000000        0.00103871        0.00124484        0.00001904        0.00007398
      68         -0.592518        1.000000        0.29123279        0.00008811        0.00008047        0.00349983
      69         -0.586484        1.000000        0.00004624        0.00001756        0.00003325        0.00000033
      70         -0.559482        1.000000        0.00022505        0.00012575        0.00024066        0.00023811
      71         -0.554832        1.000000        0.00011666        0.00297183        0.00013145        0.00031088
      72         -0.553983        1.000000        0.00042968        0.00038505        0.00043008        0.00016286
      73         -0.550071        1.000000        0.00023221        0.00026825        0.00014290        0.00015802
      74         -0.549165        1.000000        0.00099942        0.00255801        0.00139831        0.00290908
      75         -0.547278        1.000000        0.00048177        0.00200795        0.00450707        0.00175926
      76         -0.546648        1.000000        0.00031602        0.00045425        0.00075750        0.00050209
      77         -0.544751        1.000000        0.00041455        0.00078086        0.00213244        0.00071490
      78         -0.544579        1.000000        0.00052870        0.00417445        0.00216221        0.00039636
      79         -0.543586        1.000000        0.00004698        0.00168489        0.00010719        0.00031275
      80         -0.542248        1.000000        0.00020969        0.00053236        0.00033113        0.00032610
      81         -0.541166        1.000000        0.00012440        0.00189090        0.00377740        0.00251819
      82         -0.540697        1.000000        0.00010698        0.00439918        0.00136743        0.00047370
      83         -0.539412        1.000000        0.00011645        0.00218453        0.00134553        0.00116881
      84         -0.538881        1.000000        0.00021591        0.00143703        0.00061615        0.00113627
      85         -0.537937        1.000000        0.00012229        0.00292167        0.00527892        0.00305529
      86         -0.537612        1.000000        0.00017808        0.00251780        0.00372714        0.00166065
      87         -0.536887        1.000000        0.00010470        0.00049026        0.00327614        0.00142559
      88         -0.535711        1.000000        0.00001322        0.00024445        0.00015061        0.00003821
      89         -0.535409        1.000000        0.00004745        0.00006843        0.00005453        0.00004455
      90         -0.534605        1.000000        0.00021089        0.00218961        0.00110888        0.00065700
      91         -0.531967        1.000000        0.00015662        0.00093658        0.00057475        0.00036237
      92         -0.531483        1.000000        0.00004949        0.00323686        0.00150358        0.00028108
      93         -0.531285        1.000000        0.00000994        0.00084072        0.00064995        0.00028356
      94         -0.530836        1.000000        0.00005838        0.00047194        0.00088311        0.00052558
      95         -0.530554        1.000000        0.00008143        0.00061189        0.00006929        0.00008594
      96         -0.529203        1.000000        0.00001837        0.00007156        0.00019238        0.00006975
      97         -0.528883        1.000000        0.00009546        0.00012345        0.00007518        0.00008877
      98         -0.528666        1.000000        0.00003310        0.00165432        0.00010875        0.00017297
      99         -0.526880        1.000000        0.00018410        0.00596202        0.01484620        0.00758226
     100         -0.524681        1.000000        0.00017304        0.00606726        0.00079548        0.00109971
     101         -0.524466        1.000000        0.00000344        0.00007862        0.00002588        0.00001256
     102         -0.521962        1.000000        0.00011816        0.01780305        0.00123764        0.00039973
     103         -0.521327        1.000000        0.00003310        0.01842289        0.00199942        0.00082830
     104         -0.520329        1.000000        0.00000162        0.00338132        0.00046392        0.00016368
     105         -0.519688        1.000000        0.00017335        0.03904909        0.00446731        0.00096998
     106         -0.513230        1.000000        0.00000209        0.03069381        0.01581066        0.00843345
     107         -0.511149        1.000000        0.00005942        0.00441172        0.02532962        0.02979207
     108         -0.505581        1.000000        0.00010428        0.02323737        0.02921306        0.00630619
     109         -0.485573        1.000000        0.00001384        0.06120236        0.02175679        0.00002883
     110         -0.482012        1.000000        0.00002437        0.00007259        0.00005895        0.00018418
     111         -0.481297        1.000000        0.00001301        0.01913975        0.05390723        0.00189750
     112         -0.478432        1.000000        0.00000016        0.00043672        0.00021625        0.00012649
     113         -0.478292        1.000000        0.00000061        0.00000575        0.00066386        0.00008117
     114         -0.475798        1.000000        0.00002069        0.00266253        0.06409949        0.00670698
     115         -0.475620        1.000000        0.00000177        0.00024510        0.00471895        0.00047313
     116         -0.475044        1.000000        0.00000125        0.00001006        0.00005074        0.00001399
     117         -0.474004        1.000000        0.00000007        0.00000008        0.00000060        0.00000150
     118         -0.471724        1.000000        0.00000015        0.00006458        0.00004798        0.00000214
     119         -0.471591        1.000000        0.00000139        0.03836352        0.02976253        0.00059487
     120         -0.471223        1.000000        0.00000032        0.00001859        0.00000952        0.00000374
     121         -0.471135        1.000000        0.00000094        0.00000367        0.00000214        0.00000382
     122         -0.469833        1.000000        0.00000169        0.00091450        0.00066106        0.00061935
     123         -0.469296        1.000000        0.00000610        0.00000081        0.00014155        0.00000466
     124         -0.467073        1.000000        0.00000063        0.00001160        0.00008634        0.00003873
     125         -0.465916        1.000000        0.00025762        0.05287072        0.00143501        0.00659953
     126         -0.465588        1.000000        0.00002358        0.00522214        0.00023648        0.00070297
     127         -0.464590        1.000000        0.00000764        0.00125767        0.00017338        0.00016383
     128         -0.463859        1.000000        0.00000291        0.00675567        0.00212874        0.00108260
     129         -0.463665        1.000000        0.00003163        0.04432422        0.01297910        0.00632859
     130         -0.461875        1.000000        0.00000768        0.00022525        0.00006911        0.00000335
     131         -0.461091        1.000000        0.00000087        0.00000204        0.00000425        0.00001630
     132         -0.460103        1.000000        0.00010379        0.00246970        0.00321922        0.00007346
     133         -0.459483        1.000000        0.00099020        0.02635394        0.03527221        0.00038954
     134         -0.457867        1.000000        0.00000006        0.00000478        0.00000080        0.00000065
     135         -0.456488        1.000000        0.00000040        0.00001335        0.00000278        0.00000138
     136         -0.454979        1.000000        0.00000054        0.00000271        0.00001843        0.00000910
     137         -0.454092        1.000000        0.00000083        0.00002933        0.00038145        0.00037886
     138         -0.452768        1.000000        0.00034123        0.00056939        0.00020605        0.00189681
     139         -0.450084        1.000000        0.00000006        0.00034810        0.00000692        0.00008844
     140         -0.448184        1.000000        0.00001638        0.00002519        0.00002227        0.00016280
     141         -0.447718        1.000000        0.00001424        0.00059706        0.00004141        0.00011757
     142         -0.446930        1.000000        0.00000364        0.00000595        0.00004723        0.00000600
     143         -0.446005        1.000000        0.00005413        0.01606661        0.00697777        0.02228106
     144         -0.441557        1.000000        0.00000107        0.00006393        0.00007895        0.00018723
     145         -0.441332        1.000000        0.00007230        0.00831235        0.01287427        0.03105044
     146         -0.439875        1.000000        0.00000324        0.00006995        0.00025506        0.00000493
     147         -0.437035        1.000000        0.00000007        0.00000030        0.00000339        0.00000455
     148         -0.433885        1.000000        0.00035560        0.00944166        0.00215154        0.00259815
     149         -0.433147        1.000000        0.00000591        0.00000241        0.00003012        0.00006643
     150         -0.433004        1.000000        0.00001883        0.00081908        0.00173339        0.00006127
     151         -0.432622        1.000000        0.00009057        0.00005425        0.00076173        0.00069340
     152         -0.431807        1.000000        0.02135123        0.01276190        0.17802183        0.15141313
     153         -0.431173        1.000000        0.02577443        0.00115409        0.11524777        0.22166389
     154         -0.428231        1.000000        0.00000196        0.00049501        0.00070871        0.00168949
     155         -0.426912        1.000000        0.00014794        0.00007408        0.00086824        0.00084206
     156         -0.423189        1.000000        0.00000296        0.00000680        0.00002224        0.00002844
     157         -0.422440        1.000000        0.00015146        0.00032715        0.00112643        0.00160805
     158         -0.419910        1.000000        0.00016443        0.00025487        0.00048510        0.00197612
     159         -0.419658        1.000000        0.00001774        0.00000170        0.00004964        0.00035569
     160         -0.419243        1.000000        0.00045415        0.00103691        0.00136555        0.00530274
     161         -0.418599        1.000000        0.01933520        0.00575036        0.06522572        0.22160977
     162         -0.417478        1.000000        0.00099342        0.00056776        0.00388457        0.01165042
     163         -0.415514        1.000000        0.00010994        0.00013934        0.00037281        0.00101755
     164         -0.412725        1.000000        0.00031923        0.00011772        0.00207889        0.00420862
     165         -0.412343        1.000000        0.00000663        0.00001800        0.00004331        0.00013373
     166         -0.411374        1.000000        0.00087649        0.00014700        0.00575315        0.01098475
     167         -0.410723        1.000000        0.00013910        0.00006307        0.00049687        0.00265049
     168         -0.408270        1.000000        0.00010557        0.00013134        0.00030038        0.00162934
     169         -0.405446        1.000000        0.00035025        0.00010995        0.00014719        0.00826422
     170         -0.402594        1.000000        0.01310051        0.00018174        0.00095745        0.33152816
     171         -0.401434        1.000000        0.00000030        0.00000306        0.00000783        0.00000275
     172         -0.397838        1.000000        0.00000099        0.00000105        0.00000004        0.00002280
     173         -0.395549        1.000000        0.00000003        0.00000012        0.00000002        0.00000106
     174         -0.394849        1.000000        0.00003302        0.00122354        0.00224177        0.00485506
     175         -0.394297        1.000000        0.00000345        0.00000865        0.00005084        0.00000154
     176         -0.393579        1.000000        0.00000407        0.00009793        0.00023684        0.00061095
     177         -0.392747        1.000000        0.00000251        0.00000841        0.00000136        0.00002651
     178         -0.389076        1.000000        0.00000011        0.00000013        0.00000087        0.00000624
     179         -0.386053        1.000000        0.00000026        0.00000164        0.00000280        0.00002512
     180         -0.384491        1.000000        0.00003631        0.00000628        0.00015768        0.00207165
     181         -0.383941        1.000000        0.01126980        0.00042879        0.03486985        0.30468030
     182         -0.378030        1.000000        0.01174243        0.03035424        0.19660019        0.11802002
     183         -0.373093        1.000000        0.01532347        0.01457422        0.00011680        0.31786002
     184         -0.371367        1.000000        0.00007002        0.48635114        0.00118575        0.03117623
     185         -0.369011        1.000000        0.00000367        0.00738941        0.00486954        0.00224966
     186         -0.368008        1.000000        0.00004605        0.01032227        0.24641353        0.26021732
     187         -0.366254        1.000000        0.00001884        0.02730981        0.32321476        0.18283439
     188         -0.365292        1.000000        0.00001050        0.50474912        0.02426130        0.00458965
     189         -0.359467        1.000000        0.00002230        0.00040249        0.00002208        0.00065383
     190         -0.356432        1.000000        0.00006953        0.03657703        0.37889928        0.09638257
     191         -0.354775        1.000000        0.00000277        0.45505216        0.02193385        0.03548618
     192         -0.351881        1.000000        0.00000842        0.11306070        0.34806079        0.00063221
     193         -0.345445        1.000000        0.00001054        0.38235971        0.12668989        0.00005685
     194         -0.342970        1.000000        0.00008479        0.41980543        0.00128615        0.00071549
     195         -0.339330        1.000000        0.00046355        0.02697895        0.00733246        0.00008222
     196         -0.331705        1.000000        0.00009527        0.12488559        0.11739469        0.01332151
     197         -0.331076        1.000000        0.00001596        0.27558012        0.00323305        0.13532176
     198         -0.330896        1.000000        0.00001248        0.00478292        0.00435275        0.00153714
     199         -0.329219        1.000000        0.00005574        0.00119868        0.45164973        0.05076437
     200         -0.323822        1.000000        0.00003526        0.11582244        0.19839746        0.16986327
     201         -0.323615        1.000000        0.00000499        0.04587446        0.09000292        0.00278201
     202         -0.317820        1.000000        0.00000105        0.00000832        0.00005641        0.00010225
     203         -0.315807        1.000000        0.00014762        0.22608492        0.26667775        0.00798674
     204         -0.315604        1.000000        0.00000202        0.00068032        0.00014374        0.00007642
     205         -0.314706        1.000000        0.00000052        0.04964526        0.00096703        0.00458233
     206         -0.310379        1.000000        0.00000063        0.01215261        0.02959796        0.00861117
     207         -0.308197        1.000000        0.00000729        0.00028679        0.00009564        0.00003911
     208         -0.306725        1.000000        0.00000348        0.04388832        0.00001096        0.00003235
     209         -0.305410        1.000000        0.00000050        0.00002198        0.00000372        0.00000002
     210         -0.303412        1.000000        0.00017572        0.00303280        0.00059238        0.00008055
     211         -0.300364        1.000000        0.00000315        0.06520626        0.01687897        0.00018802
     212         -0.299179        1.000000        0.00001162        0.00498842        0.00177855        0.00063761
     213         -0.298116        1.000000        0.00000065        0.02223215        0.00532974        0.01480848
     214         -0.291572        1.000000        0.00000035        0.00006047        0.00001173        0.00001636
     215         -0.289627        1.000000        0.00000100        0.00005505        0.00001446        0.00003069
     216         -0.289542        1.000000        0.00002216        0.00014845        0.00011638        0.00003667
     217         -0.289122        1.000000        0.00000101        0.00004942        0.00000206        0.00000605
     218         -0.280776        1.000000        0.00000002        0.00000219        0.00000055        0.00000113
     219         -0.280693        1.000000        0.00000060        0.00000090        0.00000780        0.00000062
     220         -0.277650        1.000000        0.00000039        0.00000564        0.00001446        0.00000098
     221         -0.277259        1.000000        0.00009306        0.00012924        0.00001766        0.00002269
     222         -0.275729        1.000000        0.00000052        0.02565717        0.00017800        0.00648810
     223         -0.270018        1.000000        0.00001934        0.01573838        0.00714406        0.00016487
     224         -0.269388        1.000000        0.00000110        0.00000841        0.00000684        0.00000043
     225         -0.267243        1.000000        0.00001750        0.00115094        0.00066876        0.00044339
     226         -0.262199        1.000000        0.00000867        0.00001904        0.00000401        0.00001945
     227         -0.259301        1.000000        0.00000342        0.00338057        0.00856689        0.00763074
     228         -0.252396        1.000000        0.00005085        0.00022299        0.00009098        0.00006935
     229         -0.250228        1.000000        0.00000109        0.00000260        0.00000343        0.00000216
     230         -0.247827        1.000000        0.00001014        0.00190907        0.00018411        0.00801612
     231         -0.244331        1.000000        0.00008414        0.00072473        0.00001669        0.00010490
     232         -0.243848        1.000000        0.00002305        0.00094130        0.00033416        0.00002156
     233         -0.242467        1.000000        0.00002101        0.00056501        0.00026687        0.00009432
     234         -0.241285        1.000000        0.00001739        0.00022141        0.00003380        0.00010941
     235         -0.241145        1.000000        0.00001045        0.00002627        0.00003351        0.00001190
     236         -0.240349        1.000000        0.00001305        0.00013482        0.00008672        0.00034975
     237         -0.238704        1.000000        0.00001549        0.00003471        0.00003900        0.00041430
     238         -0.238271        1.000000        0.00001531        0.00049999        0.00032255        0.00008601
     239         -0.238012        1.000000        0.00000970        0.00016787        0.00020798        0.00002148
     240         -0.236889        1.000000        0.00010307        0.00035965        0.00021845        0.00006286
     241         -0.236271        1.000000        0.00001467        0.00422647        0.00137686        0.00003286
     242         -0.235759        1.000000        0.00000360        0.00440944        0.00133673        0.00006240
     243         -0.234716        1.000000        0.00001515        0.00101671        0.00029384        0.00008016
     244         -0.233959        1.000000        0.00000356        0.00379346        0.00021651        0.00204155
     245         -0.233718        1.000000        0.00000309        0.00009562        0.00003907        0.00004067
     246         -0.233280        1.000000        0.00015489        0.00451123        0.00097170        0.00011154
     247         -0.232149        1.000000        0.00000940        0.00106656        0.00051354        0.00033868
     248         -0.231157        1.000000        0.00000227        0.00014449        0.00028547        0.00052369
     249         -0.230937        1.000000        0.00003769        0.00022002        0.00014030        0.00021912
     250         -0.230816        1.000000        0.00002633        0.00012879        0.00003042        0.00075059
     251         -0.230197        1.000000        0.00002906        0.00015405        0.00007535        0.00007792
     252         -0.229351        1.000000        0.00003870        0.00014363        0.00025671        0.00040375
     253         -0.229221        1.000000        0.00000571        0.00032037        0.00020833        0.00124727
     254         -0.228140        1.000000        0.00003156        0.00024166        0.00026548        0.00069129
     255         -0.227312        1.000000        0.00027880        0.00052042        0.00048693        0.00014827
     256         -0.226901        1.000000        0.00002044        0.00407904        0.00153719        0.00283935
     257         -0.226143        1.000000        0.00011229        0.00061145        0.00029173        0.00020702
     258         -0.224831        1.000000        0.00013976        0.00067721        0.00025100        0.00025044
     259         -0.222788        1.000000        0.00014413        0.00068823        0.00009322        0.00008005