# Projected DOS for atomic kind N at iteration step i = 0, E(Fermi) =    -0.141468 a.u.
#     MO Eigenvalue [a.u.]      Occupation                 s                py                pz                px
       1         -0.918192        1.000000        0.00003998        0.00000332        0.00000000        0.00000474
       2         -0.917876        1.000000        0.00001696        0.00000015        0.00000019        0.00000001
       3         -0.917344        1.000000        0.00000001        0.00000000        0.00000000        0.00000000
       4         -0.916851        1.000000        0.00000000        0.00000000        0.00000000        0.00000000
       5         -0.914464        1.000000        0.00000040        0.00000001        0.00000000        0.00000000
       6         -0.914308        1.000000        0.00000125        0.00000000        0.00000001        0.00000004
       7         -0.912557        1.000000        0.00000001        0.00000000        0.00000000        0.00000000
       8         -0.910367        1.000000        0.00092515        0.00000725        0.00001821        0.00002262
       9         -0.909537        1.000000        0.00000126        0.00000001        0.00000000        0.00000000
      10         -0.909168        1.000000        0.52207281        0.00005269        0.00003583        0.00016693
      11         -0.909165        1.000000        0.09409924        0.00001063        0.00000651        0.00003040
      12         -0.903193        1.000000        0.00034767        0.00003514        0.00000991        0.00000144
      13         -0.903102        1.000000        0.00000002        0.00000000        0.00000000        0.00000000
      14         -0.901871        1.000000        0.61051471        0.00001609        0.00002836        0.00002497
      15         -0.900044        1.000000        0.00000018        0.00000000        0.00000002        0.00000004
      16         -0.893526        1.000000        0.00000432        0.00000000        0.00000000        0.00000000
      17         -0.892223        1.000000        0.61113131        0.00000080        0.00000452        0.00004877
      18         -0.891581        1.000000        0.00000005        0.00000001        0.00000002        0.00000001
      19         -0.890327        1.000000        0.00000012        0.00000000        0.00000000        0.00000000
      20         -0.890057        1.000000        0.00111243        0.00000001        0.00000023        0.00000099
      21         -0.889224        1.000000        0.00000655        0.00000008        0.00000001        0.00000001
      22         -0.887748        1.000000        0.00000079        0.00000001        0.00000000        0.00000000
      23         -0.884617        1.000000        0.00000029        0.00000000        0.00000000        0.00000000
      24         -0.878914        1.000000        0.09305563        0.00001653        0.00008651        0.00018107
      25         -0.878048        1.000000        0.00000006        0.00000000        0.00000000        0.00000000
      26         -0.877926        1.000000        0.00000193        0.00000000        0.00000008        0.00000016
      27         -0.876538        1.000000        0.00024369        0.00000228        0.00000227        0.00000030
      28         -0.876408        1.000000        0.00000125        0.00000005        0.00000000        0.00000001
      29         -0.875350        1.000000        0.00000001        0.00000000        0.00000000        0.00000000
      30         -0.872721        1.000000        0.02012848        0.00012724        0.00001236        0.00003943
      31         -0.867077        1.000000        0.00000000        0.00000000        0.00000000        0.00000000
      32         -0.861112        1.000000        0.00000001        0.00000000        0.00000000        0.00000000
      33         -0.860699        1.000000        0.04030913        0.00006852        0.00004599        0.00002118
      34         -0.860048        1.000000        0.05601936        0.00057850        0.00015319        0.00001397
      35         -0.857158        1.000000        0.00001229        0.00000000        0.00000062        0.00000182
      36         -0.855056        1.000000        0.50743750        0.00097728        0.00189516        0.00070567
      37         -0.854275        1.000000        0.00262817        0.00010169        0.00004064        0.00066194
      38         -0.852600        1.000000        0.19984385        0.00004658        0.00000539        0.00000720
      39         -0.852244        1.000000        0.00000078        0.00000000        0.00000000        0.00000000
      40         -0.850713        1.000000        0.00000007        0.00000000        0.00000000        0.00000000
      41         -0.850276        1.000000        0.00019427        0.00000003        0.00000093        0.00000081
      42         -0.847795        1.000000        0.14552744        0.00000701        0.00003358        0.00001750
      43         -0.847108        1.000000        0.00000368        0.00000000        0.00000007        0.00000004
      44         -0.844849        1.000000        0.00000001        0.00000002        0.00000001        0.00000000
      45         -0.837609        1.000000        0.00000000        0.00000000        0.00000000        0.00000000
      46         -0.835024        1.000000        0.00000304        0.00000093        0.00000004        0.00000014
      47         -0.832620        1.000000        0.30976379        0.00143752        0.00152759        0.00000469
      48         -0.832323        1.000000        0.00006761        0.00000156        0.00000008        0.00000015
      49         -0.832022        1.000000        0.00000209        0.00000001        0.00000002        0.00000000
      50         -0.830278        1.000000        0.37432446        0.00589846        0.00014695        0.00159882
      51         -0.828879        1.000000        0.00000003        0.00000000        0.00000000        0.00000000
      52         -0.828641        1.000000        0.00000003        0.00000000        0.00000000        0.00000002
      53         -0.828576        1.000000        0.00000057        0.00000000        0.00000000        0.00000000
      54         -0.827445        1.000000        0.00020075        0.00000198        0.00000100        0.00000011
      55         -0.824904        1.000000        0.00000009        0.00000000        0.00000000        0.00000000
      56         -0.822765        1.000000        0.04954179        0.00069320        0.00042813        0.00000112
      57         -0.821022        1.000000        0.53848575        0.00164925        0.00002429        0.00030713
      58         -0.817674        1.000000        0.00000000        0.00000000        0.00000000        0.00000000
      59         -0.811229        1.000000        0.05347046        0.00129492        0.00134699        0.00014343
      60         -0.652591        1.000000        0.01819521        0.00712765        0.09726617        0.08345768
      61         -0.649841        1.000000        0.01492078        0.00036459        0.06734146        0.12956768
      62         -0.637972        1.000000        0.01734422        0.00427666        0.04180678        0.14449953
      63         -0.624092        1.000000        0.02509892        0.00292485        0.00769664        0.15516798
      64         -0.606437        1.000000        0.02868899        0.01573287        0.01708345        0.12773643
      65         -0.599580        1.000000        0.00470533        0.00010547        0.00181726        0.06317045
      66         -0.599408        1.000000        0.02895285        0.00301043        0.10501570        0.05122947
      67         -0.597655        1.000000        0.00029817        0.00636130        0.00034150        0.00063994
      68         -0.592518        1.000000        0.01809585        0.00018875        0.00095946        0.10848738
      69         -0.586484        1.000000        0.00000098        0.00001034        0.00000035        0.00003306
      70         -0.559482        1.000000        0.00007712        0.00055346        0.00206290        0.00078625
      71         -0.554832        1.000000        0.00020238        0.02560387        0.00121294        0.00188428
      72         -0.553983        1.000000        0.00017870        0.00317469        0.00200654        0.00165778
      73         -0.550071        1.000000        0.00030479        0.00293684        0.00105211        0.00077369
      74         -0.549165        1.000000        0.00059981        0.03052074        0.01430051        0.02108146
      75         -0.547278        1.000000        0.00013238        0.01965551        0.03504281        0.01895934
      76         -0.546648        1.000000        0.00046754        0.00526249        0.00627666        0.00203635
      77         -0.544751        1.000000        0.00042072        0.01024480        0.01555559        0.01012138
      78         -0.544579        1.000000        0.00031361        0.04749403        0.01243219        0.00733921
      79         -0.543586        1.000000        0.00007243        0.01716157        0.00121755        0.00329113
      80         -0.542248        1.000000        0.00020713        0.00449296        0.00347988        0.00059528
      81         -0.541166        1.000000        0.00016765        0.01917019        0.03453089        0.01865508
      82         -0.540697        1.000000        0.00000896        0.05047455        0.00954388        0.00301456
      83         -0.539412        1.000000        0.00030501        0.02508418        0.01632586        0.01205227
      84         -0.538881        1.000000        0.00042183        0.01946238        0.00826827        0.00668432
      85         -0.537937        1.000000        0.00012840        0.02729401        0.05188843        0.02742325
      86         -0.537612        1.000000        0.00024709        0.02608059        0.02785809        0.01521756
      87         -0.536887        1.000000        0.00011941        0.00752713        0.02689389        0.01793636
      88         -0.535711        1.000000        0.00001721        0.00189520        0.00051703        0.00044252
      89         -0.535409        1.000000        0.00005314        0.00064386        0.00052325        0.00033275
      90         -0.534605        1.000000        0.00012824        0.02277214        0.01024444        0.00911486
      91         -0.531967        1.000000        0.00018397        0.00980848        0.00958520        0.00212281
      92         -0.531483        1.000000        0.00004132        0.03434327        0.01075142        0.00550901
      93         -0.531285        1.000000        0.00002143        0.00811867        0.00583023        0.00336519
      94         -0.530836        1.000000        0.00005213        0.00474977        0.01055166        0.00444714
      95         -0.530554        1.000000        0.00003055        0.00496205        0.00035441        0.00053417
      96         -0.529203        1.000000        0.00002381        0.00071455        0.00155177        0.00069091
      97         -0.528883        1.000000        0.00002886        0.00089840        0.00051551        0.00025563
      98         -0.528666        1.000000        0.00007471        0.01702747        0.00186125        0.00106165
      99         -0.526880        1.000000        0.00015070        0.05677007        0.17537423        0.10059680
     100         -0.524681        1.000000        0.00005177        0.05567354        0.00660998        0.00923425
     101         -0.524466        1.000000        0.00001180        0.00048855        0.00027288        0.00008379
     102         -0.521962        1.000000        0.00009283        0.16918076        0.01118032        0.00339178
     103         -0.521327        1.000000        0.00011872        0.17191425        0.02040833        0.00692982
     104         -0.520329        1.000000        0.00002885        0.03122708        0.00413978        0.00137064
     105         -0.519688        1.000000        0.00040719        0.31426454        0.05282182        0.00601878
     106         -0.513230        1.000000        0.00002026        0.29134887        0.13672030        0.08726943
     107         -0.511149        1.000000        0.00005125        0.02831935        0.16618252        0.25144681
     108         -0.505581        1.000000        0.00004263        0.19347313        0.26090946        0.03890696
     109         -0.485573        1.000000        0.00005144        0.41607629        0.14376514        0.00008919
     110         -0.482012        1.000000        0.00001426        0.00002356        0.00049406        0.00026295
     111         -0.481297        1.000000        0.00111780        0.12472696        0.34887339        0.02187903
     112         -0.478432        1.000000        0.00000031        0.00312006        0.00110724        0.00109029
     113         -0.478292        1.000000        0.00000153        0.00004251        0.00476164        0.00049101
     114         -0.475798        1.000000        0.00002015        0.01673528        0.45300368        0.04564180
     115         -0.475620        1.000000        0.00000293        0.00156037        0.03328477        0.00331180
     116         -0.475044        1.000000        0.00000049        0.00005359        0.00032949        0.00004914
     117         -0.474004        1.000000        0.00000005        0.00000019        0.00000764        0.00000109
     118         -0.471724        1.000000        0.00000006        0.00050540        0.00038877        0.00001557
     119         -0.471591        1.000000        0.00000261        0.31975308        0.24619673        0.00812902
     120         -0.471223        1.000000        0.00000125        0.00016194        0.00007159        0.00000627
     121         -0.471135        1.000000        0.00000045        0.00002867        0.00000750        0.00000290
     122         -0.469833        1.000000        0.00001511        0.00699591        0.00420136        0.00481018
     123         -0.469296        1.000000        0.00000019        0.00000336        0.00083351        0.00009330
     124         -0.467073        1.000000        0.00000018        0.00000439        0.00007123        0.00005210
     125         -0.465916        1.000000        0.00130856        0.32519387        0.01447050        0.02186719
     126         -0.465588        1.000000        0.00012126        0.03216317        0.00208436        0.00241257
     127         -0.464590        1.000000        0.00002190        0.00779268        0.00091189        0.00094724
     128         -0.463859        1.000000        0.00002660        0.04654271        0.01134653        0.00844103
     129         -0.463665        1.000000        0.00016815        0.30381111        0.07264685        0.05195051
     130         -0.461875        1.000000        0.00001541        0.00138211        0.00043535        0.00003807
     131         -0.461091        1.000000        0.00000004        0.00005654        0.00004774        0.00003088
     132         -0.460103        1.000000        0.00018484        0.01382495        0.02045157        0.00024039
     133         -0.459483        1.000000        0.00201690        0.14871817        0.22695581        0.00257634
     134         -0.457867        1.000000        0.00000033        0.00000957        0.00000073        0.00000174
     135         -0.456488        1.000000        0.00000100        0.00002599        0.00000670        0.00000181
     136         -0.454979        1.000000        0.00000139        0.00000942        0.00013090        0.00001013
     137         -0.454092        1.000000        0.00000512        0.00003984        0.00030619        0.00043338
     138         -0.452768        1.000000        0.00024758        0.00223659        0.00086083        0.00103695
     139         -0.450084        1.000000        0.00000025        0.00189642        0.00003625        0.00056694
     140         -0.448184        1.000000        0.00001910        0.00001024        0.00033548        0.00000508
     141         -0.447718        1.000000        0.00004165        0.00281643        0.00005267        0.00010056
     142         -0.446930        1.000000        0.00000728        0.00000772        0.00002835        0.00009619
     143         -0.446005        1.000000        0.00000294        0.07967367        0.02885564        0.12479311
     144         -0.441557        1.000000        0.00000085        0.00021193        0.00029035        0.00096719
     145         -0.441332        1.000000        0.00001881        0.03645261        0.05053757        0.16667097
     146         -0.439875        1.000000        0.00001822        0.00064272        0.00200758        0.00001117
     147         -0.437035        1.000000        0.00000007        0.00000155        0.00000878        0.00002596
     148         -0.433885        1.000000        0.00108091        0.03712375        0.00265077        0.00044333
     149         -0.433147        1.000000        0.00000294        0.00001264        0.00005542        0.00007528
     150         -0.433004        1.000000        0.00021984        0.00642862        0.01387897        0.00009735
     151         -0.432622        1.000000        0.00003728        0.00007938        0.00098997        0.00081511
     152         -0.431807        1.000000        0.00867269        0.01960791        0.23111198        0.18199980
     153         -0.431173        1.000000        0.00961566        0.00053655        0.15795971        0.27757231
     154         -0.428231        1.000000        0.00011526        0.00165973        0.00399216        0.00569242
     155         -0.426912        1.000000        0.00006561        0.00005930        0.00071893        0.00161990
     156         -0.423189        1.000000        0.00000172        0.00000621        0.00001207        0.00004915
     157         -0.422440        1.000000        0.00012713        0.00205372        0.00501839        0.00165183
     158         -0.419910        1.000000        0.00007319        0.00006293        0.00096135        0.00242269
     159         -0.419658        1.000000        0.00000829        0.00000235        0.00012518        0.00040945
     160         -0.419243        1.000000        0.00018695        0.00020788        0.00243830        0.00702969
     161         -0.418599        1.000000        0.00758073        0.00986784        0.08202691        0.28130094
     162         -0.417478        1.000000        0.00035286        0.00041376        0.00432898        0.01625905
     163         -0.415514        1.000000        0.00002288        0.00015433        0.00086183        0.00114636
     164         -0.412725        1.000000        0.00005670        0.00071910        0.00129545        0.00636316
     165         -0.412343        1.000000        0.00000482        0.00005255        0.00003526        0.00015890
     166         -0.411374        1.000000        0.00011629        0.00146046        0.00385946        0.01644984
     167         -0.410723        1.000000        0.00013147        0.00020545        0.00029757        0.00343493
     168         -0.408270        1.000000        0.00005849        0.00010021        0.00022873        0.00211385
     169         -0.405446        1.000000        0.00029614        0.00018191        0.00043087        0.00973696
     170         -0.402594        1.000000        0.00835315        0.00682895        0.02282333        0.37937933
     171         -0.401434        1.000000        0.00000006        0.00000139        0.00000711        0.00000626
     172         -0.397838        1.000000        0.00000144        0.00000002        0.00001342        0.00001668
     173         -0.395549        1.000000        0.00000001        0.00000027        0.00000006        0.00000113
     174         -0.394849        1.000000        0.00158420        0.01680431        0.00651608        0.00879663
     175         -0.394297        1.000000        0.00000029        0.00000254        0.00001763        0.00001021
     176         -0.393579        1.000000        0.00016613        0.00157246        0.00058545        0.00106441
     177         -0.392747        1.000000        0.00000080        0.00000537        0.00000033        0.00002922
     178         -0.389076        1.000000        0.00000007        0.00000059        0.00000370        0.00000149
     179         -0.386053        1.000000        0.00000056        0.00000145        0.00000189        0.00003147
     180         -0.384491        1.000000        0.00014766        0.00046548        0.00019773        0.00275606
     181         -0.383941        1.000000        0.00781951        0.02566085        0.04396271        0.33985611
     182         -0.378030        1.000000        0.00995115        0.00584668        0.28374730        0.12201266
     183         -0.373093        1.000000        0.00851231        0.00925039        0.00043081        0.39493879
     184         -0.371367        1.000000        0.00002457        0.03975972        0.00001179        0.00394178
     185         -0.369011        1.000000        0.00000116        0.00075119        0.00045950        0.00019855
     186         -0.368008        1.000000        0.00000218        0.00046206        0.02069876        0.02275931
     187         -0.366254        1.000000        0.00000640        0.00193424        0.02235477        0.01156879
     188         -0.365292        1.000000        0.00000205        0.03485173        0.00180020        0.00036018
     189         -0.359467        1.000000        0.00001080        0.00003288        0.00000914        0.00084912
     190         -0.356432        1.000000        0.00001153        0.00324876        0.02881854        0.00911178
     191         -0.354775        1.000000        0.00000900        0.03251707        0.00159488        0.00148489
     192         -0.351881        1.000000        0.00049796        0.00188558        0.00771083        0.00734431
     193         -0.345445        1.000000        0.00000119        0.03993378        0.01411791        0.00005203
     194         -0.342970        1.000000        0.00103429        0.00072517        0.00055187        0.02240103
     195         -0.339330        1.000000        0.00007437        0.00122265        0.00131572        0.00072328
     196         -0.331705        1.000000        0.00084528        0.00102729        0.00063881        0.00914989
     197         -0.331076        1.000000        0.00047540        0.00093092        0.00333089        0.00779842
     198         -0.330896        1.000000        0.00005447        0.00009095        0.00004204        0.00128095
     199         -0.329219        1.000000        0.00001810        0.00034456        0.04920547        0.00268930
     200         -0.323822        1.000000        0.00003647        0.00657629        0.02695282        0.00959473
     201         -0.323615        1.000000        0.00004402        0.00044904        0.00302353        0.00123715
     202         -0.317820        1.000000        0.00000030        0.00000293        0.00000167        0.00000676
     203         -0.315807        1.000000        0.00003080        0.01335745        0.02614316        0.00138281
     204         -0.315604        1.000000        0.00000723        0.00029035        0.00001646        0.00006711
     205         -0.314706        1.000000        0.00049625        0.02140940        0.00006196        0.00455781
     206         -0.310379        1.000000        0.00273126        0.01370647        0.03347974        0.01737846
     207         -0.308197        1.000000        0.00007335        0.00070899        0.00012690        0.00003297
     208         -0.306725        1.000000        0.00088792        0.02308633        0.00075541        0.00046962
     209         -0.305410        1.000000        0.00000022        0.00000254        0.00000133        0.00000009
     210         -0.303412        1.000000        0.00001393        0.00008473        0.00011940        0.00015051
     211         -0.300364        1.000000        0.00120621        0.02411547        0.01565222        0.00081275
     212         -0.299179        1.000000        0.00002928        0.00168792        0.00160604        0.00024080
     213         -0.298116        1.000000        0.00016989        0.01881936        0.00609006        0.01238784
     214         -0.291572        1.000000        0.00001278        0.00004842        0.00003052        0.00006522
     215         -0.289627        1.000000        0.00000381        0.00008894        0.00001158        0.00001910
     216         -0.289542        1.000000        0.00013542        0.00078949        0.00020116        0.00006487
     217         -0.289122        1.000000        0.00000030        0.00000358        0.00000182        0.00000180
     218         -0.280776        1.000000        0.00000010        0.00000415        0.00000072        0.00000057
     219         -0.280693        1.000000        0.00000075        0.00001085        0.00000125        0.00000134
     220         -0.277650        1.000000        0.00001201        0.00000985        0.00006510        0.00000142
     221         -0.277259        1.000000        0.00002852        0.00000014        0.00006312        0.00018344
     222         -0.275729        1.000000        0.00567341        0.07667644        0.00107138        0.02167923
     223         -0.270018        1.000000        0.00271394        0.02394240        0.01877669        0.00212760
     224         -0.269388        1.000000        0.00000380        0.00000209        0.00001486        0.00000120
     225         -0.267243        1.000000        0.00001300        0.00117029        0.00180155        0.00023118
     226         -0.262199        1.000000        0.00000547        0.00001346        0.00001123        0.00000951
     227         -0.259301        1.000000        0.01067218        0.02275846        0.05852475        0.02947094
     228         -0.252396        1.000000        0.00004221        0.00006271        0.00001828        0.00012570
     229         -0.250228        1.000000        0.00000382        0.00000672        0.00000233        0.00000447
     230         -0.247827        1.000000        0.00603033        0.00819379        0.00011868        0.02971796
     231         -0.244331        1.000000        0.00001937        0.00000736        0.00002050        0.00012048
     232         -0.243848        1.000000        0.00030012        0.00205491        0.00147360        0.00026620
     233         -0.242467        1.000000        0.00027337        0.00138179        0.00090703        0.00029952
     234         -0.241285        1.000000        0.00002586        0.00044204        0.00011872        0.00015637
     235         -0.241145        1.000000        0.00003915        0.00003037        0.00001050        0.00000880
     236         -0.240349        1.000000        0.00018924        0.00033426        0.00016586        0.00036643
     237         -0.238704        1.000000        0.00023331        0.00026332        0.00005972        0.00044472
     238         -0.238271        1.000000        0.00058390        0.00317638        0.00057403        0.00037324
     239         -0.238012        1.000000        0.00045434        0.00213625        0.00034642        0.00023953
     240         -0.236889        1.000000        0.00019721        0.00048158        0.00008421        0.00004509
     241         -0.236271        1.000000        0.00351757        0.02811980        0.00390548        0.00031906
     242         -0.235759        1.000000        0.00388238        0.02991729        0.00369732        0.00022128
     243         -0.234716        1.000000        0.00094629        0.00633919        0.00060333        0.00006833
     244         -0.233959        1.000000        0.00466210        0.03882226        0.00094117        0.01082277
     245         -0.233718        1.000000        0.00006678        0.00036013        0.00003638        0.00010815
     246         -0.233280        1.000000        0.00184685        0.00938039        0.00609830        0.00115586
     247         -0.232149        1.000000        0.00012094        0.00126875        0.00099551        0.00015390
     248         -0.231157        1.000000        0.00118657        0.00202113        0.00416872        0.00226634
     249         -0.230937        1.000000        0.00017740        0.00078274        0.00036034        0.00054000
     250         -0.230816        1.000000        0.00020787        0.00021870        0.00035522        0.00057092
     251         -0.230197        1.000000        0.00007348        0.00014165        0.00009253        0.00013707
     252         -0.229351        1.000000        0.00009371        0.00144328        0.00087450        0.00347944
     253         -0.229221        1.000000        0.00016738        0.00449024        0.00181695        0.00886468
     254         -0.228140        1.000000        0.00027241        0.00092219        0.00045366        0.00375801
     255         -0.227312        1.000000        0.00035721        0.00107528        0.00036917        0.00033777
     256         -0.226901        1.000000        0.00056033        0.03399940        0.01106944        0.02843440
     257         -0.226143        1.000000        0.00004265        0.00073614        0.00038004        0.00126849
     258         -0.224831        1.000000        0.00015988        0.00051773        0.00025568        0.00060483
     259         -0.222788        1.000000        0.00010998        0.00050661        0.00044833        0.00021621