# Projected DOS for atomic kind O at iteration step i = 0, E(Fermi) =    -0.141468 a.u.
#     MO Eigenvalue [a.u.]      Occupation                 s                py                pz                px
       1         -0.918192        1.000000        0.70424672        0.01552676        0.02615743        0.00073379
       2         -0.917876        1.000000        0.71280810        0.00172448        0.00374000        0.02629613
       3         -0.917344        1.000000        0.71428365        0.00693378        0.00111915        0.01507015
       4         -0.916851        1.000000        0.70720385        0.02212153        0.01160679        0.00406360
       5         -0.914464        1.000000        0.71203665        0.01729204        0.01022722        0.00032520
       6         -0.914308        1.000000        0.70845780        0.00233506        0.00210588        0.02255747
       7         -0.912557        1.000000        0.70811733        0.01105715        0.00440129        0.02243651
       8         -0.910367        1.000000        0.70828450        0.00168928        0.02704050        0.00608604
       9         -0.909537        1.000000        0.71290096        0.00243562        0.01420136        0.01131158
      10         -0.909168        1.000000        0.10828820        0.00030826        0.00008334        0.00496447
      11         -0.909165        1.000000        0.60089445        0.00171049        0.00046240        0.02754833
      12         -0.903193        1.000000        0.71312586        0.00240895        0.01765197        0.00996395
      13         -0.903102        1.000000        0.70349767        0.02312717        0.00431363        0.01477750
      14         -0.901871        1.000000        0.00003640        0.00000036        0.00000107        0.00000130
      15         -0.900044        1.000000        0.72556347        0.00442595        0.00294712        0.01059190
      16         -0.893526        1.000000        0.70550112        0.03445154        0.00008105        0.00539901
      17         -0.892223        1.000000        0.00136454        0.00001176        0.00000241        0.00002622
      18         -0.891581        1.000000        0.70351245        0.02967955        0.00891177        0.00270087
      19         -0.890327        1.000000        0.70595136        0.02370656        0.00045374        0.01334920
      20         -0.890057        1.000000        0.72693215        0.00677753        0.00318342        0.01876225
      21         -0.889224        1.000000        0.72394137        0.01335628        0.01559469        0.00229387
      22         -0.887748        1.000000        0.70848501        0.02577357        0.00046690        0.01071513
      23         -0.884617        1.000000        0.70746957        0.01493159        0.00553661        0.01750670
      24         -0.878914        1.000000        0.61389238        0.00912264        0.00927631        0.00395701
      25         -0.878048        1.000000        0.70313444        0.00894632        0.03023291        0.00239510
      26         -0.877926        1.000000        0.74781543        0.01375142        0.00276806        0.01283446
      27         -0.876538        1.000000        0.71820843        0.00398318        0.01226699        0.00637119
      28         -0.876408        1.000000        0.73364086        0.01256427        0.00908444        0.00811556
      29         -0.875350        1.000000        0.69602949        0.01448777        0.00114968        0.03396193
      30         -0.872721        1.000000        0.69621182        0.00833539        0.00271138        0.00781706
      31         -0.867077        1.000000        0.72815312        0.00118515        0.04229325        0.00289210
      32         -0.861112        1.000000        0.69220672        0.00636975        0.04397206        0.00006812
      33         -0.860699        1.000000        0.66649896        0.00303927        0.00674485        0.00484943
      34         -0.860048        1.000000        0.65313689        0.01058183        0.00946077        0.00564957
      35         -0.857158        1.000000        0.75593448        0.01311157        0.00332083        0.02435697
      36         -0.855056        1.000000        0.11805547        0.00410071        0.00473372        0.00242338
      37         -0.854275        1.000000        0.71412187        0.01450849        0.00964174        0.01175932
      38         -0.852600        1.000000        0.48957196        0.00713699        0.00711088        0.00474659
      39         -0.852244        1.000000        0.72608717        0.03921663        0.00635581        0.00161940
      40         -0.850713        1.000000        0.71062811        0.03726589        0.00225971        0.00957167
      41         -0.850276        1.000000        0.77369182        0.00364404        0.00412671        0.02877402
      42         -0.847795        1.000000        0.55276300        0.00375473        0.00851705        0.00766808
      43         -0.847108        1.000000        0.69196377        0.04963034        0.00050109        0.00024797
      44         -0.844849        1.000000        0.72123454        0.01110275        0.00020543        0.03410299
      45         -0.837609        1.000000        0.69205981        0.02624713        0.02135290        0.00275425
      46         -0.835024        1.000000        0.77598944        0.02764867        0.00635622        0.00766058
      47         -0.832620        1.000000        0.36401869        0.00386903        0.00713999        0.00622749
      48         -0.832323        1.000000        0.70380802        0.00197128        0.04219532        0.00472470
      49         -0.832022        1.000000        0.69589778        0.04595596        0.00047097        0.00140952
      50         -0.830278        1.000000        0.28303723        0.00993305        0.00573703        0.00154385
      51         -0.828879        1.000000        0.69363820        0.02602313        0.02379807        0.00000634
      52         -0.828641        1.000000        0.71259923        0.03713877        0.00215354        0.00857709
      53         -0.828576        1.000000        0.70199049        0.01818880        0.00223158        0.02846931
      54         -0.827445        1.000000        0.70137224        0.03939179        0.00908654        0.00012145
      55         -0.824904        1.000000        0.70748349        0.03550345        0.00329782        0.00924255
      56         -0.822765        1.000000        0.65827503        0.01207094        0.01971928        0.00661574
      57         -0.821022        1.000000        0.07636597        0.00639514        0.00226200        0.00298833
      58         -0.817674        1.000000        0.71402430        0.03860406        0.00032211        0.00944255
      59         -0.811229        1.000000        0.69403245        0.00811927        0.00982110        0.01839140
      60         -0.652591        1.000000        0.00000102        0.00000315        0.00000111        0.00000388
      61         -0.649841        1.000000        0.00000001        0.00000003        0.00000003        0.00000003
      62         -0.637972        1.000000        0.00003052        0.00005328        0.00013644        0.00045577
      63         -0.624092        1.000000        0.00013199        0.00054589        0.00127419        0.00026300
      64         -0.606437        1.000000        0.00025249        0.00175445        0.00006224        0.00006244
      65         -0.599580        1.000000        0.00185539        0.01147425        0.00270834        0.00038982
      66         -0.599408        1.000000        0.00034178        0.00206669        0.00020897        0.00139473
      67         -0.597655        1.000000        0.00577769        0.00173160        0.01135278        0.00691896
      68         -0.592518        1.000000        0.00112368        0.00678005        0.00182480        0.00018722
      69         -0.586484        1.000000        0.00123759        0.00287000        0.00363353        0.00609434
      70         -0.559482        1.000000        0.00011618        0.00009820        0.00086206        0.00032161
      71         -0.554832        1.000000        0.00025681        0.00059179        0.00033273        0.00057466
      72         -0.553983        1.000000        0.00067183        0.00529671        0.00153529        0.00035010
      73         -0.550071        1.000000        0.00029552        0.00047118        0.00028242        0.00043335
      74         -0.549165        1.000000        0.00008055        0.00027714        0.00010472        0.00010276
      75         -0.547278        1.000000        0.00028171        0.00047910        0.00100766        0.00054852
      76         -0.546648        1.000000        0.00051754        0.00115717        0.00096163        0.00139058
      77         -0.544751        1.000000        0.00056678        0.00109579        0.00348609        0.00086192
      78         -0.544579        1.000000        0.00035304        0.00046072        0.00195651        0.00061641
      79         -0.543586        1.000000        0.00081939        0.00329201        0.00115214        0.00227757
      80         -0.542248        1.000000        0.00027315        0.00104567        0.00087563        0.00075172
      81         -0.541166        1.000000        0.00034397        0.00112710        0.00115399        0.00144577
      82         -0.540697        1.000000        0.00078098        0.00143343        0.00261078        0.00177467
      83         -0.539412        1.000000        0.00027922        0.00106569        0.00070883        0.00118504
      84         -0.538881        1.000000        0.00023208        0.00119069        0.00058411        0.00063618
      85         -0.537937        1.000000        0.00042435        0.00109474        0.00294084        0.00102863
      86         -0.537612        1.000000        0.00049979        0.00135360        0.00473394        0.00215049
      87         -0.536887        1.000000        0.00050267        0.00356799        0.00114528        0.00108332
      88         -0.535711        1.000000        0.00071174        0.00125996        0.00244569        0.00444251
      89         -0.535409        1.000000        0.00026821        0.00073022        0.00075599        0.00200100
      90         -0.534605        1.000000        0.00021592        0.00028674        0.00060856        0.00073462
      91         -0.531967        1.000000        0.00050314        0.00580198        0.00195977        0.00168461
      92         -0.531483        1.000000        0.00041364        0.00229806        0.00694401        0.00132790
      93         -0.531285        1.000000        0.00053323        0.00050709        0.00076852        0.00319342
      94         -0.530836        1.000000        0.00014715        0.00062763        0.00040850        0.00064874
      95         -0.530554        1.000000        0.00022165        0.00029458        0.00057091        0.00092716
      96         -0.529203        1.000000        0.00104319        0.00501076        0.00424106        0.00510161
      97         -0.528883        1.000000        0.00040418        0.00325537        0.00174764        0.00305488
      98         -0.528666        1.000000        0.00064895        0.00209929        0.00241260        0.00196855
      99         -0.526880        1.000000        0.00007350        0.00026325        0.00054002        0.00040825
     100         -0.524681        1.000000        0.00038635        0.00009748        0.00033740        0.00131495
     101         -0.524466        1.000000        0.00057755        0.00973108        0.00233863        0.00477463
     102         -0.521962        1.000000        0.00026762        0.00214508        0.00673360        0.00142242
     103         -0.521327        1.000000        0.00012753        0.00095439        0.00247977        0.00046068
     104         -0.520329        1.000000        0.00051543        0.00118794        0.00209593        0.00088413
     105         -0.519688        1.000000        0.00017531        0.00005917        0.00460317        0.00084989
     106         -0.513230        1.000000        0.00002891        0.00007527        0.00019723        0.00012441
     107         -0.511149        1.000000        0.00007281        0.00003989        0.00383420        0.00061718
     108         -0.505581        1.000000        0.00001863        0.00004541        0.00011567        0.00018319
     109         -0.485573        1.000000        0.00000094        0.00054040        0.00117604        0.00056620
     110         -0.482012        1.000000        0.00113613        0.01321297        0.55134124        0.05331238
     111         -0.481297        1.000000        0.00086657        0.02162513        0.04799086        0.02557168
     112         -0.478432        1.000000        0.00022572        0.19438799        0.15243431        0.28566957
     113         -0.478292        1.000000        0.00243404        0.28074050        0.04643638        0.29314949
     114         -0.475798        1.000000        0.00023273        0.02620102        0.01075134        0.02967720
     115         -0.475620        1.000000        0.00223948        0.20552653        0.09593279        0.30418545
     116         -0.475044        1.000000        0.00233933        0.29854411        0.23738585        0.08477437
     117         -0.474004        1.000000        0.00020054        0.03451682        0.41881345        0.18554462
     118         -0.471724        1.000000        0.00069294        0.49707211        0.08443357        0.04929374
     119         -0.471591        1.000000        0.00003437        0.00269942        0.00321039        0.00128190
     120         -0.471223        1.000000        0.00033892        0.01535804        0.21381921        0.40914436
     121         -0.471135        1.000000        0.00042119        0.01678352        0.21711875        0.40348577
     122         -0.469833        1.000000        0.00178071        0.20880060        0.30919580        0.09401721
     123         -0.469296        1.000000        0.00016916        0.40115136        0.01646602        0.22178135
     124         -0.467073        1.000000        0.00254397        0.42421425        0.07764238        0.14082827
     125         -0.465916        1.000000        0.00081774        0.14781271        0.02558921        0.07314862
     126         -0.465588        1.000000        0.00214152        0.13492494        0.14217875        0.33525709
     127         -0.464590        1.000000        0.00005438        0.09357469        0.53242969        0.00347723
     128         -0.463859        1.000000        0.00231568        0.23456770        0.13251669        0.20301340
     129         -0.463665        1.000000        0.00045025        0.06956898        0.04024285        0.05445298
     130         -0.461875        1.000000        0.00165891        0.09455965        0.43836783        0.11760015
     131         -0.461091        1.000000        0.00003499        0.02564702        0.31945492        0.29362310
     132         -0.460103        1.000000        0.00254186        0.12671853        0.03965018        0.43445436
     133         -0.459483        1.000000        0.00056566        0.07799497        0.03474531        0.11003398
     134         -0.457867        1.000000        0.00356305        0.07262562        0.42696787        0.14616581
     135         -0.456488        1.000000        0.00064573        0.10573860        0.00452845        0.51926841
     136         -0.454979        1.000000        0.00021284        0.02041390        0.04682166        0.56019049
     137         -0.454092        1.000000        0.00203037        0.25117490        0.26152328        0.14139959
     138         -0.452768        1.000000        0.00190457        0.05951224        0.28929908        0.29422680
     139         -0.450084        1.000000        0.00087622        0.12496604        0.19953564        0.29836140
     140         -0.448184        1.000000        0.00031422        0.07907516        0.32612306        0.22233397
     141         -0.447718        1.000000        0.00171990        0.09477594        0.01306145        0.53718039
     142         -0.446930        1.000000        0.00015412        0.04463712        0.30190300        0.28812151
     143         -0.446005        1.000000        0.00168269        0.13877583        0.04403183        0.19381471
     144         -0.441557        1.000000        0.00753042        0.13595413        0.09745249        0.42214272
     145         -0.441332        1.000000        0.00306342        0.03493895        0.12358649        0.19455571
     146         -0.439875        1.000000        0.00456780        0.04802034        0.16626906        0.43238606
     147         -0.437035        1.000000        0.00035522        0.06725644        0.00933321        0.55276750
     148         -0.433885        1.000000        0.00450390        0.12406643        0.44002340        0.03124122
     149         -0.433147        1.000000        0.00313924        0.01078683        0.08369894        0.55153888
     150         -0.433004        1.000000        0.00347820        0.09381930        0.41089995        0.13345760
     151         -0.432622        1.000000        0.00004489        0.41032607        0.07122622        0.14607322
     152         -0.431807        1.000000        0.00000636        0.00184831        0.00059755        0.00096365
     153         -0.431173        1.000000        0.00000351        0.00008893        0.00019555        0.00024570
     154         -0.428231        1.000000        0.00232481        0.35690914        0.16834978        0.08166288
     155         -0.426912        1.000000        0.00017549        0.00562560        0.00196447        0.01767396
     156         -0.423189        1.000000        0.00554498        0.13175463        0.00569575        0.48630184
     157         -0.422440        1.000000        0.00293771        0.03536998        0.07502035        0.47825205
     158         -0.419910        1.000000        0.00215851        0.08569634        0.36838710        0.01690635
     159         -0.419658        1.000000        0.00009908        0.05017158        0.01715848        0.55551113
     160         -0.419243        1.000000        0.00070946        0.02935985        0.10831869        0.03134186
     161         -0.418599        1.000000        0.00025902        0.00196145        0.00491510        0.00508965
     162         -0.417478        1.000000        0.00032924        0.01320564        0.03716405        0.00413667
     163         -0.415514        1.000000        0.00121076        0.08768253        0.02427163        0.02590750
     164         -0.412725        1.000000        0.00057538        0.04890563        0.01632055        0.02496982
     165         -0.412343        1.000000        0.00230530        0.25808078        0.07966089        0.08115171
     166         -0.411374        1.000000        0.00021750        0.01318366        0.00596929        0.01323539
     167         -0.410723        1.000000        0.00012619        0.00180375        0.00140167        0.03060883
     168         -0.408270        1.000000        0.00012259        0.00268155        0.00185364        0.25112511
     169         -0.405446        1.000000        0.00016330        0.00360772        0.00207707        0.32692197
     170         -0.402594        1.000000        0.00172234        0.00755031        0.00593111        0.01710449
     171         -0.401434        1.000000        0.00431989        0.09104477        0.41566174        0.12913187
     172         -0.397838        1.000000        0.00457682        0.56525702        0.02440334        0.04793384
     173         -0.395549        1.000000        0.00000464        0.18215824        0.34142661        0.10613751
     174         -0.394849        1.000000        0.00182152        0.22698786        0.04226178        0.32888653
     175         -0.394297        1.000000        0.00586541        0.12207777        0.40381885        0.11999689
     176         -0.393579        1.000000        0.00024199        0.03021717        0.13407395        0.45854166
     177         -0.392747        1.000000        0.00136644        0.00908685        0.45386698        0.17647356
     178         -0.389076        1.000000        0.00861660        0.13927052        0.03571225        0.47043788
     179         -0.386053        1.000000        0.00002626        0.10420850        0.09839084        0.42619133
     180         -0.384491        1.000000        0.00024561        0.02096025        0.07078231        0.53865858
     181         -0.383941        1.000000        0.00260521        0.02656010        0.01960132        0.00116868
     182         -0.378030        1.000000        0.00215521        0.02632688        0.00336220        0.01127444
     183         -0.373093        1.000000        0.00061761        0.02469710        0.00649557        0.01365093
     184         -0.371367        1.000000        0.00115480        0.00360699        0.00150341        0.00199872
     185         -0.369011        1.000000        0.12439551        0.30984762        0.14821192        0.19812175
     186         -0.368008        1.000000        0.00180313        0.00438895        0.00243932        0.00300878
     187         -0.366254        1.000000        0.00027641        0.00063269        0.00029187        0.00042486
     188         -0.365292        1.000000        0.00027840        0.00059742        0.00027946        0.00042712
     189         -0.359467        1.000000        0.10321697        0.25076410        0.07104716        0.31050479
     190         -0.356432        1.000000        0.00293138        0.00608134        0.00083227        0.01191148
     191         -0.354775        1.000000        0.00439031        0.00584449        0.00123214        0.02387728
     192         -0.351881        1.000000        0.01770734        0.03284380        0.06098324        0.03729096
     193         -0.345445        1.000000        0.00004388        0.00008057        0.00021422        0.00013988
     194         -0.342970        1.000000        0.02532453        0.08059526        0.07261624        0.02180865
     195         -0.339330        1.000000        0.12261842        0.25370493        0.03579513        0.34907935
     196         -0.331705        1.000000        0.06989587        0.08800602        0.05655389        0.23808146
     197         -0.331076        1.000000        0.02940636        0.10734416        0.04146506        0.03986918
     198         -0.330896        1.000000        0.10367477        0.29113272        0.12281944        0.25758968
     199         -0.329219        1.000000        0.00123662        0.00191250        0.00222500        0.00219064
     200         -0.323822        1.000000        0.00715977        0.01508691        0.00948877        0.02691116
     201         -0.323615        1.000000        0.10443127        0.04639832        0.09960892        0.39524925
     202         -0.317820        1.000000        0.14323927        0.13743552        0.37408606        0.21587479
     203         -0.315807        1.000000        0.00408970        0.00559099        0.00649831        0.01698918
     204         -0.315604        1.000000        0.13146710        0.25767188        0.28171077        0.20554404
     205         -0.314706        1.000000        0.12536816        0.07517944        0.10659497        0.45119125
     206         -0.310379        1.000000        0.12420692        0.07171568        0.37653640        0.16886347
     207         -0.308197        1.000000        0.06512000        0.17773101        0.28259829        0.13931432
     208         -0.306725        1.000000        0.13290286        0.16507367        0.35431878        0.13877869
     209         -0.305410        1.000000        0.14885481        0.23709357        0.05429117        0.45497584
     210         -0.303412        1.000000        0.06980929        0.08622816        0.07153981        0.47488379
     211         -0.300364        1.000000        0.10437398        0.09435126        0.10877861        0.36308542
     212         -0.299179        1.000000        0.07153069        0.13177240        0.14098230        0.33213042
     213         -0.298116        1.000000        0.12721881        0.18067381        0.30843312        0.16292491
     214         -0.291572        1.000000        0.14860380        0.50862913        0.13420800        0.08339913
     215         -0.289627        1.000000        0.14843760        0.41476460        0.03308257        0.27324443
     216         -0.289542        1.000000        0.07285932        0.15862575        0.21034179        0.18570871
     217         -0.289122        1.000000        0.15178678        0.30716573        0.16962502        0.26948990
     218         -0.280776        1.000000        0.14556481        0.50358646        0.10669851        0.13813207
     219         -0.280693        1.000000        0.15237772        0.51470973        0.16635945        0.06680107
     220         -0.277650        1.000000        0.14798892        0.26734872        0.08157885        0.38473083
     221         -0.277259        1.000000        0.06594626        0.18625496        0.13508113        0.22050738
     222         -0.275729        1.000000        0.11146114        0.19454904        0.14381752        0.29020741
     223         -0.270018        1.000000        0.10820363        0.12399482        0.30526970        0.25498373
     224         -0.269388        1.000000        0.15132643        0.07241780        0.59428411        0.06549523
     225         -0.267243        1.000000        0.07563017        0.20215539        0.15566870        0.32129946
     226         -0.262199        1.000000        0.10489948        0.44535540        0.32374918        0.00588198
     227         -0.259301        1.000000        0.09437717        0.17463124        0.29203473        0.21784720
     228         -0.252396        1.000000        0.07201381        0.14125345        0.34765014        0.28384304
     229         -0.250228        1.000000        0.15067625        0.23604321        0.03602399        0.45234279
     230         -0.247827        1.000000        0.07734989        0.19421109        0.19871109        0.40557876
     231         -0.244331        1.000000        0.03827505        0.04575668        0.65674456        0.15578406
     232         -0.243848        1.000000        0.02884276        0.62108990        0.09496255        0.15152859
     233         -0.242467        1.000000        0.06330163        0.36668982        0.12439937        0.18421175
     234         -0.241285        1.000000        0.01138785        0.09835387        0.13031844        0.04019952
     235         -0.241145        1.000000        0.01154223        0.48637881        0.12089227        0.11468468
     236         -0.240349        1.000000        0.01246596        0.21855432        0.34468070        0.03801355
     237         -0.238704        1.000000        0.01677758        0.20594561        0.52038791        0.10387679
     238         -0.238271        1.000000        0.04168783        0.22517083        0.12544999        0.11793735
     239         -0.238012        1.000000        0.02786807        0.46513585        0.07430459        0.06899523
     240         -0.236889        1.000000        0.00517555        0.13976596        0.14480775        0.48183190
     241         -0.236271        1.000000        0.03450325        0.16720157        0.16855827        0.08905773
     242         -0.235759        1.000000        0.04115970        0.28958062        0.24008840        0.15263488
     243         -0.234716        1.000000        0.03241269        0.23406807        0.15363486        0.16687488
     244         -0.233959        1.000000        0.02995582        0.66234173        0.10607402        0.09359893
     245         -0.233718        1.000000        0.13303166        0.12918901        0.53303639        0.03490725
     246         -0.233280        1.000000        0.06261126        0.24459491        0.43227735        0.07182326
     247         -0.232149        1.000000        0.03279487        0.16930583        0.24688366        0.10292724
     248         -0.231157        1.000000        0.00163755        0.22489165        0.27601597        0.45922556
     249         -0.230937        1.000000        0.01995496        0.35889651        0.10401066        0.26331238
     250         -0.230816        1.000000        0.01658285        0.18114895        0.25222418        0.11683809
     251         -0.230197        1.000000        0.02482660        0.35382499        0.17284232        0.09422380
     252         -0.229351        1.000000        0.03434958        0.11747365        0.07028606        0.15158338
     253         -0.229221        1.000000        0.01842442        0.27997416        0.10719702        0.19260096
     254         -0.228140        1.000000        0.01509425        0.24622000        0.08961714        0.17307176
     255         -0.227312        1.000000        0.01325454        0.12398784        0.11491757        0.06920627
     256         -0.226901        1.000000        0.03944453        0.34391980        0.08857474        0.26792812
     257         -0.226143        1.000000        0.01538554        0.12281137        0.10780942        0.06899686
     258         -0.224831        1.000000        0.00901761        0.05457868        0.21412118        0.04366256
     259         -0.222788        1.000000        0.02383664        0.14574636        0.17036623        0.06044000