# Projected DOS for atomic kind I at iteration step i = 0, E(Fermi) =    -0.140361 a.u.
#     MO Eigenvalue [a.u.]      Occupation                 s                py                pz                px
       1         -0.918191        1.000000        0.00000024        0.00000086        0.00000123        0.00000046
       2         -0.917865        1.000000        0.00006778        0.00002068        0.00016617        0.00012114
       3         -0.917339        1.000000        0.00006521        0.00024994        0.00004691        0.00000666
       4         -0.916815        1.000000        0.00008356        0.00027933        0.00009900        0.00013708
       5         -0.914459        1.000000        0.00013212        0.00002329        0.00035594        0.00007876
       6         -0.914303        1.000000        0.00024965        0.00068571        0.00006019        0.00012445
       7         -0.912550        1.000000        0.00001581        0.00000747        0.00010519        0.00000834
       8         -0.910361        1.000000        0.00001158        0.00004421        0.00001866        0.00004414
       9         -0.909538        1.000000        0.00019487        0.00015034        0.00023053        0.00023543
      10         -0.909163        1.000000        0.00001798        0.00006154        0.00008202        0.00002467
      11         -0.909158        1.000000        0.00008153        0.00016494        0.00024433        0.00018531
      12         -0.903153        1.000000        0.00004462        0.00014563        0.00001224        0.00008076
      13         -0.903152        1.000000        0.00004634        0.00014529        0.00001225        0.00008640
      14         -0.901865        1.000000        0.00023530        0.00053129        0.00027972        0.00030010
      15         -0.900039        1.000000        0.00047194        0.00078533        0.00021140        0.00001444
      16         -0.893468        1.000000        0.00003878        0.00001670        0.00000254        0.00019021
      17         -0.892218        1.000000        0.00020131        0.00054026        0.00025785        0.00018545
      18         -0.891559        1.000000        0.00004510        0.00003411        0.00001040        0.00021646
      19         -0.890341        1.000000        0.00013708        0.00014181        0.00031678        0.00022591
      20         -0.890052        1.000000        0.00080514        0.00064319        0.00078793        0.00070007
      21         -0.889217        1.000000        0.00107011        0.00002736        0.00137587        0.00069266
      22         -0.887765        1.000000        0.00008315        0.00006413        0.00010569        0.00024105
      23         -0.884622        1.000000        0.00001742        0.00003780        0.00006270        0.00002680
      24         -0.878900        1.000000        0.00001826        0.00006569        0.00005851        0.00000387
      25         -0.878014        1.000000        0.00005241        0.00009456        0.00005137        0.00013389
      26         -0.877925        1.000000        0.00169837        0.00235775        0.00051477        0.00002672
      27         -0.876530        1.000000        0.00000619        0.00000465        0.00001431        0.00001941
      28         -0.876402        1.000000        0.00058663        0.00005989        0.00099436        0.00013186
      29         -0.875144        1.000000        0.00005955        0.00016557        0.00013839        0.00000056
      30         -0.872704        1.000000        0.00001218        0.00000351        0.00007662        0.00002262
      31         -0.866191        1.000000        0.00078327        0.00227817        0.00018161        0.00001167
      32         -0.861107        1.000000        0.00000061        0.00000105        0.00000129        0.00000356
      33         -0.860727        1.000000        0.00003394        0.00003123        0.00001097        0.00013949
      34         -0.860032        1.000000        0.00001526        0.00002592        0.00002285        0.00002144
      35         -0.857151        1.000000        0.00323632        0.00145619        0.00257852        0.00163602
      36         -0.855051        1.000000        0.00010084        0.00010865        0.00026293        0.00002659
      37         -0.854259        1.000000        0.00005931        0.00005661        0.00010457        0.00009508
      38         -0.852719        1.000000        0.00042457        0.00001128        0.00002544        0.00141143
      39         -0.852590        1.000000        0.00002065        0.00000899        0.00010459        0.00001377
      40         -0.850559        1.000000        0.00016550        0.00004008        0.00069624        0.00000426
      41         -0.850287        1.000000        0.00675352        0.00768736        0.00138260        0.00004171
      42         -0.847838        1.000000        0.00001551        0.00003723        0.00007894        0.00008028
      43         -0.847064        1.000000        0.00001869        0.00005302        0.00000115        0.00006490
      44         -0.846027        1.000000        0.00022920        0.00003826        0.00063685        0.00024172
      45         -0.837577        1.000000        0.00000043        0.00000072        0.00000478        0.00000069
      46         -0.835010        1.000000        0.00940820        0.00000278        0.00785626        0.00321078
      47         -0.832614        1.000000        0.00007987        0.00006197        0.00006769        0.00018948
      48         -0.832020        1.000000        0.00001896        0.00001000        0.00002757        0.00006066
      49         -0.830276        1.000000        0.00001780        0.00001831        0.00005244        0.00001379
      50         -0.829685        1.000000        0.00000804        0.00005714        0.00000298        0.00001710
      51         -0.829438        1.000000        0.00003001        0.00001481        0.00001787        0.00015179
      52         -0.829144        1.000000        0.00005628        0.00020750        0.00002048        0.00001600
      53         -0.827276        1.000000        0.00000026        0.00000715        0.00000085        0.00000112
      54         -0.824423        1.000000        0.00001074        0.00001786        0.00000511        0.00007329
      55         -0.823790        1.000000        0.00001896        0.00001222        0.00000919        0.00004335
      56         -0.822335        1.000000        0.00000283        0.00000028        0.00003756        0.00000865
      57         -0.821007        1.000000        0.00002451        0.00006587        0.00003781        0.00003041
      58         -0.817811        1.000000        0.00000928        0.00000932        0.00005706        0.00000510
      59         -0.811598        1.000000        0.00004308        0.00002840        0.00001036        0.00010208
      60         -0.652584        1.000000        0.00137694        0.00019133        0.00026984        0.00031579
      61         -0.649832        1.000000        0.00111284        0.00027360        0.00032156        0.00033047
      62         -0.637966        1.000000        0.00142819        0.00026767        0.00019892        0.00012396
      63         -0.624070        1.000000        0.00117621        0.00015804        0.00017016        0.00005523
      64         -0.606431        1.000000        0.00283478        0.00023182        0.00028190        0.00033097
      65         -0.599570        1.000000        0.63460651        0.01047557        0.00207207        0.00076864
      66         -0.599393        1.000000        0.00271653        0.00003041        0.00014287        0.00014594
      67         -0.597633        1.000000        0.93089115        0.00048607        0.01042531        0.00745133
      68         -0.592509        1.000000        0.31600725        0.00387299        0.00101454        0.00021971
      69         -0.586498        1.000000        0.95359223        0.00342119        0.01817229        0.00705526
      70         -0.559261        1.000000        0.81919842        0.00662583        0.00764613        0.00497388
      71         -0.554937        1.000000        0.85619653        0.00274771        0.00221475        0.00383617
      72         -0.553820        1.000000        0.91892286        0.01059267        0.00325031        0.00189360
      73         -0.549403        1.000000        0.77205723        0.00456349        0.00331659        0.00259914
      74         -0.547144        1.000000        0.83264679        0.00266794        0.00558314        0.00295603
      75         -0.546522        1.000000        0.78820767        0.00340546        0.00381962        0.00281864
      76         -0.545055        1.000000        0.83505525        0.00293343        0.00320169        0.00283998
      77         -0.544331        1.000000        0.79468288        0.00320208        0.00262697        0.00350491
      78         -0.543233        1.000000        0.87810266        0.00210972        0.00228755        0.00253148
      79         -0.542088        1.000000        0.90963900        0.00226186        0.00200385        0.00209456
      80         -0.541345        1.000000        0.87307633        0.00253299        0.00260879        0.00214210
      81         -0.540437        1.000000        0.80661775        0.00334133        0.00215566        0.00157362
      82         -0.540324        1.000000        0.85343979        0.00125662        0.00425581        0.00387380
      83         -0.538679        1.000000        0.91444001        0.00092846        0.00141099        0.00190603
      84         -0.538307        1.000000        0.86788374        0.00122963        0.00119123        0.00149135
      85         -0.537652        1.000000        0.78033827        0.00077331        0.00219125        0.00227417
      86         -0.537170        1.000000        0.83292024        0.00071091        0.00132388        0.00225828
      87         -0.536419        1.000000        0.88228640        0.00115189        0.00146082        0.00159016
      88         -0.535726        1.000000        0.95876861        0.00323692        0.00875724        0.00417786
      89         -0.534170        1.000000        0.84192833        0.00139671        0.00056015        0.00061228
      90         -0.531881        1.000000        0.94684502        0.00061443        0.00040915        0.00048909
      91         -0.531728        1.000000        0.88939622        0.00077068        0.00236396        0.00278162
      92         -0.531233        1.000000        0.93693408        0.00081002        0.00087638        0.00231516
      93         -0.530857        1.000000        0.78558310        0.00391394        0.00134032        0.00393556
      94         -0.530751        1.000000        0.93886064        0.00115140        0.00049016        0.00037926
      95         -0.530303        1.000000        0.95603073        0.00094880        0.00028127        0.00052469
      96         -0.530036        1.000000        0.96169615        0.00077507        0.00056295        0.00098149
      97         -0.528373        1.000000        0.92198498        0.00091284        0.00085377        0.00123378
      98         -0.526836        1.000000        0.70955006        0.00116894        0.00139595        0.00123671
      99         -0.526288        1.000000        0.66936229        0.00122760        0.00131064        0.00096911
     100         -0.525633        1.000000        0.83613633        0.00384584        0.00097851        0.00178620
     101         -0.524190        1.000000        0.93412470        0.00068459        0.00056530        0.00106670
     102         -0.521516        1.000000        0.49895493        0.00070727        0.00104149        0.00108489
     103         -0.520836        1.000000        0.78711835        0.00040759        0.00055602        0.00122680
     104         -0.519692        1.000000        0.91089814        0.00018496        0.00095890        0.00085451
     105         -0.519610        1.000000        0.38635840        0.00228001        0.00040329        0.00077647
     106         -0.513225        1.000000        0.14132810        0.00255626        0.00216331        0.00123537
     107         -0.511165        1.000000        0.23984784        0.00314923        0.00142676        0.00182174
     108         -0.505617        1.000000        0.17139855        0.00360501        0.00243171        0.00159794
     109         -0.485500        1.000000        0.02913678        0.00140334        0.00340502        0.00051755
     110         -0.481987        1.000000        0.03119390        0.00032739        0.00385943        0.00163841
     111         -0.481260        1.000000        0.01098290        0.00085131        0.00153120        0.00032666
     112         -0.478430        1.000000        0.00057244        0.00006039        0.00004839        0.00003091
     113         -0.478274        1.000000        0.02840619        0.00297767        0.00024455        0.00015444
     114         -0.475794        1.000000        0.00309805        0.00042858        0.00059037        0.00011845
     115         -0.475610        1.000000        0.00670078        0.00101140        0.00027862        0.00006223
     116         -0.475008        1.000000        0.03032745        0.00026388        0.00363235        0.00013420
     117         -0.473995        1.000000        0.00088506        0.00020614        0.00074297        0.00008264
     118         -0.471727        1.000000        0.01630192        0.00304287        0.00157613        0.00122578
     119         -0.471580        1.000000        0.00396636        0.00054363        0.00040572        0.00171630
     120         -0.471221        1.000000        0.00938071        0.00112756        0.00077893        0.00245760
     121         -0.471140        1.000000        0.01134140        0.00080369        0.00054428        0.00206671
     122         -0.469794        1.000000        0.01395593        0.00286744        0.00010455        0.00285629
     123         -0.469286        1.000000        0.00309378        0.00038584        0.00031769        0.00071376
     124         -0.467066        1.000000        0.00719460        0.00465393        0.00043878        0.00043094
     125         -0.465912        1.000000        0.00089333        0.00043669        0.00026807        0.00004794
     126         -0.465577        1.000000        0.00651831        0.00193787        0.00019592        0.00034667
     127         -0.464584        1.000000        0.00498896        0.00096649        0.00109790        0.00038863
     128         -0.463841        1.000000        0.00630522        0.00026285        0.00170124        0.00019790
     129         -0.463633        1.000000        0.00528308        0.00069522        0.00078417        0.00038169
     130         -0.461869        1.000000        0.00278324        0.00148170        0.00063911        0.00085142
     131         -0.461101        1.000000        0.00010977        0.00003040        0.00006604        0.00001060
     132         -0.460094        1.000000        0.00338662        0.00015353        0.00141637        0.00051719
     133         -0.459483        1.000000        0.00179480        0.00042206        0.00049395        0.00081697
     134         -0.457859        1.000000        0.00179413        0.00019157        0.00174687        0.00022131
     135         -0.456460        1.000000        0.00559716        0.00058932        0.00024350        0.00353309
     136         -0.454971        1.000000        0.00320601        0.00133296        0.00012801        0.00364592
     137         -0.454083        1.000000        0.00129230        0.00079857        0.00024512        0.00006619
     138         -0.452752        1.000000        0.00006372        0.00004125        0.00002653        0.00000468
     139         -0.450054        1.000000        0.01094035        0.00030899        0.00050149        0.00559117
     140         -0.448165        1.000000        0.01201298        0.00122262        0.00359528        0.00189573
     141         -0.447709        1.000000        0.00030276        0.00003721        0.00015816        0.00015606
     142         -0.446929        1.000000        0.00248315        0.00087223        0.00130591        0.00028638
     143         -0.445975        1.000000        0.00429562        0.00143558        0.00026687        0.00029203
     144         -0.441544        1.000000        0.00127864        0.00031908        0.00410584        0.00162129
     145         -0.441302        1.000000        0.00289763        0.00147902        0.00022099        0.00054357
     146         -0.439866        1.000000        0.00088134        0.00008778        0.00054077        0.00037848
     147         -0.437027        1.000000        0.00441248        0.00204552        0.00084047        0.00249347
     148         -0.433872        1.000000        0.00338028        0.00011156        0.00179606        0.00070002
     149         -0.432999        1.000000        0.00059468        0.00028946        0.00011608        0.00044543
     150         -0.432885        1.000000        0.00083141        0.00109673        0.00103601        0.00101459
     151         -0.432526        1.000000        0.00131703        0.00031200        0.00139304        0.00012653
     152         -0.431800        1.000000        0.00406117        0.00178851        0.00164565        0.00220096
     153         -0.431163        1.000000        0.00237776        0.00150454        0.00183966        0.00148606
     154         -0.428206        1.000000        0.00506646        0.00313331        0.00258851        0.00155796
     155         -0.426697        1.000000        0.16339344        0.04318020        0.03979808        0.04247313
     156         -0.423130        1.000000        0.00556734        0.00153457        0.00055248        0.00180317
     157         -0.422455        1.000000        0.00758432        0.00576645        0.00258525        0.00435572
     158         -0.419962        1.000000        0.03581047        0.01529116        0.01115411        0.01316945
     159         -0.419657        1.000000        0.01116916        0.00428800        0.00327851        0.00338998
     160         -0.419549        1.000000        0.07530686        0.02830294        0.02051007        0.02193787
     161         -0.418636        1.000000        0.01378543        0.00541437        0.00708662        0.00479635
     162         -0.417056        1.000000        0.11010416        0.03908545        0.03408663        0.03067477
     163         -0.414832        1.000000        0.07179938        0.01952302        0.01945465        0.02465176
     164         -0.412667        1.000000        0.10817822        0.02774288        0.03015468        0.02912812
     165         -0.412101        1.000000        0.08804242        0.02300661        0.02076857        0.02218244
     166         -0.411403        1.000000        0.12490803        0.02975261        0.02906913        0.02891503
     167         -0.410497        1.000000        0.12358965        0.02704868        0.03605296        0.03303701
     168         -0.408060        1.000000        0.07317010        0.01833912        0.01290180        0.02469775
     169         -0.405314        1.000000        0.07003410        0.01229185        0.01162957        0.01542360
     170         -0.402561        1.000000        0.00794823        0.00187168        0.00234359        0.00117558
     171         -0.401733        1.000000        0.00067298        0.00031210        0.00010286        0.00014612
     172         -0.396903        1.000000        0.00001841        0.00006028        0.00000222        0.00000258
     173         -0.395532        1.000000        0.00008373        0.00002781        0.00014489        0.00002836
     174         -0.395386        1.000000        0.00039776        0.00014801        0.00011561        0.00042953
     175         -0.393612        1.000000        0.00175364        0.00016770        0.00087156        0.00202338
     176         -0.393174        1.000000        0.00011871        0.00002313        0.00005351        0.00009577
     177         -0.392082        1.000000        0.00002864        0.00007700        0.00004609        0.00000868
     178         -0.389067        1.000000        0.00007221        0.00007562        0.00012930        0.00006473
     179         -0.386150        1.000000        0.00063691        0.00076468        0.00083579        0.00105216
     180         -0.384350        1.000000        0.00007219        0.00002549        0.00005569        0.00008303
     181         -0.383936        1.000000        0.00093951        0.00105392        0.00110060        0.00117240
     182         -0.378015        1.000000        0.00043986        0.00048637        0.00075248        0.00062215
     183         -0.373099        1.000000        0.00107630        0.00235121        0.00276833        0.00455417
     184         -0.371361        1.000000        0.00109127        0.00111089        0.00287125        0.00085015
     185         -0.369000        1.000000        0.00266595        0.00417052        0.01406276        0.00893744
     186         -0.368002        1.000000        0.00156771        0.00184507        0.00132477        0.00329517
     187         -0.366242        1.000000        0.00150419        0.00179786        0.00202072        0.00369088
     188         -0.365284        1.000000        0.00126269        0.00227418        0.00092881        0.00281401
     189         -0.359470        1.000000        0.00918295        0.06802065        0.02058335        0.00910550
     190         -0.356430        1.000000        0.00136927        0.00327626        0.00317915        0.00091845
     191         -0.354769        1.000000        0.00083247        0.00203938        0.00355737        0.00070549
     192         -0.351857        1.000000        0.00012846        0.00029646        0.00053086        0.00032169
     193         -0.345418        1.000000        0.00058724        0.00140347        0.00197715        0.00111656
     194         -0.342961        1.000000        0.00070139        0.00287518        0.00180170        0.00180857
     195         -0.339324        1.000000        0.00276602        0.01338679        0.01945287        0.00514757
     196         -0.331727        1.000000        0.00079246        0.00541675        0.00331832        0.00174216
     197         -0.331053        1.000000        0.00024087        0.00104377        0.00099645        0.00113177
     198         -0.330895        1.000000        0.00558285        0.08065564        0.01457772        0.00171092
     199         -0.329209        1.000000        0.00073450        0.00243652        0.00235575        0.00191798
     200         -0.323807        1.000000        0.00011066        0.00047308        0.00063601        0.00054084
     201         -0.323607        1.000000        0.00082540        0.00120575        0.00351666        0.00270649
     202         -0.317657        1.000000        0.00059003        0.00907417        0.00478213        0.00173335
     203         -0.315812        1.000000        0.00048235        0.00233247        0.00235810        0.00353843
     204         -0.315592        1.000000        0.00093220        0.00157507        0.00381671        0.00515123
     205         -0.314698        1.000000        0.00041944        0.00133857        0.00181587        0.00080514
     206         -0.310369        1.000000        0.00011825        0.00037122        0.00114604        0.00014985
     207         -0.308181        1.000000        0.00845026        0.00116965        0.16738275        0.09162078
     208         -0.306702        1.000000        0.00059327        0.00210195        0.00206196        0.00283321
     209         -0.305382        1.000000        0.00000501        0.00015907        0.00011924        0.00023004
     210         -0.303407        1.000000        0.00827917        0.04310178        0.12899389        0.04978818
     211         -0.300389        1.000000        0.00111944        0.01843102        0.00337983        0.00499771
     212         -0.299180        1.000000        0.00509364        0.20773199        0.03415281        0.00222917
     213         -0.298090        1.000000        0.00042654        0.00259881        0.00095541        0.00297515
     214         -0.291613        1.000000        0.00057090        0.00213352        0.00575736        0.00510750
     215         -0.289746        1.000000        0.00074543        0.00177034        0.00179964        0.01440260
     216         -0.289526        1.000000        0.00766398        0.00944047        0.18895245        0.12384849
     217         -0.289252        1.000000        0.00008752        0.00194721        0.00098022        0.00039500
     218         -0.280397        1.000000        0.00001002        0.00087056        0.00006259        0.00242519
     219         -0.280294        1.000000        0.00004191        0.00071684        0.00145094        0.00089163
     220         -0.277661        1.000000        0.00015810        0.00326270        0.00481711        0.00073344
     221         -0.277258        1.000000        0.01011012        0.04574196        0.17139769        0.12928230
     222         -0.275719        1.000000        0.00040835        0.00182028        0.00422975        0.00187023
     223         -0.270037        1.000000        0.00023324        0.00658812        0.00884664        0.00457625
     224         -0.269127        1.000000        0.00068309        0.00348456        0.00603105        0.00694582
     225         -0.267235        1.000000        0.00318999        0.12023744        0.03941726        0.02439736
     226         -0.262039        1.000000        0.00151571        0.02516968        0.02734419        0.00693927
     227         -0.259285        1.000000        0.00008975        0.00176974        0.00315355        0.00113262
     228         -0.252379        1.000000        0.00034897        0.01086532        0.03738780        0.06039950
     229         -0.249958        1.000000        0.00012149        0.02424500        0.01626528        0.00169975
     230         -0.247807        1.000000        0.00014371        0.00786491        0.00433303        0.00193372
     231         -0.244332        1.000000        0.00125967        0.04504413        0.01626304        0.01905722
     232         -0.243844        1.000000        0.00116575        0.02553438        0.01686314        0.01398073
     233         -0.242422        1.000000        0.00408830        0.07401637        0.06210676        0.02378676
     234         -0.241052        1.000000        0.00699344        0.13871437        0.20956979        0.10604238
     235         -0.240399        1.000000        0.00268378        0.19930089        0.02045437        0.02987369
     236         -0.240236        1.000000        0.00593835        0.11888986        0.13643775        0.10531378
     237         -0.238679        1.000000        0.00084988        0.02745985        0.06339126        0.02830612
     238         -0.237994        1.000000        0.00249070        0.22511445        0.06350866        0.05384010
     239         -0.237659        1.000000        0.00315760        0.06578083        0.12421133        0.15452575
     240         -0.236844        1.000000        0.00055067        0.10948791        0.03777117        0.05303266
     241         -0.236159        1.000000        0.00439962        0.07872042        0.07852648        0.11359179
     242         -0.235663        1.000000        0.00360475        0.01096989        0.08759861        0.09271356
     243         -0.234655        1.000000        0.00596942        0.14735658        0.07096133        0.02349157
     244         -0.233947        1.000000        0.00030302        0.00853334        0.00522583        0.00185141
     245         -0.233701        1.000000        0.00147613        0.01812053        0.04825411        0.01263344
     246         -0.233354        1.000000        0.00093406        0.00802861        0.04805351        0.02865474
     247         -0.232116        1.000000        0.00564175        0.03424029        0.25605434        0.04159083
     248         -0.231137        1.000000        0.00015978        0.00595098        0.00825491        0.00342762
     249         -0.230874        1.000000        0.00326810        0.15792546        0.05448067        0.08727550
     250         -0.230853        1.000000        0.00165034        0.08248177        0.03895619        0.05329882
     251         -0.230510        1.000000        0.00545639        0.10860798        0.10370542        0.12553653
     252         -0.229423        1.000000        0.00919205        0.19767910        0.21734749        0.07304771
     253         -0.228717        1.000000        0.00202553        0.04735116        0.03483020        0.02473550
     254         -0.227573        1.000000        0.00488442        0.12363209        0.06762305        0.19554971
     255         -0.227097        1.000000        0.00335530        0.04916807        0.04941262        0.16017133
     256         -0.226234        1.000000        0.00850275        0.20727238        0.09475764        0.15512710
     257         -0.224983        1.000000        0.00980526        0.06581522        0.23102694        0.15944507
     258         -0.224180        1.000000        0.00914470        0.17419067        0.13300922        0.22997707
     259         -0.223122        1.000000        0.00570672        0.23525367        0.05455170        0.06473398