# Projected DOS for atomic kind I at iteration step i = 0, E(Fermi) =    -0.141468 a.u.
#     MO Eigenvalue [a.u.]      Occupation                 s                py                pz                px
       1         -0.918192        1.000000        0.00000024        0.00000086        0.00000123        0.00000046
       2         -0.917876        1.000000        0.00006791        0.00002068        0.00016623        0.00012117
       3         -0.917344        1.000000        0.00006527        0.00024998        0.00004690        0.00000666
       4         -0.916851        1.000000        0.00008445        0.00028266        0.00009958        0.00013717
       5         -0.914464        1.000000        0.00013233        0.00002329        0.00035604        0.00007879
       6         -0.914308        1.000000        0.00024956        0.00068573        0.00006018        0.00012447
       7         -0.912557        1.000000        0.00001585        0.00000746        0.00010536        0.00000834
       8         -0.910367        1.000000        0.00001159        0.00004422        0.00001866        0.00004415
       9         -0.909537        1.000000        0.00019510        0.00015039        0.00023070        0.00023539
      10         -0.909168        1.000000        0.00007322        0.00015224        0.00022282        0.00016573
      11         -0.909165        1.000000        0.00002657        0.00007431        0.00010359        0.00004435
      12         -0.903193        1.000000        0.00007058        0.00014035        0.00000842        0.00016273
      13         -0.903102        1.000000        0.00002039        0.00015026        0.00001607        0.00000460
      14         -0.901871        1.000000        0.00023544        0.00053133        0.00027976        0.00030015
      15         -0.900044        1.000000        0.00047146        0.00078461        0.00021121        0.00001443
      16         -0.893526        1.000000        0.00003933        0.00001649        0.00000250        0.00019207
      17         -0.892223        1.000000        0.00020106        0.00054002        0.00025776        0.00018540
      18         -0.891581        1.000000        0.00004543        0.00003405        0.00001022        0.00021795
      19         -0.890327        1.000000        0.00013691        0.00014152        0.00031716        0.00022340
      20         -0.890057        1.000000        0.00080526        0.00064328        0.00078810        0.00070021
      21         -0.889224        1.000000        0.00107060        0.00002736        0.00137637        0.00069290
      22         -0.887748        1.000000        0.00008292        0.00006369        0.00010394        0.00024108
      23         -0.884617        1.000000        0.00001744        0.00003782        0.00006271        0.00002680
      24         -0.878914        1.000000        0.00001836        0.00006568        0.00005849        0.00000386
      25         -0.878048        1.000000        0.00005293        0.00009458        0.00005162        0.00013429
      26         -0.877926        1.000000        0.00169678        0.00235564        0.00051438        0.00002671
      27         -0.876538        1.000000        0.00000619        0.00000465        0.00001432        0.00001939
      28         -0.876408        1.000000        0.00058691        0.00005990        0.00099454        0.00013191
      29         -0.875350        1.000000        0.00006003        0.00016571        0.00013862        0.00000056
      30         -0.872721        1.000000        0.00001221        0.00000351        0.00007660        0.00002263
      31         -0.867077        1.000000        0.00078159        0.00227463        0.00018041        0.00001141
      32         -0.861112        1.000000        0.00000061        0.00000105        0.00000129        0.00000356
      33         -0.860699        1.000000        0.00003388        0.00003123        0.00001093        0.00013956
      34         -0.860048        1.000000        0.00001531        0.00002594        0.00002287        0.00002145
      35         -0.857158        1.000000        0.00323595        0.00145601        0.00257838        0.00163593
      36         -0.855056        1.000000        0.00010176        0.00010872        0.00026303        0.00002661
      37         -0.854275        1.000000        0.00005944        0.00005662        0.00010460        0.00009512
      38         -0.852600        1.000000        0.00002075        0.00000907        0.00010462        0.00001374
      39         -0.852244        1.000000        0.00042770        0.00001145        0.00002554        0.00141591
      40         -0.850713        1.000000        0.00016550        0.00004011        0.00069610        0.00000427
      41         -0.850276        1.000000        0.00675678        0.00769075        0.00138331        0.00004173
      42         -0.847795        1.000000        0.00001584        0.00003746        0.00007942        0.00008118
      43         -0.847108        1.000000        0.00001882        0.00005307        0.00000115        0.00006497
      44         -0.844849        1.000000        0.00023404        0.00003805        0.00064203        0.00024570
      45         -0.837609        1.000000        0.00000044        0.00000072        0.00000478        0.00000068
      46         -0.835024        1.000000        0.00940811        0.00000278        0.00785592        0.00321061
      47         -0.832620        1.000000        0.00007948        0.00006166        0.00006740        0.00018876
      48         -0.832323        1.000000        0.00002985        0.00001385        0.00001929        0.00014900
      49         -0.832022        1.000000        0.00001896        0.00001012        0.00002763        0.00006056
      50         -0.830278        1.000000        0.00001707        0.00001930        0.00005109        0.00001357
      51         -0.828879        1.000000        0.00005642        0.00020780        0.00002052        0.00001604
      52         -0.828641        1.000000        0.00000886        0.00001868        0.00000356        0.00006829
      53         -0.828576        1.000000        0.00000806        0.00005742        0.00000297        0.00001708
      54         -0.827445        1.000000        0.00000016        0.00000702        0.00000075        0.00000104
      55         -0.824904        1.000000        0.00000266        0.00000029        0.00003709        0.00000818
      56         -0.822765        1.000000        0.00002167        0.00001389        0.00000973        0.00004937
      57         -0.821022        1.000000        0.00002499        0.00006590        0.00003791        0.00003040
      58         -0.817674        1.000000        0.00000929        0.00000933        0.00005711        0.00000511
      59         -0.811229        1.000000        0.00004024        0.00002669        0.00000967        0.00009589
      60         -0.652591        1.000000        0.00138279        0.00019141        0.00027005        0.00031601
      61         -0.649841        1.000000        0.00111607        0.00027374        0.00032168        0.00033067
      62         -0.637972        1.000000        0.00142321        0.00026743        0.00019889        0.00012423
      63         -0.624092        1.000000        0.00123887        0.00015951        0.00017015        0.00005532
      64         -0.606437        1.000000        0.00288781        0.00023222        0.00028220        0.00033163
      65         -0.599580        1.000000        0.63474635        0.01048167        0.00207314        0.00076921
      66         -0.599408        1.000000        0.00276359        0.00003061        0.00014334        0.00014599
      67         -0.597655        1.000000        0.93086163        0.00048661        0.01042517        0.00745323
      68         -0.592518        1.000000        0.31583745        0.00387271        0.00101426        0.00021970
      69         -0.586484        1.000000        0.95359697        0.00341940        0.01816963        0.00705368
      70         -0.559482        1.000000        0.81932939        0.00658231        0.00761068        0.00499412
      71         -0.554832        1.000000        0.85662267        0.00275919        0.00225934        0.00388475
      72         -0.553983        1.000000        0.91645960        0.01043931        0.00327384        0.00197531
      73         -0.550071        1.000000        0.89274052        0.00231452        0.00450163        0.00164348
      74         -0.549165        1.000000        0.77325115        0.00456488        0.00312890        0.00243503
      75         -0.547278        1.000000        0.78358462        0.00299060        0.00303796        0.00267400
      76         -0.546648        1.000000        0.86172282        0.00295154        0.00485110        0.00419983
      77         -0.544751        1.000000        0.84137756        0.00321382        0.00253717        0.00288029
      78         -0.544579        1.000000        0.79823258        0.00311086        0.00317412        0.00256088
      79         -0.543586        1.000000        0.89395764        0.00180138        0.00219017        0.00282501
      80         -0.542248        1.000000        0.91215460        0.00243619        0.00138469        0.00247430
      81         -0.541166        1.000000        0.83304293        0.00193748        0.00158397        0.00173513
      82         -0.540697        1.000000        0.85397086        0.00116011        0.00400802        0.00392954
      83         -0.539412        1.000000        0.85852399        0.00202400        0.00156732        0.00134556
      84         -0.538881        1.000000        0.88601436        0.00094010        0.00084703        0.00159902
      85         -0.537937        1.000000        0.78217011        0.00083667        0.00282611        0.00258827
      86         -0.537612        1.000000        0.82881278        0.00075059        0.00138215        0.00221937
      87         -0.536887        1.000000        0.86376684        0.00116283        0.00085100        0.00166190
      88         -0.535711        1.000000        0.95946533        0.00317252        0.00848406        0.00411553
      89         -0.535409        1.000000        0.96199856        0.00081048        0.00218078        0.00154580
      90         -0.534605        1.000000        0.88184000        0.00142358        0.00049969        0.00055044
      91         -0.531967        1.000000        0.88007051        0.00078486        0.00241187        0.00276225
      92         -0.531483        1.000000        0.80216500        0.00389095        0.00144278        0.00382428
      93         -0.531285        1.000000        0.94604762        0.00092165        0.00021814        0.00040985
      94         -0.530836        1.000000        0.94624747        0.00118038        0.00045553        0.00019076
      95         -0.530554        1.000000        0.94600946        0.00059038        0.00032118        0.00039965
      96         -0.529203        1.000000        0.92162686        0.00079969        0.00086090        0.00097428
      97         -0.528883        1.000000        0.95311262        0.00105220        0.00073508        0.00152516
      98         -0.528666        1.000000        0.88438185        0.00193863        0.00163192        0.00191303
      99         -0.526880        1.000000        0.43850780        0.00073334        0.00137557        0.00062646
     100         -0.524681        1.000000        0.81514525        0.00425789        0.00104504        0.00194815
     101         -0.524466        1.000000        0.93482062        0.00067193        0.00058739        0.00103641
     102         -0.521962        1.000000        0.65836045        0.00053510        0.00108193        0.00119278
     103         -0.521327        1.000000        0.64370330        0.00058140        0.00050772        0.00120186
     104         -0.520329        1.000000        0.90081523        0.00015062        0.00088853        0.00087509
     105         -0.519688        1.000000        0.36358542        0.00238509        0.00036122        0.00070684
     106         -0.513230        1.000000        0.14119586        0.00253750        0.00216388        0.00122141
     107         -0.511149        1.000000        0.24428173        0.00310891        0.00141113        0.00180296
     108         -0.505581        1.000000        0.17392012        0.00357132        0.00242858        0.00159375
     109         -0.485573        1.000000        0.02659184        0.00145828        0.00336805        0.00050685
     110         -0.482012        1.000000        0.03066966        0.00032991        0.00387655        0.00164424
     111         -0.481297        1.000000        0.01037142        0.00086671        0.00155310        0.00032308
     112         -0.478432        1.000000        0.00055551        0.00006078        0.00004885        0.00003109
     113         -0.478292        1.000000        0.02804483        0.00298602        0.00024487        0.00015229
     114         -0.475798        1.000000        0.00299536        0.00043272        0.00059172        0.00011899
     115         -0.475620        1.000000        0.00663576        0.00100820        0.00027982        0.00006247
     116         -0.475044        1.000000        0.02938954        0.00026081        0.00365478        0.00013462
     117         -0.474004        1.000000        0.00088113        0.00020619        0.00074399        0.00008279
     118         -0.471724        1.000000        0.01657274        0.00303560        0.00157037        0.00121275
     119         -0.471591        1.000000        0.00397193        0.00054469        0.00040587        0.00171660
     120         -0.471223        1.000000        0.00990238        0.00126131        0.00086841        0.00260778
     121         -0.471135        1.000000        0.01107819        0.00067054        0.00045492        0.00191147
     122         -0.469833        1.000000        0.01379422        0.00290087        0.00010836        0.00287214
     123         -0.469296        1.000000        0.00307331        0.00038603        0.00031794        0.00071439
     124         -0.467073        1.000000        0.00724794        0.00465678        0.00043953        0.00043023
     125         -0.465916        1.000000        0.00089501        0.00044734        0.00026931        0.00004852
     126         -0.465588        1.000000        0.00644417        0.00192929        0.00019493        0.00034531
     127         -0.464590        1.000000        0.00488941        0.00096961        0.00110274        0.00038810
     128         -0.463859        1.000000        0.00595123        0.00027215        0.00169441        0.00020535
     129         -0.463665        1.000000        0.00488701        0.00069720        0.00082084        0.00035896
     130         -0.461875        1.000000        0.00276656        0.00148102        0.00063945        0.00085128
     131         -0.461091        1.000000        0.00011420        0.00002970        0.00006543        0.00001051
     132         -0.460103        1.000000        0.00334224        0.00015352        0.00142644        0.00051688
     133         -0.459483        1.000000        0.00177370        0.00042511        0.00049209        0.00081953
     134         -0.457867        1.000000        0.00178184        0.00019122        0.00174824        0.00022209
     135         -0.456488        1.000000        0.00544658        0.00058844        0.00024924        0.00360971
     136         -0.454979        1.000000        0.00315159        0.00133889        0.00013102        0.00369516
     137         -0.454092        1.000000        0.00131161        0.00079765        0.00024474        0.00006586
     138         -0.452768        1.000000        0.00005848        0.00004171        0.00002649        0.00000463
     139         -0.450084        1.000000        0.01073922        0.00030827        0.00050694        0.00561729
     140         -0.448184        1.000000        0.01179949        0.00122835        0.00360572        0.00189511
     141         -0.447718        1.000000        0.00029528        0.00003736        0.00015857        0.00015695
     142         -0.446930        1.000000        0.00246181        0.00087376        0.00130758        0.00028719
     143         -0.446005        1.000000        0.00418989        0.00146693        0.00027641        0.00030944
     144         -0.441557        1.000000        0.00127584        0.00032039        0.00410540        0.00162164
     145         -0.441332        1.000000        0.00283159        0.00150937        0.00023474        0.00055820
     146         -0.439875        1.000000        0.00086678        0.00009045        0.00054094        0.00037871
     147         -0.437035        1.000000        0.00421671        0.00206671        0.00087673        0.00250315
     148         -0.433885        1.000000        0.00330279        0.00011299        0.00180593        0.00070534
     149         -0.433147        1.000000        0.00087911        0.00106039        0.00102252        0.00102212
     150         -0.433004        1.000000        0.00059714        0.00027678        0.00011626        0.00044110
     151         -0.432622        1.000000        0.00126012        0.00030068        0.00138340        0.00008985
     152         -0.431807        1.000000        0.00403656        0.00178391        0.00164327        0.00219267
     153         -0.431173        1.000000        0.00238766        0.00151185        0.00185229        0.00149702
     154         -0.428231        1.000000        0.00495699        0.00317585        0.00262207        0.00156910
     155         -0.426912        1.000000        0.16293359        0.04356074        0.03976226        0.04276488
     156         -0.423189        1.000000        0.00505284        0.00141033        0.00049131        0.00167475
     157         -0.422440        1.000000        0.00657432        0.00516123        0.00228966        0.00404245
     158         -0.419910        1.000000        0.02804854        0.01254748        0.00948892        0.01130501
     159         -0.419658        1.000000        0.00147237        0.00053232        0.00045977        0.00042751
     160         -0.419243        1.000000        0.09105214        0.03403154        0.02556094        0.02746856
     161         -0.418599        1.000000        0.01832913        0.00673794        0.00795891        0.00588195
     162         -0.417478        1.000000        0.10794955        0.03783549        0.03347112        0.02966137
     163         -0.415514        1.000000        0.10100480        0.02658818        0.02627812        0.03239089
     164         -0.412725        1.000000        0.10843472        0.03050704        0.03156985        0.03052915
     165         -0.412343        1.000000        0.05258480        0.01277296        0.01218393        0.01349729
     166         -0.411374        1.000000        0.12886699        0.03017132        0.02952043        0.03011307
     167         -0.410723        1.000000        0.12507804        0.02764385        0.03630866        0.03323659
     168         -0.408270        1.000000        0.07579810        0.01933770        0.01332199        0.02601197
     169         -0.405446        1.000000        0.06420944        0.01127528        0.01110992        0.01398588
     170         -0.402594        1.000000        0.00709635        0.00177592        0.00226923        0.00104445
     171         -0.401434        1.000000        0.00069091        0.00030386        0.00010512        0.00014752
     172         -0.397838        1.000000        0.00001928        0.00005957        0.00000229        0.00000248
     173         -0.395549        1.000000        0.00008226        0.00002823        0.00014647        0.00003008
     174         -0.394849        1.000000        0.00048458        0.00014823        0.00015301        0.00049297
     175         -0.394297        1.000000        0.00011762        0.00002273        0.00005214        0.00009825
     176         -0.393579        1.000000        0.00165868        0.00017186        0.00083325        0.00196590
     177         -0.392747        1.000000        0.00002885        0.00007752        0.00004687        0.00000899
     178         -0.389076        1.000000        0.00007177        0.00007571        0.00012947        0.00006472
     179         -0.386053        1.000000        0.00064866        0.00076522        0.00083491        0.00105234
     180         -0.384491        1.000000        0.00007611        0.00002577        0.00005718        0.00008697
     181         -0.383941        1.000000        0.00092401        0.00105640        0.00110545        0.00117636
     182         -0.378030        1.000000        0.00042761        0.00049248        0.00076206        0.00061844
     183         -0.373093        1.000000        0.00107478        0.00234631        0.00276439        0.00454337
     184         -0.371367        1.000000        0.00109518        0.00111141        0.00287530        0.00084900
     185         -0.369011        1.000000        0.00266417        0.00417046        0.01406711        0.00894427
     186         -0.368008        1.000000        0.00157142        0.00184776        0.00132173        0.00329019
     187         -0.366254        1.000000        0.00149496        0.00180135        0.00202398        0.00370420
     188         -0.365292        1.000000        0.00126025        0.00227759        0.00093060        0.00281713
     189         -0.359467        1.000000        0.00917103        0.06800019        0.02058270        0.00910607
     190         -0.356432        1.000000        0.00136935        0.00327261        0.00316787        0.00093205
     191         -0.354775        1.000000        0.00083724        0.00204051        0.00355696        0.00071471
     192         -0.351881        1.000000        0.00012510        0.00030185        0.00053677        0.00032200
     193         -0.345445        1.000000        0.00057398        0.00143147        0.00198514        0.00111726
     194         -0.342970        1.000000        0.00069401        0.00288395        0.00181118        0.00181850
     195         -0.339330        1.000000        0.00276791        0.01338021        0.01944665        0.00514236
     196         -0.331705        1.000000        0.00080338        0.00564601        0.00337288        0.00172815
     197         -0.331076        1.000000        0.00023878        0.00102011        0.00099270        0.00113542
     198         -0.330896        1.000000        0.00556402        0.08047433        0.01454733        0.00171985
     199         -0.329219        1.000000        0.00072717        0.00244472        0.00236622        0.00192999
     200         -0.323822        1.000000        0.00010699        0.00048111        0.00065338        0.00054047
     201         -0.323615        1.000000        0.00082380        0.00120751        0.00353498        0.00270270
     202         -0.317820        1.000000        0.00059959        0.00913852        0.00472967        0.00166471
     203         -0.315807        1.000000        0.00048469        0.00233119        0.00234785        0.00352721
     204         -0.315604        1.000000        0.00092255        0.00153473        0.00382635        0.00521673
     205         -0.314706        1.000000        0.00041626        0.00134238        0.00182511        0.00080993
     206         -0.310379        1.000000        0.00011637        0.00038179        0.00114963        0.00015144
     207         -0.308197        1.000000        0.00844885        0.00116646        0.16751491        0.09170113
     208         -0.306725        1.000000        0.00059034        0.00213594        0.00209141        0.00286183
     209         -0.305410        1.000000        0.00000500        0.00015995        0.00012033        0.00023000
     210         -0.303412        1.000000        0.00828402        0.04306917        0.12895581        0.04977176
     211         -0.300364        1.000000        0.00113820        0.01892774        0.00344058        0.00495153
     212         -0.299179        1.000000        0.00507493        0.20736018        0.03417431        0.00223399
     213         -0.298116        1.000000        0.00042320        0.00263131        0.00096251        0.00298476
     214         -0.291572        1.000000        0.00057156        0.00214743        0.00585721        0.00512204
     215         -0.289627        1.000000        0.00079669        0.00186799        0.00348344        0.01546970
     216         -0.289542        1.000000        0.00760836        0.00940683        0.18744795        0.12296802
     217         -0.289122        1.000000        0.00007653        0.00185031        0.00064688        0.00018005
     218         -0.280776        1.000000        0.00004674        0.00070778        0.00148056        0.00101012
     219         -0.280693        1.000000        0.00001029        0.00086505        0.00006609        0.00253899
     220         -0.277650        1.000000        0.00015839        0.00327860        0.00484986        0.00074536
     221         -0.277259        1.000000        0.01011298        0.04569409        0.17134604        0.12926399
     222         -0.275729        1.000000        0.00040667        0.00183249        0.00426120        0.00189268
     223         -0.270018        1.000000        0.00023895        0.00678071        0.00902614        0.00467360
     224         -0.269388        1.000000        0.00067906        0.00356817        0.00674755        0.00696580
     225         -0.267243        1.000000        0.00318857        0.12018490        0.03943496        0.02437536
     226         -0.262199        1.000000        0.00150086        0.02574616        0.02610015        0.00671183
     227         -0.259301        1.000000        0.00008875        0.00184880        0.00316543        0.00116945
     228         -0.252396        1.000000        0.00034712        0.01093792        0.03756777        0.06053949
     229         -0.250228        1.000000        0.00014192        0.02931656        0.01796936        0.00172831
     230         -0.247827        1.000000        0.00014341        0.00811350        0.00455412        0.00190404
     231         -0.244331        1.000000        0.00125586        0.04506004        0.01619378        0.01904042
     232         -0.243848        1.000000        0.00126708        0.02771650        0.01885603        0.01495883
     233         -0.242467        1.000000        0.00418941        0.08040999        0.06378438        0.02440522
     234         -0.241285        1.000000        0.00890138        0.15799815        0.22229838        0.14672287
     235         -0.241145        1.000000        0.00279363        0.20367250        0.01784932        0.02080753
     236         -0.240349        1.000000        0.00432827        0.08660782        0.11767842        0.08761087
     237         -0.238704        1.000000        0.00106667        0.03048831        0.06415449        0.03677464
     238         -0.238271        1.000000        0.00397796        0.05961390        0.12691514        0.18540673
     239         -0.238012        1.000000        0.00159864        0.19954983        0.03629793        0.07955607
     240         -0.236889        1.000000        0.00053161        0.11834562        0.03770068        0.05235384
     241         -0.236271        1.000000        0.00572904        0.09617561        0.10156282        0.14689788
     242         -0.235759        1.000000        0.00287070        0.00944170        0.07439132        0.06762280
     243         -0.234716        1.000000        0.00657088        0.15983598        0.08785780        0.02645475
     244         -0.233959        1.000000        0.00031712        0.00916232        0.00528005        0.00197077
     245         -0.233718        1.000000        0.00146824        0.01912396        0.04648868        0.01242107
     246         -0.233280        1.000000        0.00109488        0.00903732        0.05683222        0.02860423
     247         -0.232149        1.000000        0.00579891        0.03639179        0.24618196        0.04179090
     248         -0.231157        1.000000        0.00023819        0.00788439        0.00840138        0.00545944
     249         -0.230937        1.000000        0.00213749        0.07869519        0.05073091        0.06776456
     250         -0.230816        1.000000        0.00444488        0.05419832        0.12540406        0.16323246
     251         -0.230197        1.000000        0.00351665        0.18562768        0.03709008        0.03030365
     252         -0.229351        1.000000        0.00791091        0.14076435        0.15022544        0.15675615
     253         -0.229221        1.000000        0.00393091        0.08076180        0.13049217        0.07556124
     254         -0.228140        1.000000        0.00511559        0.12498199        0.09429655        0.12383211
     255         -0.227312        1.000000        0.00654236        0.08928463        0.11553277        0.30136331
     256         -0.226901        1.000000        0.00188826        0.02436297        0.03388858        0.05348036
     257         -0.226143        1.000000        0.00976521        0.20875900        0.11867263        0.17288537
     258         -0.224831        1.000000        0.01030622        0.07546934        0.23733157        0.19342467
     259         -0.222788        1.000000        0.00723087        0.29522033        0.05295623        0.07499720