# Projected DOS for atomic kind H at iteration step i = 0, E(Fermi) =    -0.141468 a.u.
#     MO Eigenvalue [a.u.]      Occupation                 s
       1         -0.918192        1.000000        0.25327705
       2         -0.917876        1.000000        0.25502996
       3         -0.917344        1.000000        0.26219859
       4         -0.916851        1.000000        0.25438015
       5         -0.914464        1.000000        0.25952242
       6         -0.914308        1.000000        0.26341005
       7         -0.912557        1.000000        0.25385004
       8         -0.910367        1.000000        0.25565708
       9         -0.909537        1.000000        0.25833648
      10         -0.909168        1.000000        0.27840897
      11         -0.909165        1.000000        0.25966464
      12         -0.903193        1.000000        0.25601368
      13         -0.903102        1.000000        0.25409193
      14         -0.901871        1.000000        0.27997400
      15         -0.900044        1.000000        0.25498518
      16         -0.893526        1.000000        0.25431103
      17         -0.892223        1.000000        0.28086624
      18         -0.891581        1.000000        0.25488600
      19         -0.890327        1.000000        0.25560098
      20         -0.890057        1.000000        0.23998514
      21         -0.889224        1.000000        0.24163583
      22         -0.887748        1.000000        0.25405129
      23         -0.884617        1.000000        0.25439330
      24         -0.878914        1.000000        0.25353112
      25         -0.878048        1.000000        0.25494176
      26         -0.877926        1.000000        0.21822717
      27         -0.876538        1.000000        0.25883001
      28         -0.876408        1.000000        0.23481925
      29         -0.875350        1.000000        0.25400519
      30         -0.872721        1.000000        0.26072230
      31         -0.867077        1.000000        0.22222159
      32         -0.861112        1.000000        0.25737657
      33         -0.860699        1.000000        0.27078794
      34         -0.860048        1.000000        0.25430627
      35         -0.857158        1.000000        0.19416797
      36         -0.855056        1.000000        0.25552931
      37         -0.854275        1.000000        0.24575930
      38         -0.852600        1.000000        0.25138969
      39         -0.852244        1.000000        0.22483339
      40         -0.850713        1.000000        0.23936279
      41         -0.850276        1.000000        0.17365348
      42         -0.847795        1.000000        0.25415093
      43         -0.847108        1.000000        0.25751391
      44         -0.844849        1.000000        0.23217865
      45         -0.837609        1.000000        0.25757915
      46         -0.835024        1.000000        0.16184971
      47         -0.832620        1.000000        0.24491293
      48         -0.832323        1.000000        0.24700321
      49         -0.832022        1.000000        0.25614550
      50         -0.830278        1.000000        0.23422591
      51         -0.828879        1.000000        0.25623316
      52         -0.828641        1.000000        0.23943091
      53         -0.828576        1.000000        0.24903289
      54         -0.827445        1.000000        0.24977646
      55         -0.824904        1.000000        0.24442343
      56         -0.822765        1.000000        0.24308752
      57         -0.821022        1.000000        0.25400779
      58         -0.817674        1.000000        0.23752579
      59         -0.811229        1.000000        0.20068898
      60         -0.652591        1.000000        0.35011458
      61         -0.649841        1.000000        0.34239294
      62         -0.637972        1.000000        0.34705082
      63         -0.624092        1.000000        0.36477958
      64         -0.606437        1.000000        0.36971578
      65         -0.599580        1.000000        0.11987526
      66         -0.599408        1.000000        0.37016090
      67         -0.597655        1.000000        0.00967077
      68         -0.592518        1.000000        0.24468551
      69         -0.586484        1.000000        0.00192360
      70         -0.559482        1.000000        0.00303575
      71         -0.554832        1.000000        0.02260828
      72         -0.553983        1.000000        0.00678498
      73         -0.550071        1.000000        0.00531110
      74         -0.549165        1.000000        0.04925703
      75         -0.547278        1.000000        0.04760213
      76         -0.546648        1.000000        0.01214957
      77         -0.544751        1.000000        0.03006510
      78         -0.544579        1.000000        0.04734485
      79         -0.543586        1.000000        0.01912346
      80         -0.542248        1.000000        0.00869845
      81         -0.541166        1.000000        0.05003762
      82         -0.540697        1.000000        0.04167033
      83         -0.539412        1.000000        0.04095863
      84         -0.538881        1.000000        0.02476290
      85         -0.537937        1.000000        0.06394700
      86         -0.537612        1.000000        0.04856135
      87         -0.536887        1.000000        0.03384624
      88         -0.535711        1.000000        0.00348930
      89         -0.535409        1.000000        0.00398917
      90         -0.534605        1.000000        0.02497883
      91         -0.531967        1.000000        0.02199375
      92         -0.531483        1.000000        0.03824857
      93         -0.531285        1.000000        0.01135975
      94         -0.530836        1.000000        0.01364445
      95         -0.530554        1.000000        0.00499308
      96         -0.529203        1.000000        0.01694290
      97         -0.528883        1.000000        0.00693568
      98         -0.528666        1.000000        0.01797827
      99         -0.526880        1.000000        0.17839342
     100         -0.524681        1.000000        0.04308222
     101         -0.524466        1.000000        0.01500956
     102         -0.521962        1.000000        0.10184686
     103         -0.521327        1.000000        0.10369000
     104         -0.520329        1.000000        0.02282119
     105         -0.519688        1.000000        0.19966512
     106         -0.513230        1.000000        0.27519399
     107         -0.511149        1.000000        0.22802168
     108         -0.505581        1.000000        0.25501659
     109         -0.485573        1.000000        0.32021589
     110         -0.482012        1.000000        0.33927410
     111         -0.481297        1.000000        0.31797113
     112         -0.478432        1.000000        0.36039527
     113         -0.478292        1.000000        0.33734366
     114         -0.475798        1.000000        0.33949487
     115         -0.475620        1.000000        0.34004829
     116         -0.475044        1.000000        0.33919566
     117         -0.474004        1.000000        0.35849398
     118         -0.471724        1.000000        0.34296618
     119         -0.471591        1.000000        0.34315302
     120         -0.471223        1.000000        0.34565550
     121         -0.471135        1.000000        0.34736028
     122         -0.469833        1.000000        0.34482416
     123         -0.469296        1.000000        0.35432707
     124         -0.467073        1.000000        0.34110766
     125         -0.465916        1.000000        0.32668065
     126         -0.465588        1.000000        0.33022780
     127         -0.464590        1.000000        0.35043177
     128         -0.463859        1.000000        0.34112664
     129         -0.463665        1.000000        0.33591132
     130         -0.461875        1.000000        0.33906162
     131         -0.461091        1.000000        0.36082199
     132         -0.460103        1.000000        0.34888714
     133         -0.459483        1.000000        0.32947992
     134         -0.457867        1.000000        0.34669428
     135         -0.456488        1.000000        0.35859819
     136         -0.454979        1.000000        0.35980459
     137         -0.454092        1.000000        0.33947524
     138         -0.452768        1.000000        0.34751953
     139         -0.450084        1.000000        0.35310679
     140         -0.448184        1.000000        0.34984673
     141         -0.447718        1.000000        0.34863313
     142         -0.446930        1.000000        0.35918724
     143         -0.446005        1.000000        0.33357063
     144         -0.441557        1.000000        0.32763448
     145         -0.441332        1.000000        0.32912282
     146         -0.439875        1.000000        0.34374574
     147         -0.437035        1.000000        0.35712342
     148         -0.433885        1.000000        0.33682629
     149         -0.433147        1.000000        0.34080293
     150         -0.433004        1.000000        0.33271335
     151         -0.432622        1.000000        0.36460666
     152         -0.431807        1.000000        0.17651429
     153         -0.431173        1.000000        0.17770586
     154         -0.428231        1.000000        0.34975299
     155         -0.426912        1.000000        0.01493116
     156         -0.423189        1.000000        0.34201457
     157         -0.422440        1.000000        0.32667537
     158         -0.419910        1.000000        0.25782184
     159         -0.419658        1.000000        0.36634696
     160         -0.419243        1.000000        0.09551547
     161         -0.418599        1.000000        0.15594142
     162         -0.417478        1.000000        0.03684233
     163         -0.415514        1.000000        0.07700151
     164         -0.412725        1.000000        0.05211666
     165         -0.412343        1.000000        0.22568383
     166         -0.411374        1.000000        0.02472971
     167         -0.410723        1.000000        0.02116285
     168         -0.408270        1.000000        0.15379645
     169         -0.405446        1.000000        0.19882973
     170         -0.402594        1.000000        0.17033038
     171         -0.401434        1.000000        0.35648489
     172         -0.397838        1.000000        0.35766717
     173         -0.395549        1.000000        0.36979250
     174         -0.394849        1.000000        0.35617469
     175         -0.394297        1.000000        0.34776435
     176         -0.393579        1.000000        0.36646005
     177         -0.392747        1.000000        0.35884471
     178         -0.389076        1.000000        0.34559519
     179         -0.386053        1.000000        0.36745546
     180         -0.384491        1.000000        0.36322767
     181         -0.383941        1.000000        0.17666255
     182         -0.378030        1.000000        0.17605985
     183         -0.373093        1.000000        0.18244861
     184         -0.371367        1.000000        0.42231910
     185         -0.369011        1.000000        0.17339040
     186         -0.368008        1.000000        0.41888163
     187         -0.366254        1.000000        0.41941851
     188         -0.365292        1.000000        0.42005463
     189         -0.359467        1.000000        0.15452566
     190         -0.356432        1.000000        0.41559667
     191         -0.354775        1.000000        0.40883451
     192         -0.351881        1.000000        0.37061959
     193         -0.345445        1.000000        0.43102859
     194         -0.342970        1.000000        0.34393960
     195         -0.339330        1.000000        0.15969247
     196         -0.331705        1.000000        0.26808764
     197         -0.331076        1.000000        0.35135091
     198         -0.330896        1.000000        0.10953338
     199         -0.329219        1.000000        0.42693884
     200         -0.323822        1.000000        0.41218291
     201         -0.323615        1.000000        0.20209009
     202         -0.317820        1.000000        0.11266245
     203         -0.315807        1.000000        0.41462193
     204         -0.315604        1.000000        0.11023146
     205         -0.314706        1.000000        0.15530300
     206         -0.310379        1.000000        0.13911712
     207         -0.308197        1.000000        0.06046898
     208         -0.306725        1.000000        0.13164571
     209         -0.305410        1.000000        0.10421544
     210         -0.303412        1.000000        0.06281629
     211         -0.300364        1.000000        0.17620655
     212         -0.299179        1.000000        0.05918848
     213         -0.298116        1.000000        0.13342460
     214         -0.291572        1.000000        0.11050177
     215         -0.289627        1.000000        0.10773009
     216         -0.289542        1.000000        0.03889014
     217         -0.289122        1.000000        0.09877256
     218         -0.280776        1.000000        0.10273326
     219         -0.280693        1.000000        0.09589487
     220         -0.277650        1.000000        0.10912750
     221         -0.277259        1.000000        0.03445705
     222         -0.275729        1.000000        0.11332638
     223         -0.270018        1.000000        0.11334449
     224         -0.269388        1.000000        0.09591946
     225         -0.267243        1.000000        0.04710694
     226         -0.262199        1.000000        0.05414085
     227         -0.259301        1.000000        0.07348198
     228         -0.252396        1.000000        0.03817004
     229         -0.250228        1.000000        0.07352366
     230         -0.247827        1.000000        0.05335540
     231         -0.244331        1.000000        0.01709918
     232         -0.243848        1.000000        0.01819877
     233         -0.242467        1.000000        0.03263613
     234         -0.241285        1.000000        0.00589986
     235         -0.241145        1.000000        0.00720205
     236         -0.240349        1.000000        0.00594276
     237         -0.238704        1.000000        0.00857556
     238         -0.238271        1.000000        0.02381902
     239         -0.238012        1.000000        0.01532795
     240         -0.236889        1.000000        0.00340420
     241         -0.236271        1.000000        0.02566010
     242         -0.235759        1.000000        0.02898791
     243         -0.234716        1.000000        0.01793877
     244         -0.233959        1.000000        0.02682767
     245         -0.233718        1.000000        0.06479354
     246         -0.233280        1.000000        0.04972553
     247         -0.232149        1.000000        0.02059891
     248         -0.231157        1.000000        0.00201952
     249         -0.230937        1.000000        0.01224317
     250         -0.230816        1.000000        0.00972465
     251         -0.230197        1.000000        0.01385432
     252         -0.229351        1.000000        0.01814451
     253         -0.229221        1.000000        0.01148633
     254         -0.228140        1.000000        0.00857041
     255         -0.227312        1.000000        0.00754400
     256         -0.226901        1.000000        0.03300884
     257         -0.226143        1.000000        0.00851807
     258         -0.224831        1.000000        0.00577989
     259         -0.222788        1.000000        0.01211776
     260         -0.222414        1.000000        0.02306881
     261         -0.222004        1.000000        0.01904847
     262         -0.221651        1.000000        0.04757052
     263         -0.220318        1.000000        0.01306805
     264         -0.219379        1.000000        0.00597941
     265         -0.218582        1.000000        0.00385001
     266         -0.217960        1.000000        0.00752369
     267         -0.217557        1.000000        0.01169890
     268         -0.217373        1.000000        0.01392488
     269         -0.216798        1.000000        0.04142986
     270         -0.216459        1.000000        0.03092132
     271         -0.216232        1.000000        0.03696287
     272         -0.215463        1.000000        0.00423977
     273         -0.214571        1.000000        0.00799548
     274         -0.213510        1.000000        0.00987192
     275         -0.212702        1.000000        0.02039135
     276         -0.212388        1.000000        0.02765177
     277         -0.212167        1.000000        0.04186490
     278         -0.211481        1.000000        0.06563312
     279         -0.211330        1.000000        0.05916936
     280         -0.211163        1.000000        0.01537308
     281         -0.210994        1.000000        0.01905501
     282         -0.210444        1.000000        0.00296865
     283         -0.209552        1.000000        0.00814661
     284         -0.208595        1.000000        0.00299995
     285         -0.207896        1.000000        0.00601659
     286         -0.207293        1.000000        0.00286373
     287         -0.206735        1.000000        0.00357134
     288         -0.205921        1.000000        0.00685843
     289         -0.205838        1.000000        0.00805449
     290         -0.205208        1.000000        0.01188536
     291         -0.204957        1.000000        0.00996988
     292         -0.203508        1.000000        0.00372927
     293         -0.202278        1.000000        0.01800614
     294         -0.201900        1.000000        0.01742458
     295         -0.201418        1.000000        0.02195676
     296         -0.201014        1.000000        0.02507411
     297         -0.200762        1.000000        0.03997397
     298         -0.200538        1.000000        0.00441895
     299         -0.200071        1.000000        0.03191599
     300         -0.199133        1.000000        0.00773294
     301         -0.198499        1.000000        0.00523705
     302         -0.197915        1.000000        0.00845217
     303         -0.195931        1.000000        0.02928111
     304         -0.195046        1.000000        0.01811894
     305         -0.194393        1.000000        0.00673438
     306         -0.193801        1.000000        0.00905697
     307         -0.193302        1.000000        0.00714450
     308         -0.192906        1.000000        0.02354829
     309         -0.192664        1.000000        0.01503778
     310         -0.191219        1.000000        0.04606893
     311         -0.190424        1.000000        0.00510615
     312         -0.189953        1.000000        0.00258693
     313         -0.189872        1.000000        0.00191875
     314         -0.189405        1.000000        0.00337061
     315         -0.188674        1.000000        0.01252263
     316         -0.187607        1.000000        0.00804486
     317         -0.186950        1.000000        0.00253229
     318         -0.185774        1.000000        0.01702557
     319         -0.185190        1.000000        0.00378781
     320         -0.183313        1.000000        0.00207607
     321         -0.182707        1.000000        0.00226899
     322         -0.181364        1.000000        0.00144652
     323         -0.180892        1.000000        0.00224164
     324         -0.180247        1.000000        0.00300764
     325         -0.179373        1.000000        0.00231077
     326         -0.178571        1.000000        0.00294611
     327         -0.177923        1.000000        0.00238135
     328         -0.177317        1.000000        0.00673983
     329         -0.176069        1.000000        0.00221707
     330         -0.175719        1.000000        0.00184873
     331         -0.175012        1.000000        0.00108760
     332         -0.174951        1.000000        0.00244516
     333         -0.174800        1.000000        0.00045636
     334         -0.174374        1.000000        0.00217443
     335         -0.173602        1.000000        0.00131829
     336         -0.173418        1.000000        0.00150115
     337         -0.172871        1.000000        0.00115095
     338         -0.172307        1.000000        0.00223299
     339         -0.171805        1.000000        0.00099296
     340         -0.171278        1.000000        0.00200726
     341         -0.170459        1.000000        0.00165191
     342         -0.169119        1.000000        0.00134840
     343         -0.168600        1.000000        0.00131850
     344         -0.168271        1.000000        0.00144321
     345         -0.167276        1.000000        0.00130603
     346         -0.167015        1.000000        0.00152633
     347         -0.166565        1.000000        0.00129347
     348         -0.166519        1.000000        0.00128112
     349         -0.165601        1.000000        0.00267373
     350         -0.164864        1.000000        0.00101242
     351         -0.164585        1.000000        0.00099602
     352         -0.164334        1.000000        0.00163079
     353         -0.164128        1.000000        0.00104313
     354         -0.163991        1.000000        0.00104540
     355         -0.163473        1.000000        0.00114971
     356         -0.162874        1.000000        0.00101206
     357         -0.161990        1.000000        0.00103543
     358         -0.161915        1.000000        0.00142091
     359         -0.161304        1.000000        0.00052284
     360         -0.161234        1.000000        0.00092303
     361         -0.161058        1.000000        0.00095430
     362         -0.160721        1.000000        0.00243437
     363         -0.160389        1.000000        0.00106253
     364         -0.160085        1.000000        0.00069578
     365         -0.159581        1.000000        0.00150215
     366         -0.159318        1.000000        0.00086368
     367         -0.159222        1.000000        0.00063958
     368         -0.158760        1.000000        0.00110140
     369         -0.158635        1.000000        0.00095680
     370         -0.157732        1.000000        0.00063804
     371         -0.157492        1.000000        0.00070633
     372         -0.157062        1.000000        0.00080092
     373         -0.156896        1.000000        0.00086333
     374         -0.156424        1.000000        0.00072513
     375         -0.156083        1.000000        0.00082073
     376         -0.155656        1.000000        0.00096092
     377         -0.154448        1.000000        0.00080060
     378         -0.154050        1.000000        0.00072722
     379         -0.153265        1.000000        0.00056302
     380         -0.152801        1.000000        0.00033821
     381         -0.152498        1.000000        0.00050113
     382         -0.151467        1.000000        0.00046932
     383         -0.150999        1.000000        0.00031034
     384         -0.150686        1.000000        0.00036120
     385         -0.150487        1.000000        0.00039178
     386         -0.149320        1.000000        0.00036855
     387         -0.148958        1.000000        0.00033364
     388         -0.148898        1.000000        0.00042398
     389         -0.148772        1.000000        0.00031140
     390         -0.148159        1.000000        0.00029973
     391         -0.147852        1.000000        0.00016051
     392         -0.147487        1.000000        0.00040972
     393         -0.147269        1.000000        0.00090460
     394         -0.146682        1.000000        0.00040393
     395         -0.146251        1.000000        0.00017444
     396         -0.146078        1.000000        0.00046870
     397         -0.144633        1.000000        0.00043923
     398         -0.143907        1.000000        0.00045700
     399         -0.143321        1.000000        0.00035324
     400         -0.142894        1.000000        0.00063231
     401         -0.142402        1.000000        0.00015791
     402         -0.141719        1.000000        0.00037636
     403         -0.141468        1.000000        0.00060660
     404         -0.141374        0.000000        0.00079899
     405         -0.139236        0.000000        0.00034675
     406         -0.137580        0.000000        0.00027388
     407         -0.101173        0.000000        0.00565595
     408         -0.097499        0.000000        0.00252123
     409         -0.091409        0.000000        0.00249705
     410         -0.033309        0.000000        0.00102347
     411         -0.028038        0.000000        0.00109722
     412         -0.025809        0.000000        0.00075891
     413         -0.023874        0.000000        0.00062436
     414         -0.021865        0.000000        0.00034539
     415         -0.019604        0.000000        0.00082956
     416         -0.014993        0.000000        0.00132637
     417         -0.012566        0.000000        0.00062775
     418         -0.011284        0.000000        0.00081950
     419         -0.006708        0.000000        0.00056489
     420         -0.006457        0.000000        0.00045168
     421         -0.003484        0.000000        0.00045866
     422         -0.001634        0.000000        0.00045792
     423          0.000989        0.000000        0.00054945
     424          0.003494        0.000000        0.00058871
     425          0.004010        0.000000        0.00068235
     426          0.005340        0.000000        0.00038932
     427          0.008326        0.000000        0.00109043
     428          0.010642        0.000000        0.00041829
     429          0.012998        0.000000        0.00046221
     430          0.019892        0.000000        0.00029539
     431          0.022537        0.000000        0.00025880
     432          0.023502        0.000000        0.00070488
     433          0.025172        0.000000        0.00059665
     434          0.132912        0.000000        0.00357770
     435          0.138965        0.000000        0.00432714
     436          0.150676        0.000000        0.00441221
     437          0.175985        0.000000        0.00703254
     438          0.202775        0.000000        0.00653649
     439          0.208147        0.000000        0.00554699
     440          0.210976        0.000000        0.00942570
     441          0.289255        0.000000        0.69621907
     442          0.295824        0.000000        0.68818346
     443          0.296399        0.000000        0.68508499
     444          0.299177        0.000000        0.67516611
     445          0.304730        0.000000        0.68900343
     446          0.305560        0.000000        0.68340803
     447          0.306906        0.000000        0.67836775
     448          0.307700        0.000000        0.68814965
     449          0.312133        0.000000        0.68013038
     450          0.313864        0.000000        0.67698460
     451          0.313934        0.000000        0.68411389
     452          0.321360        0.000000        0.66435922
     453          0.322135        0.000000        0.68241006
     454          0.322728        0.000000        0.67261980
     455          0.326304        0.000000        0.67531244
     456          0.327082        0.000000        0.67228705
     457          0.327860        0.000000        0.67281568
     458          0.328822        0.000000        0.66426733
     459          0.330841        0.000000        0.67514519
     460          0.332258        0.000000        0.67587383
     461          0.334572        0.000000        0.67036385
     462          0.338277        0.000000        0.66806064
     463          0.340426        0.000000        0.68322971
     464          0.343710        0.000000        0.66800227
     465          0.344835        0.000000        0.66681046
     466          0.348814        0.000000        0.67979617
     467          0.349580        0.000000        0.66282284
     468          0.350989        0.000000        0.66865962
     469          0.351878        0.000000        0.66893073
     470          0.352401        0.000000        0.66699348
     471          0.355586        0.000000        0.66633307
     472          0.361218        0.000000        0.65756292
     473          0.362221        0.000000        0.66255230
     474          0.364757        0.000000        0.66506314
     475          0.365203        0.000000        0.63537648
     476          0.366952        0.000000        0.66251518
     477          0.368652        0.000000        0.66145458
     478          0.369757        0.000000        0.66306049
     479          0.373151        0.000000        0.65735421
     480          0.377421        0.000000        0.65796560
     481          0.378672        0.000000        0.64984582
     482          0.378881        0.000000        0.64793101
     483          0.380612        0.000000        0.65405044
     484          0.380846        0.000000        0.64816084
     485          0.382854        0.000000        0.66105958
     486          0.382925        0.000000        0.66258333
     487          0.383870        0.000000        0.64904039
     488          0.387290        0.000000        0.64843618
     489          0.387309        0.000000        0.64693332