# Projected DOS for atomic kind H at iteration step i = 0, E(Fermi) =    -0.140361 a.u.
#     MO Eigenvalue [a.u.]      Occupation                 s
       1         -0.918191        1.000000        0.25327604
       2         -0.917865        1.000000        0.25503158
       3         -0.917339        1.000000        0.26219396
       4         -0.916815        1.000000        0.25430596
       5         -0.914459        1.000000        0.25951824
       6         -0.914303        1.000000        0.26340552
       7         -0.912550        1.000000        0.25384144
       8         -0.910361        1.000000        0.25565228
       9         -0.909538        1.000000        0.25833209
      10         -0.909163        1.000000        0.25632319
      11         -0.909158        1.000000        0.28174097
      12         -0.903153        1.000000        0.25502188
      13         -0.903152        1.000000        0.25509380
      14         -0.901865        1.000000        0.27997067
      15         -0.900039        1.000000        0.25498449
      16         -0.893468        1.000000        0.25417857
      17         -0.892218        1.000000        0.28086328
      18         -0.891559        1.000000        0.25481865
      19         -0.890341        1.000000        0.25565019
      20         -0.890052        1.000000        0.23998071
      21         -0.889217        1.000000        0.24163384
      22         -0.887765        1.000000        0.25413717
      23         -0.884622        1.000000        0.25439014
      24         -0.878900        1.000000        0.25354166
      25         -0.878014        1.000000        0.25482089
      26         -0.877925        1.000000        0.21822157
      27         -0.876530        1.000000        0.25882669
      28         -0.876402        1.000000        0.23481979
      29         -0.875144        1.000000        0.25409914
      30         -0.872704        1.000000        0.26074360
      31         -0.866191        1.000000        0.22274462
      32         -0.861107        1.000000        0.25737022
      33         -0.860727        1.000000        0.27089728
      34         -0.860032        1.000000        0.25429826
      35         -0.857151        1.000000        0.19416579
      36         -0.855051        1.000000        0.25553217
      37         -0.854259        1.000000        0.24575687
      38         -0.852719        1.000000        0.22450322
      39         -0.852590        1.000000        0.25139261
      40         -0.850559        1.000000        0.23944319
      41         -0.850287        1.000000        0.17364433
      42         -0.847838        1.000000        0.25410613
      43         -0.847064        1.000000        0.25753682
      44         -0.846027        1.000000        0.23134473
      45         -0.837577        1.000000        0.25759528
      46         -0.835010        1.000000        0.16185101
      47         -0.832614        1.000000        0.24511879
      48         -0.832020        1.000000        0.25612859
      49         -0.830276        1.000000        0.23423668
      50         -0.829685        1.000000        0.24839872
      51         -0.829438        1.000000        0.24852330
      52         -0.829144        1.000000        0.25609000
      53         -0.827276        1.000000        0.24984350
      54         -0.824423        1.000000        0.24190021
      55         -0.823790        1.000000        0.24377429
      56         -0.822335        1.000000        0.24604112
      57         -0.821007        1.000000        0.25402086
      58         -0.817811        1.000000        0.23741656
      59         -0.811598        1.000000        0.19902094
      60         -0.652584        1.000000        0.35011708
      61         -0.649832        1.000000        0.34239405
      62         -0.637966        1.000000        0.34705169
      63         -0.624070        1.000000        0.36478779
      64         -0.606431        1.000000        0.36972703
      65         -0.599570        1.000000        0.11992994
      66         -0.599393        1.000000        0.37017437
      67         -0.597633        1.000000        0.00966514
      68         -0.592509        1.000000        0.24461961
      69         -0.586498        1.000000        0.00192295
      70         -0.559261        1.000000        0.00301313
      71         -0.554937        1.000000        0.02274883
      72         -0.553820        1.000000        0.00671225
      73         -0.549403        1.000000        0.04844368
      74         -0.547144        1.000000        0.02093210
      75         -0.546522        1.000000        0.04110983
      76         -0.545055        1.000000        0.02714744
      77         -0.544331        1.000000        0.04964994
      78         -0.543233        1.000000        0.02264107
      79         -0.542088        1.000000        0.01032540
      80         -0.541345        1.000000        0.02677425
      81         -0.540437        1.000000        0.05579161
      82         -0.540324        1.000000        0.04051882
      83         -0.538679        1.000000        0.01677504
      84         -0.538307        1.000000        0.03118064
      85         -0.537652        1.000000        0.06444155
      86         -0.537170        1.000000        0.04724218
      87         -0.536419        1.000000        0.02885276
      88         -0.535726        1.000000        0.00401131
      89         -0.534170        1.000000        0.03865873
      90         -0.531881        1.000000        0.00414308
      91         -0.531728        1.000000        0.01874577
      92         -0.531233        1.000000        0.00659803
      93         -0.530857        1.000000        0.04375317
      94         -0.530751        1.000000        0.01507181
      95         -0.530303        1.000000        0.00805251
      96         -0.530036        1.000000        0.00704463
      97         -0.528373        1.000000        0.01545463
      98         -0.526836        1.000000        0.08443842
      99         -0.526288        1.000000        0.10003029
     100         -0.525633        1.000000        0.03745557
     101         -0.524190        1.000000        0.01529398
     102         -0.521516        1.000000        0.15214830
     103         -0.520836        1.000000        0.05852461
     104         -0.519692        1.000000        0.01959057
     105         -0.519610        1.000000        0.19212985
     106         -0.513225        1.000000        0.27512662
     107         -0.511165        1.000000        0.22941438
     108         -0.505617        1.000000        0.25594266
     109         -0.485500        1.000000        0.31914917
     110         -0.481987        1.000000        0.33906912
     111         -0.481260        1.000000        0.31774051
     112         -0.478430        1.000000        0.36039198
     113         -0.478274        1.000000        0.33717524
     114         -0.475794        1.000000        0.33945840
     115         -0.475610        1.000000        0.34002935
     116         -0.475008        1.000000        0.33877451
     117         -0.473995        1.000000        0.35849403
     118         -0.471727        1.000000        0.34306654
     119         -0.471580        1.000000        0.34314929
     120         -0.471221        1.000000        0.34630587
     121         -0.471140        1.000000        0.34679969
     122         -0.469794        1.000000        0.34479873
     123         -0.469286        1.000000        0.35431790
     124         -0.467066        1.000000        0.34112683
     125         -0.465912        1.000000        0.32665061
     126         -0.465577        1.000000        0.33021195
     127         -0.464584        1.000000        0.35041040
     128         -0.463841        1.000000        0.34111768
     129         -0.463633        1.000000        0.33562841
     130         -0.461869        1.000000        0.33905081
     131         -0.461101        1.000000        0.36079292
     132         -0.460094        1.000000        0.34881050
     133         -0.459483        1.000000        0.32955788
     134         -0.457859        1.000000        0.34668424
     135         -0.456460        1.000000        0.35861115
     136         -0.454971        1.000000        0.35984764
     137         -0.454083        1.000000        0.33947507
     138         -0.452752        1.000000        0.34751725
     139         -0.450054        1.000000        0.35310048
     140         -0.448165        1.000000        0.34976097
     141         -0.447709        1.000000        0.34863598
     142         -0.446929        1.000000        0.35916457
     143         -0.445975        1.000000        0.33357317
     144         -0.441544        1.000000        0.32763207
     145         -0.441302        1.000000        0.32927970
     146         -0.439866        1.000000        0.34374642
     147         -0.437027        1.000000        0.35720112
     148         -0.433872        1.000000        0.33680649
     149         -0.432999        1.000000        0.33269104
     150         -0.432885        1.000000        0.34129693
     151         -0.432526        1.000000        0.36398186
     152         -0.431800        1.000000        0.17670318
     153         -0.431163        1.000000        0.17774834
     154         -0.428206        1.000000        0.34986925
     155         -0.426697        1.000000        0.01592457
     156         -0.423130        1.000000        0.34109181
     157         -0.422455        1.000000        0.32333649
     158         -0.419962        1.000000        0.23965544
     159         -0.419657        1.000000        0.33594103
     160         -0.419549        1.000000        0.14659623
     161         -0.418636        1.000000        0.16302441
     162         -0.417056        1.000000        0.02922332
     163         -0.414832        1.000000        0.15100728
     164         -0.412667        1.000000        0.06398525
     165         -0.412101        1.000000        0.13160347
     166         -0.411403        1.000000        0.03403045
     167         -0.410497        1.000000        0.02571957
     168         -0.408060        1.000000        0.16382063
     169         -0.405314        1.000000        0.18421799
     170         -0.402561        1.000000        0.16964642
     171         -0.401733        1.000000        0.35617861
     172         -0.396903        1.000000        0.35858942
     173         -0.395532        1.000000        0.36981184
     174         -0.395386        1.000000        0.35531548
     175         -0.393612        1.000000        0.36700205
     176         -0.393174        1.000000        0.34892410
     177         -0.392082        1.000000        0.35982650
     178         -0.389067        1.000000        0.34557263
     179         -0.386150        1.000000        0.36732215
     180         -0.384350        1.000000        0.36324828
     181         -0.383936        1.000000        0.17672771
     182         -0.378015        1.000000        0.17604952
     183         -0.373099        1.000000        0.18219993
     184         -0.371361        1.000000        0.42234055
     185         -0.369000        1.000000        0.17340788
     186         -0.368002        1.000000        0.41885087
     187         -0.366242        1.000000        0.41941183
     188         -0.365284        1.000000        0.42005538
     189         -0.359470        1.000000        0.15451357
     190         -0.356430        1.000000        0.41558024
     191         -0.354769        1.000000        0.40887116
     192         -0.351857        1.000000        0.37059922
     193         -0.345418        1.000000        0.43102528
     194         -0.342961        1.000000        0.34394945
     195         -0.339324        1.000000        0.15968082
     196         -0.331727        1.000000        0.26837966
     197         -0.331053        1.000000        0.35130572
     198         -0.330895        1.000000        0.10920690
     199         -0.329209        1.000000        0.42695063
     200         -0.323807        1.000000        0.41218764
     201         -0.323607        1.000000        0.20190868
     202         -0.317657        1.000000        0.11260310
     203         -0.315812        1.000000        0.41465361
     204         -0.315592        1.000000        0.11021479
     205         -0.314698        1.000000        0.15526743
     206         -0.310369        1.000000        0.13913201
     207         -0.308181        1.000000        0.06049314
     208         -0.306702        1.000000        0.13151509
     209         -0.305382        1.000000        0.10421431
     210         -0.303407        1.000000        0.06281255
     211         -0.300389        1.000000        0.17658271
     212         -0.299180        1.000000        0.05889383
     213         -0.298090        1.000000        0.13353502
     214         -0.291613        1.000000        0.11055896
     215         -0.289746        1.000000        0.10844672
     216         -0.289526        1.000000        0.03831499
     217         -0.289252        1.000000        0.09862869
     218         -0.280397        1.000000        0.09591633
     219         -0.280294        1.000000        0.10284221
     220         -0.277661        1.000000        0.10916242
     221         -0.277258        1.000000        0.03445622
     222         -0.275719        1.000000        0.11333926
     223         -0.270037        1.000000        0.11345378
     224         -0.269127        1.000000        0.09583825
     225         -0.267235        1.000000        0.04700009
     226         -0.262039        1.000000        0.05384563
     227         -0.259285        1.000000        0.07349608
     228         -0.252379        1.000000        0.03815121
     229         -0.249958        1.000000        0.07477940
     230         -0.247807        1.000000        0.05331927
     231         -0.244332        1.000000        0.01710215
     232         -0.243844        1.000000        0.01847952
     233         -0.242422        1.000000        0.03358215
     234         -0.241052        1.000000        0.00629268
     235         -0.240399        1.000000        0.00664513
     236         -0.240236        1.000000        0.00500648
     237         -0.238679        1.000000        0.00794000
     238         -0.237994        1.000000        0.01405732
     239         -0.237659        1.000000        0.02637781
     240         -0.236844        1.000000        0.00316508
     241         -0.236159        1.000000        0.03159031
     242         -0.235663        1.000000        0.02470774
     243         -0.234655        1.000000        0.02242196
     244         -0.233947        1.000000        0.02695747
     245         -0.233701        1.000000        0.06418684
     246         -0.233354        1.000000        0.05120774
     247         -0.232116        1.000000        0.01903799
     248         -0.231137        1.000000        0.00180714
     249         -0.230874        1.000000        0.01058018
     250         -0.230853        1.000000        0.01287548
     251         -0.230510        1.000000        0.01117733
     252         -0.229423        1.000000        0.00843697
     253         -0.228717        1.000000        0.02225824
     254         -0.227573        1.000000        0.01122902
     255         -0.227097        1.000000        0.01700804
     256         -0.226234        1.000000        0.01315127
     257         -0.224983        1.000000        0.01350969
     258         -0.224180        1.000000        0.01269541
     259         -0.223122        1.000000        0.01197026
     260         -0.222035        1.000000        0.02162456
     261         -0.221579        1.000000        0.01420336
     262         -0.220808        1.000000        0.05211041
     263         -0.219460        1.000000        0.00586612
     264         -0.218769        1.000000        0.00758266
     265         -0.218514        1.000000        0.00408110
     266         -0.217715        1.000000        0.02498781
     267         -0.217293        1.000000        0.02836928
     268         -0.217245        1.000000        0.00796846
     269         -0.216794        1.000000        0.01499480
     270         -0.216421        1.000000        0.02933153
     271         -0.216205        1.000000        0.03386461
     272         -0.215418        1.000000        0.00357667
     273         -0.214442        1.000000        0.00640166
     274         -0.213599        1.000000        0.00886375
     275         -0.212613        1.000000        0.01231702
     276         -0.212279        1.000000        0.04255766
     277         -0.211669        1.000000        0.04089841
     278         -0.211416        1.000000        0.07438340
     279         -0.211222        1.000000        0.06176088
     280         -0.211069        1.000000        0.01244654
     281         -0.210801        1.000000        0.00947120
     282         -0.210367        1.000000        0.00385978
     283         -0.208818        1.000000        0.00578442
     284         -0.208143        1.000000        0.00326401
     285         -0.207445        1.000000        0.00370922
     286         -0.206956        1.000000        0.00366032
     287         -0.206595        1.000000        0.00413127
     288         -0.205966        1.000000        0.00606972
     289         -0.205822        1.000000        0.00547079
     290         -0.205038        1.000000        0.00798485
     291         -0.204525        1.000000        0.01155241
     292         -0.203325        1.000000        0.00428636
     293         -0.202251        1.000000        0.00896297
     294         -0.201535        1.000000        0.02683940
     295         -0.201107        1.000000        0.01428249
     296         -0.200678        1.000000        0.03110748
     297         -0.200518        1.000000        0.03721889
     298         -0.199922        1.000000        0.01451379
     299         -0.199626        1.000000        0.02025908
     300         -0.199138        1.000000        0.01615124
     301         -0.198260        1.000000        0.00668313
     302         -0.197887        1.000000        0.00862568
     303         -0.196222        1.000000        0.03359529
     304         -0.195171        1.000000        0.01377925
     305         -0.193785        1.000000        0.00959560
     306         -0.192741        1.000000        0.00285573
     307         -0.192572        1.000000        0.00831104
     308         -0.191876        1.000000        0.02304206
     309         -0.191474        1.000000        0.03462629
     310         -0.190903        1.000000        0.03058351
     311         -0.190199        1.000000        0.00585722
     312         -0.189920        1.000000        0.00272046
     313         -0.189664        1.000000        0.00155538
     314         -0.189262        1.000000        0.00356399
     315         -0.188507        1.000000        0.01262777
     316         -0.186876        1.000000        0.00279164
     317         -0.186285        1.000000        0.01095442
     318         -0.185044        1.000000        0.01545032
     319         -0.183739        1.000000        0.00239987
     320         -0.182464        1.000000        0.00221707
     321         -0.182004        1.000000        0.00157734
     322         -0.181162        1.000000        0.00173081
     323         -0.180410        1.000000        0.00226088
     324         -0.179959        1.000000        0.00265936
     325         -0.179144        1.000000        0.00223515
     326         -0.178460        1.000000        0.00277680
     327         -0.177457        1.000000        0.00706272
     328         -0.176969        1.000000        0.00261080
     329         -0.175602        1.000000        0.00244904
     330         -0.175493        1.000000        0.00126687
     331         -0.174917        1.000000        0.00116544
     332         -0.174795        1.000000        0.00036194
     333         -0.174649        1.000000        0.00221569
     334         -0.174064        1.000000        0.00220991
     335         -0.173547        1.000000        0.00138265
     336         -0.172792        1.000000        0.00145624
     337         -0.172230        1.000000        0.00155506
     338         -0.172177        1.000000        0.00235190
     339         -0.171367        1.000000        0.00111755
     340         -0.170466        1.000000        0.00162775
     341         -0.169794        1.000000        0.00134342
     342         -0.168710        1.000000        0.00128560
     343         -0.168154        1.000000        0.00138229
     344         -0.167871        1.000000        0.00160111
     345         -0.166957        1.000000        0.00128902
     346         -0.166329        1.000000        0.00123954
     347         -0.166070        1.000000        0.00197173
     348         -0.165679        1.000000        0.00153257
     349         -0.165236        1.000000        0.00184074
     350         -0.164465        1.000000        0.00152077
     351         -0.164283        1.000000        0.00110274
     352         -0.163953        1.000000        0.00147416
     353         -0.163698        1.000000        0.00112018
     354         -0.163371        1.000000        0.00126968
     355         -0.163121        1.000000        0.00091805
     356         -0.162149        1.000000        0.00086336
     357         -0.161659        1.000000        0.00119639
     358         -0.161376        1.000000        0.00134397
     359         -0.161015        1.000000        0.00050951
     360         -0.160742        1.000000        0.00097745
     361         -0.160445        1.000000        0.00087772
     362         -0.160351        1.000000        0.00206384
     363         -0.160274        1.000000        0.00143858
     364         -0.159978        1.000000        0.00058511
     365         -0.159492        1.000000        0.00069239
     366         -0.159056        1.000000        0.00106115
     367         -0.158834        1.000000        0.00100816
     368         -0.158499        1.000000        0.00112458
     369         -0.158218        1.000000        0.00105063
     370         -0.157225        1.000000        0.00068311
     371         -0.156875        1.000000        0.00080522
     372         -0.156423        1.000000        0.00077817
     373         -0.156290        1.000000        0.00091775
     374         -0.155673        1.000000        0.00091313
     375         -0.154811        1.000000        0.00082941
     376         -0.154084        1.000000        0.00054632
     377         -0.153485        1.000000        0.00056971
     378         -0.153278        1.000000        0.00067837
     379         -0.152549        1.000000        0.00026720
     380         -0.152105        1.000000        0.00038860
     381         -0.151272        1.000000        0.00042472
     382         -0.150691        1.000000        0.00021351
     383         -0.150033        1.000000        0.00046434
     384         -0.149816        1.000000        0.00058814
     385         -0.149269        1.000000        0.00035033
     386         -0.148858        1.000000        0.00096212
     387         -0.148704        1.000000        0.00070740
     388         -0.148379        1.000000        0.00026106
     389         -0.148115        1.000000        0.00054531
     390         -0.147819        1.000000        0.00023694
     391         -0.147665        1.000000        0.00026940
     392         -0.146304        1.000000        0.00041380
     393         -0.146184        1.000000        0.00029498
     394         -0.145868        1.000000        0.00038086
     395         -0.145080        1.000000        0.00042365
     396         -0.144737        1.000000        0.00034015
     397         -0.144098        1.000000        0.00036598
     398         -0.143022        1.000000        0.00025996
     399         -0.142999        1.000000        0.00024036
     400         -0.142493        1.000000        0.00026204
     401         -0.142066        1.000000        0.00018986
     402         -0.140361        1.000000        0.00098381
     403         -0.140343        0.000000        0.00038080
     404         -0.140300        0.000000        0.00064345
     405         -0.138459        0.000000        0.00024112
     406         -0.135389        0.000000        0.00028255
     407         -0.101153        0.000000        0.00564754
     408         -0.097488        0.000000        0.00252217
     409         -0.091421        0.000000        0.00249786
     410         -0.033046        0.000000        0.00101777
     411         -0.027729        0.000000        0.00107650
     412         -0.025610        0.000000        0.00076460
     413         -0.023645        0.000000        0.00066279
     414         -0.021376        0.000000        0.00036449
     415         -0.019536        0.000000        0.00081342
     416         -0.014721        0.000000        0.00131428
     417         -0.012184        0.000000        0.00062758
     418         -0.011103        0.000000        0.00079142
     419         -0.006627        0.000000        0.00042127
     420         -0.006409        0.000000        0.00058139
     421         -0.003340        0.000000        0.00044012
     422         -0.001065        0.000000        0.00042833
     423          0.001197        0.000000        0.00053739
     424          0.003753        0.000000        0.00061927
     425          0.005330        0.000000        0.00058869
     426          0.005507        0.000000        0.00052204
     427          0.008582        0.000000        0.00111530
     428          0.010867        0.000000        0.00042565
     429          0.013455        0.000000        0.00047022
     430          0.020117        0.000000        0.00029697
     431          0.022816        0.000000        0.00070655
     432          0.023074        0.000000        0.00025561
     433          0.025457        0.000000        0.00060451
     434          0.132918        0.000000        0.00357673
     435          0.138971        0.000000        0.00432677
     436          0.150680        0.000000        0.00441259
     437          0.176004        0.000000        0.00702916
     438          0.202778        0.000000        0.00653593
     439          0.208154        0.000000        0.00554751
     440          0.210989        0.000000        0.00942275
     441          0.289266        0.000000        0.69621781
     442          0.295837        0.000000        0.68817567
     443          0.296411        0.000000        0.68507522
     444          0.299186        0.000000        0.67515549
     445          0.304736        0.000000        0.68899576
     446          0.305572        0.000000        0.68340905
     447          0.306921        0.000000        0.67835654
     448          0.307709        0.000000        0.68816271
     449          0.312160        0.000000        0.68013418
     450          0.313899        0.000000        0.67740186
     451          0.313943        0.000000        0.68361511
     452          0.321378        0.000000        0.66436460
     453          0.322143        0.000000        0.68240630
     454          0.322688        0.000000        0.67271717
     455          0.326415        0.000000        0.67520728
     456          0.327077        0.000000        0.67237221
     457          0.328027        0.000000        0.67248701
     458          0.328841        0.000000        0.66427281
     459          0.330872        0.000000        0.67501380
     460          0.332259        0.000000        0.67589380
     461          0.334565        0.000000        0.67038466
     462          0.338280        0.000000        0.66805160
     463          0.340426        0.000000        0.68323898
     464          0.343716        0.000000        0.66798853
     465          0.344841        0.000000        0.66683795
     466          0.348824        0.000000        0.67979465
     467          0.349581        0.000000        0.66283712
     468          0.351000        0.000000        0.66866030
     469          0.351937        0.000000        0.66871874
     470          0.352410        0.000000        0.66699528
     471          0.355678        0.000000        0.66622585
     472          0.361221        0.000000        0.65756937
     473          0.362230        0.000000        0.66255419
     474          0.364705        0.000000        0.66517326
     475          0.365224        0.000000        0.63533464
     476          0.366966        0.000000        0.66252147
     477          0.368890        0.000000        0.66112414
     478          0.369773        0.000000        0.66303316
     479          0.373146        0.000000        0.65728802
     480          0.377441        0.000000        0.65796151
     481          0.378681        0.000000        0.64982647
     482          0.378887        0.000000        0.64796321
     483          0.380620        0.000000        0.65405028
     484          0.380785        0.000000        0.64876071
     485          0.382887        0.000000        0.66100065
     486          0.382942        0.000000        0.66146184
     487          0.383875        0.000000        0.64968274
     488          0.387312        0.000000        0.64756938
     489          0.387313        0.000000        0.64778230