# Projected DOS for atomic kind C at iteration step i = 0, E(Fermi) =    -0.140361 a.u.
#     MO Eigenvalue [a.u.]      Occupation                 s                py                pz                px
       1         -0.918191        1.000000        0.00000280        0.00000087        0.00000163        0.00000207
       2         -0.917865        1.000000        0.00000276        0.00000262        0.00000005        0.00000186
       3         -0.917339        1.000000        0.00000000        0.00000000        0.00000000        0.00000000
       4         -0.916815        1.000000        0.00000000        0.00000000        0.00000001        0.00000001
       5         -0.914459        1.000000        0.00000005        0.00000001        0.00000002        0.00000004
       6         -0.914303        1.000000        0.00000130        0.00000010        0.00000260        0.00000197
       7         -0.912550        1.000000        0.00000001        0.00000001        0.00000002        0.00000004
       8         -0.910361        1.000000        0.00007545        0.00000002        0.00000009        0.00007298
       9         -0.909538        1.000000        0.00000017        0.00000012        0.00000003        0.00000007
      10         -0.909163        1.000000        0.00168692        0.00000292        0.00044404        0.00081355
      11         -0.909158        1.000000        0.05574999        0.00009544        0.01468414        0.02684509
      12         -0.903153        1.000000        0.00001244        0.00000178        0.00001078        0.00000344
      13         -0.903152        1.000000        0.00001447        0.00000299        0.00001031        0.00000251
      14         -0.901865        1.000000        0.06366485        0.00194945        0.02281951        0.01958450
      15         -0.900039        1.000000        0.00000001        0.00000000        0.00000000        0.00000002
      16         -0.893468        1.000000        0.00000065        0.00000010        0.00000025        0.00000005
      17         -0.892218        1.000000        0.06143081        0.00094071        0.00934284        0.03363809
      18         -0.891559        1.000000        0.00000001        0.00000001        0.00000002        0.00000003
      19         -0.890341        1.000000        0.00000002        0.00000001        0.00000002        0.00000001
      20         -0.890052        1.000000        0.00006151        0.00000008        0.00007125        0.00017444
      21         -0.889217        1.000000        0.00000056        0.00000022        0.00000027        0.00000004
      22         -0.887765        1.000000        0.00000007        0.00000001        0.00000000        0.00000004
      23         -0.884622        1.000000        0.00000003        0.00000000        0.00000001        0.00000002
      24         -0.878900        1.000000        0.00964741        0.00002891        0.00007808        0.00698916
      25         -0.878014        1.000000        0.00000002        0.00000006        0.00000000        0.00000000
      26         -0.877925        1.000000        0.00000016        0.00000001        0.00000000        0.00000017
      27         -0.876530        1.000000        0.00002401        0.00000159        0.00000071        0.00001930
      28         -0.876402        1.000000        0.00000009        0.00000009        0.00000007        0.00000000
      29         -0.875144        1.000000        0.00000007        0.00000012        0.00000023        0.00000041
      30         -0.872704        1.000000        0.00210054        0.00000638        0.00019733        0.00145868
      31         -0.866191        1.000000        0.00000000        0.00000000        0.00000000        0.00000000
      32         -0.861107        1.000000        0.00000002        0.00000014        0.00000001        0.00000006
      33         -0.860727        1.000000        0.00419459        0.00015356        0.00001611        0.00308593
      34         -0.860032        1.000000        0.00561654        0.00030143        0.00281753        0.00127527
      35         -0.857151        1.000000        0.00002002        0.00001574        0.00005084        0.00009980
      36         -0.855051        1.000000        0.06462442        0.00038871        0.00104282        0.03755254
      37         -0.854259        1.000000        0.00024813        0.00000048        0.00008890        0.00011822
      38         -0.852719        1.000000        0.00000078        0.00000001        0.00000006        0.00000045
      39         -0.852590        1.000000        0.02393001        0.00029870        0.00189575        0.01384071
      40         -0.850559        1.000000        0.00000000        0.00000004        0.00000001        0.00000004
      41         -0.850287        1.000000        0.00002043        0.00000038        0.00000001        0.00001494
      42         -0.847838        1.000000        0.01585486        0.00032709        0.00000098        0.01080845
      43         -0.847064        1.000000        0.00000046        0.00000000        0.00000002        0.00000021
      44         -0.846027        1.000000        0.00000000        0.00000003        0.00000001        0.00000000
      45         -0.837577        1.000000        0.00000000        0.00000000        0.00000000        0.00000000
      46         -0.835010        1.000000        0.00000011        0.00000104        0.00000016        0.00000015
      47         -0.832614        1.000000        0.03724604        0.00023895        0.00003764        0.02352510
      48         -0.832020        1.000000        0.00000047        0.00000005        0.00000001        0.00000007
      49         -0.830276        1.000000        0.05337678        0.00139596        0.00340983        0.02514025
      50         -0.829685        1.000000        0.00000018        0.00000021        0.00000007        0.00000000
      51         -0.829438        1.000000        0.00006651        0.00000145        0.00000454        0.00003046
      52         -0.829144        1.000000        0.00000000        0.00000000        0.00000000        0.00000000
      53         -0.827276        1.000000        0.00003773        0.00000131        0.00000001        0.00003417
      54         -0.824423        1.000000        0.00000004        0.00000011        0.00000047        0.00000031
      55         -0.823790        1.000000        0.00485214        0.00003846        0.00001223        0.00348490
      56         -0.822335        1.000000        0.00000002        0.00000032        0.00000014        0.00000013
      57         -0.821007        1.000000        0.07512161        0.00134422        0.02790954        0.01297750
      58         -0.817811        1.000000        0.00000000        0.00000000        0.00000000        0.00000000
      59         -0.811598        1.000000        0.00902486        0.00009052        0.00002069        0.00439515
      60         -0.652584        1.000000        0.43955296        0.00002293        0.00123566        0.00074022
      61         -0.649832        1.000000        0.44235021        0.00000035        0.00029120        0.00067274
      62         -0.637966        1.000000        0.44069281        0.00010239        0.00045368        0.00102305
      63         -0.624070        1.000000        0.43475879        0.00006826        0.00034769        0.00528323
      64         -0.606431        1.000000        0.42708590        0.00068030        0.00052810        0.00638048
      65         -0.599570        1.000000        0.14185418        0.00001906        0.00009584        0.00076167
      66         -0.599393        1.000000        0.42705051        0.00015084        0.00446159        0.00281006
      67         -0.597633        1.000000        0.00103033        0.00124516        0.00001891        0.00007399
      68         -0.592509        1.000000        0.29115851        0.00008812        0.00008028        0.00349905
      69         -0.586498        1.000000        0.00004659        0.00001757        0.00003327        0.00000034
      70         -0.559261        1.000000        0.00022269        0.00012858        0.00023330        0.00023245
      71         -0.554937        1.000000        0.00014272        0.00291651        0.00015477        0.00031299
      72         -0.553820        1.000000        0.00039838        0.00040385        0.00039253        0.00015900
      73         -0.549403        1.000000        0.00102694        0.00251763        0.00141417        0.00284189
      74         -0.547144        1.000000        0.00023819        0.00044284        0.00192630        0.00110100
      75         -0.546522        1.000000        0.00043832        0.00187498        0.00356558        0.00124994
      76         -0.545055        1.000000        0.00078582        0.00294337        0.00084610        0.00021191
      77         -0.544331        1.000000        0.00026505        0.00197856        0.00353706        0.00099996
      78         -0.543233        1.000000        0.00007810        0.00188164        0.00031556        0.00042102
      79         -0.542088        1.000000        0.00018800        0.00067733        0.00035631        0.00038604
      80         -0.541345        1.000000        0.00015277        0.00101877        0.00216329        0.00142265
      81         -0.540437        1.000000        0.00014928        0.00296727        0.00255586        0.00182874
      82         -0.540324        1.000000        0.00015383        0.00449230        0.00099454        0.00045917
      83         -0.538679        1.000000        0.00006550        0.00052045        0.00066177        0.00033784
      84         -0.538307        1.000000        0.00018321        0.00172174        0.00145842        0.00160055
      85         -0.537652        1.000000        0.00014678        0.00311725        0.00522218        0.00304123
      86         -0.537170        1.000000        0.00016953        0.00242083        0.00358847        0.00162369
      87         -0.536419        1.000000        0.00006301        0.00045423        0.00287000        0.00115042
      88         -0.535726        1.000000        0.00000884        0.00019304        0.00014942        0.00007202
      89         -0.534170        1.000000        0.00020079        0.00279385        0.00223058        0.00129981
      90         -0.531881        1.000000        0.00008966        0.00034058        0.00010884        0.00006022
      91         -0.531728        1.000000        0.00015624        0.00089306        0.00036797        0.00024896
      92         -0.531233        1.000000        0.00004821        0.00011600        0.00007663        0.00004701
      93         -0.530857        1.000000        0.00005205        0.00387783        0.00178865        0.00036259
      94         -0.530751        1.000000        0.00007831        0.00050158        0.00105086        0.00059435
      95         -0.530303        1.000000        0.00001842        0.00045365        0.00036724        0.00012745
      96         -0.530036        1.000000        0.00006717        0.00032929        0.00009830        0.00013506
      97         -0.528373        1.000000        0.00003284        0.00008455        0.00023773        0.00010017
      98         -0.526836        1.000000        0.00010195        0.00572385        0.00472968        0.00283669
      99         -0.526288        1.000000        0.00016176        0.00361962        0.00817656        0.00380667
     100         -0.525633        1.000000        0.00016551        0.00342736        0.00137771        0.00151544
     101         -0.524190        1.000000        0.00000406        0.00008197        0.00002898        0.00001276
     102         -0.521516        1.000000        0.00009244        0.02771675        0.00215579        0.00077781
     103         -0.520836        1.000000        0.00006482        0.00972056        0.00116187        0.00049421
     104         -0.519692        1.000000        0.00000746        0.00304795        0.00030922        0.00006506
     105         -0.519610        1.000000        0.00015762        0.03786469        0.00405800        0.00079846
     106         -0.513225        1.000000        0.00000223        0.03090337        0.01563619        0.00837705
     107         -0.511165        1.000000        0.00005751        0.00422208        0.02556447        0.03000458
     108         -0.505617        1.000000        0.00010283        0.02315117        0.02938888        0.00633972
     109         -0.485500        1.000000        0.00001391        0.06062171        0.02215937        0.00002602
     110         -0.481987        1.000000        0.00002457        0.00007378        0.00006008        0.00018730
     111         -0.481260        1.000000        0.00001323        0.01951916        0.05347940        0.00188909
     112         -0.478430        1.000000        0.00000016        0.00043449        0.00021520        0.00012577
     113         -0.478274        1.000000        0.00000062        0.00000611        0.00067574        0.00008261
     114         -0.475794        1.000000        0.00002076        0.00267217        0.06436010        0.00673399
     115         -0.475610        1.000000        0.00000168        0.00023292        0.00443684        0.00044414
     116         -0.475008        1.000000        0.00000128        0.00001024        0.00004973        0.00001412
     117         -0.473995        1.000000        0.00000007        0.00000008        0.00000060        0.00000150
     118         -0.471727        1.000000        0.00000016        0.00005181        0.00003797        0.00000195
     119         -0.471580        1.000000        0.00000134        0.03841506        0.02973613        0.00059454
     120         -0.471221        1.000000        0.00000044        0.00001726        0.00000927        0.00000381
     121         -0.471140        1.000000        0.00000079        0.00000526        0.00000249        0.00000355
     122         -0.469794        1.000000        0.00000170        0.00093005        0.00066875        0.00062549
     123         -0.469286        1.000000        0.00000609        0.00000083        0.00014175        0.00000464
     124         -0.467066        1.000000        0.00000063        0.00001159        0.00008627        0.00003869
     125         -0.465912        1.000000        0.00025859        0.05309015        0.00143952        0.00662681
     126         -0.465577        1.000000        0.00002260        0.00501184        0.00022944        0.00067569
     127         -0.464584        1.000000        0.00000758        0.00121180        0.00016033        0.00015646
     128         -0.463841        1.000000        0.00000243        0.00586509        0.00185880        0.00094764
     129         -0.463633        1.000000        0.00003221        0.04522855        0.01324911        0.00645634
     130         -0.461869        1.000000        0.00000773        0.00022617        0.00006994        0.00000337
     131         -0.461101        1.000000        0.00000088        0.00000223        0.00000437        0.00001652
     132         -0.460094        1.000000        0.00010728        0.00255051        0.00333391        0.00007494
     133         -0.459483        1.000000        0.00098804        0.02621964        0.03517007        0.00038823
     134         -0.457859        1.000000        0.00000006        0.00000478        0.00000079        0.00000065
     135         -0.456460        1.000000        0.00000039        0.00001337        0.00000280        0.00000133
     136         -0.454971        1.000000        0.00000054        0.00000267        0.00001828        0.00000905
     137         -0.454083        1.000000        0.00000083        0.00002933        0.00038157        0.00037908
     138         -0.452752        1.000000        0.00034113        0.00057045        0.00020636        0.00189605
     139         -0.450054        1.000000        0.00000006        0.00035612        0.00000700        0.00009050
     140         -0.448165        1.000000        0.00001654        0.00002545        0.00002262        0.00016417
     141         -0.447709        1.000000        0.00001423        0.00059599        0.00004129        0.00011726
     142         -0.446929        1.000000        0.00000365        0.00000588        0.00004733        0.00000591
     143         -0.445975        1.000000        0.00005442        0.01608246        0.00701931        0.02238366
     144         -0.441544        1.000000        0.00000102        0.00005651        0.00006725        0.00015942
     145         -0.441302        1.000000        0.00007215        0.00828246        0.01284672        0.03098014
     146         -0.439866        1.000000        0.00000324        0.00007060        0.00025635        0.00000497
     147         -0.437027        1.000000        0.00000007        0.00000030        0.00000326        0.00000429
     148         -0.433872        1.000000        0.00035577        0.00944187        0.00215074        0.00260005
     149         -0.432999        1.000000        0.00001840        0.00082419        0.00173742        0.00005795
     150         -0.432885        1.000000        0.00000917        0.00000310        0.00004871        0.00009799
     151         -0.432526        1.000000        0.00011449        0.00006880        0.00095985        0.00086730
     152         -0.431800        1.000000        0.02132213        0.01274920        0.17780822        0.15118024
     153         -0.431163        1.000000        0.02577485        0.00115475        0.11525622        0.22166778
     154         -0.428206        1.000000        0.00000198        0.00049610        0.00070821        0.00168820
     155         -0.426697        1.000000        0.00015046        0.00007506        0.00088560        0.00086567
     156         -0.423130        1.000000        0.00000358        0.00000757        0.00002709        0.00003379
     157         -0.422455        1.000000        0.00015375        0.00034270        0.00112945        0.00164357
     158         -0.419962        1.000000        0.00008634        0.00028933        0.00024946        0.00109780
     159         -0.419657        1.000000        0.00001659        0.00004668        0.00004588        0.00033685
     160         -0.419549        1.000000        0.00000940        0.00041782        0.00006855        0.00030548
     161         -0.418636        1.000000        0.01986184        0.00644300        0.06650366        0.22742173
     162         -0.417056        1.000000        0.00097170        0.00047129        0.00394162        0.01146592
     163         -0.414832        1.000000        0.00003867        0.00005876        0.00015640        0.00031396
     164         -0.412667        1.000000        0.00053707        0.00013428        0.00358833        0.00708439
     165         -0.412101        1.000000        0.00001905        0.00003315        0.00010229        0.00030093
     166         -0.411403        1.000000        0.00075676        0.00012399        0.00479088        0.00919723
     167         -0.410497        1.000000        0.00012528        0.00005475        0.00029608        0.00260490
     168         -0.408060        1.000000        0.00009316        0.00012934        0.00026458        0.00140564
     169         -0.405314        1.000000        0.00042011        0.00012670        0.00016339        0.00991355
     170         -0.402561        1.000000        0.01303544        0.00017745        0.00094997        0.32983572
     171         -0.401733        1.000000        0.00000033        0.00000300        0.00000780        0.00000339
     172         -0.396903        1.000000        0.00000112        0.00000108        0.00000002        0.00002611
     173         -0.395532        1.000000        0.00000003        0.00000013        0.00000004        0.00000106
     174         -0.395386        1.000000        0.00002968        0.00126407        0.00234342        0.00486984
     175         -0.393612        1.000000        0.00000188        0.00004230        0.00011649        0.00030714
     176         -0.393174        1.000000        0.00000330        0.00000960        0.00005239        0.00000101
     177         -0.392082        1.000000        0.00000231        0.00000857        0.00000144        0.00002325
     178         -0.389067        1.000000        0.00000011        0.00000013        0.00000087        0.00000624
     179         -0.386150        1.000000        0.00000025        0.00000161        0.00000278        0.00002443
     180         -0.384350        1.000000        0.00003839        0.00000431        0.00015516        0.00207719
     181         -0.383936        1.000000        0.01126950        0.00042818        0.03486130        0.30456801
     182         -0.378015        1.000000        0.01174290        0.03034324        0.19661120        0.11802926
     183         -0.373099        1.000000        0.01532886        0.01459885        0.00011993        0.31821951
     184         -0.371361        1.000000        0.00006960        0.48637627        0.00118188        0.03119165
     185         -0.369000        1.000000        0.00000368        0.00737403        0.00490046        0.00227411
     186         -0.368002        1.000000        0.00004602        0.01033275        0.24637962        0.26017878
     187         -0.366242        1.000000        0.00001881        0.02700147        0.32344964        0.18291732
     188         -0.365284        1.000000        0.00001043        0.50505409        0.02402915        0.00451303
     189         -0.359470        1.000000        0.00002234        0.00040259        0.00002202        0.00065488
     190         -0.356430        1.000000        0.00006907        0.03694171        0.37868206        0.09618761
     191         -0.354769        1.000000        0.00000274        0.45471086        0.02219114        0.03564960
     192         -0.351857        1.000000        0.00000850        0.11330354        0.34780341        0.00063154
     193         -0.345418        1.000000        0.00001050        0.38214201        0.12694318        0.00005719
     194         -0.342961        1.000000        0.00008518        0.41984319        0.00127935        0.00071373
     195         -0.339324        1.000000        0.00046365        0.02696548        0.00732954        0.00008235
     196         -0.331727        1.000000        0.00009638        0.12530337        0.11743406        0.01341812
     197         -0.331053        1.000000        0.00001586        0.27562069        0.00323605        0.13521465
     198         -0.330895        1.000000        0.00001216        0.00461006        0.00406696        0.00153203
     199         -0.329209        1.000000        0.00005562        0.00119662        0.45168316        0.05077734
     200         -0.323807        1.000000        0.00003527        0.11576015        0.19840027        0.16992224
     201         -0.323607        1.000000        0.00000497        0.04597635        0.08956394        0.00278103
     202         -0.317657        1.000000        0.00000105        0.00000902        0.00005643        0.00010058
     203         -0.315812        1.000000        0.00014602        0.22555585        0.26729476        0.00794262
     204         -0.315592        1.000000        0.00000202        0.00066436        0.00012096        0.00007516
     205         -0.314698        1.000000        0.00000050        0.04961266        0.00095275        0.00457798
     206         -0.310369        1.000000        0.00000063        0.01215849        0.02961656        0.00860823
     207         -0.308181        1.000000        0.00000729        0.00028296        0.00009531        0.00003906
     208         -0.306702        1.000000        0.00000347        0.04373660        0.00001197        0.00003566
     209         -0.305382        1.000000        0.00000050        0.00002195        0.00000370        0.00000002
     210         -0.303407        1.000000        0.00017573        0.00303304        0.00059271        0.00008056
     211         -0.300389        1.000000        0.00000305        0.06543785        0.01703221        0.00019002
     212         -0.299180        1.000000        0.00001161        0.00483975        0.00174076        0.00063356
     213         -0.298090        1.000000        0.00000066        0.02234073        0.00533198        0.01479930
     214         -0.291613        1.000000        0.00000035        0.00006080        0.00001203        0.00001624
     215         -0.289746        1.000000        0.00000070        0.00006589        0.00001548        0.00003504
     216         -0.289526        1.000000        0.00002251        0.00013674        0.00011596        0.00003304
     217         -0.289252        1.000000        0.00000098        0.00005358        0.00000206        0.00000671
     218         -0.280397        1.000000        0.00000059        0.00000102        0.00000756        0.00000065
     219         -0.280294        1.000000        0.00000002        0.00000190        0.00000050        0.00000099
     220         -0.277661        1.000000        0.00000039        0.00000559        0.00001442        0.00000098
     221         -0.277258        1.000000        0.00009308        0.00012931        0.00001774        0.00002270
     222         -0.275719        1.000000        0.00000052        0.02566548        0.00017829        0.00648857
     223         -0.270037        1.000000        0.00001953        0.01578943        0.00715531        0.00016104
     224         -0.269127        1.000000        0.00000106        0.00000800        0.00000657        0.00000041
     225         -0.267235        1.000000        0.00001749        0.00112917        0.00065371        0.00044519
     226         -0.262039        1.000000        0.00000901        0.00001957        0.00000416        0.00002032
     227         -0.259285        1.000000        0.00000342        0.00338453        0.00857108        0.00762483
     228         -0.252379        1.000000        0.00005073        0.00022243        0.00009070        0.00006906
     229         -0.249958        1.000000        0.00000118        0.00000214        0.00000349        0.00000201
     230         -0.247807        1.000000        0.00001024        0.00190378        0.00018258        0.00800805
     231         -0.244332        1.000000        0.00008432        0.00072638        0.00001682        0.00010520
     232         -0.243844        1.000000        0.00002371        0.00098176        0.00034300        0.00002082
     233         -0.242422        1.000000        0.00002117        0.00053573        0.00025189        0.00009611
     234         -0.241052        1.000000        0.00001422        0.00018745        0.00002593        0.00016823
     235         -0.240399        1.000000        0.00001255        0.00002416        0.00003937        0.00001614
     236         -0.240236        1.000000        0.00001307        0.00019076        0.00010135        0.00027909
     237         -0.238679        1.000000        0.00001398        0.00002695        0.00002492        0.00043009
     238         -0.237994        1.000000        0.00001275        0.00010619        0.00022174        0.00004561
     239         -0.237659        1.000000        0.00001471        0.00060663        0.00031977        0.00006552
     240         -0.236844        1.000000        0.00009825        0.00034814        0.00020827        0.00006210
     241         -0.236159        1.000000        0.00001404        0.00581680        0.00186995        0.00004154
     242         -0.235663        1.000000        0.00000338        0.00280585        0.00084137        0.00005685
     243         -0.234655        1.000000        0.00001382        0.00097571        0.00027730        0.00007301
     244         -0.233947        1.000000        0.00000371        0.00381236        0.00021307        0.00204457
     245         -0.233701        1.000000        0.00000274        0.00012194        0.00004491        0.00004383
     246         -0.233354        1.000000        0.00016241        0.00474541        0.00097325        0.00008262
     247         -0.232116        1.000000        0.00000996        0.00088878        0.00045063        0.00038888
     248         -0.231137        1.000000        0.00000104        0.00014241        0.00028929        0.00053313
     249         -0.230874        1.000000        0.00003099        0.00019905        0.00002182        0.00033050
     250         -0.230853        1.000000        0.00004257        0.00023377        0.00015308        0.00016114
     251         -0.230510        1.000000        0.00002344        0.00008417        0.00007770        0.00053565
     252         -0.229423        1.000000        0.00002472        0.00012871        0.00022865        0.00009550
     253         -0.228717        1.000000        0.00000816        0.00069270        0.00029489        0.00291217
     254         -0.227573        1.000000        0.00014004        0.00091156        0.00083983        0.00028121
     255         -0.227097        1.000000        0.00017689        0.00206487        0.00106108        0.00108088
     256         -0.226234        1.000000        0.00012382        0.00138661        0.00045950        0.00063272
     257         -0.224983        1.000000        0.00009451        0.00089548        0.00021036        0.00061607
     258         -0.224180        1.000000        0.00002122        0.00035326        0.00018601        0.00028595
     259         -0.223122        1.000000        0.00038146        0.00144088        0.00016014        0.00009718