# Projected DOS for atomic kind Pb at iteration step i = 0, E(Fermi) =    -0.140361 a.u.
#     MO Eigenvalue [a.u.]      Occupation                 s                py                pz                px
       1         -0.918191        1.000000        0.00000000        0.00000002        0.00000001        0.00000000
       2         -0.917865        1.000000        0.00000011        0.00000001        0.00000062        0.00000000
       3         -0.917339        1.000000        0.00000104        0.00001519        0.00000246        0.00000716
       4         -0.916815        1.000000        0.00000073        0.00001289        0.00000253        0.00000402
       5         -0.914459        1.000000        0.00000030        0.00000186        0.00000327        0.00000006
       6         -0.914303        1.000000        0.00000028        0.00000074        0.00000048        0.00000503
       7         -0.912550        1.000000        0.00000013        0.00000000        0.00000040        0.00000003
       8         -0.910361        1.000000        0.00000006        0.00000013        0.00000163        0.00000029
       9         -0.909538        1.000000        0.00000003        0.00000008        0.00000047        0.00000016
      10         -0.909163        1.000000        0.00000009        0.00000105        0.00000029        0.00000323
      11         -0.909158        1.000000        0.00000013        0.00000139        0.00000147        0.00000048
      12         -0.903153        1.000000        0.00000011        0.00000058        0.00000000        0.00000004
      13         -0.903152        1.000000        0.00000011        0.00000059        0.00000001        0.00000004
      14         -0.901865        1.000000        0.00000110        0.00001081        0.00000997        0.00001589
      15         -0.900039        1.000000        0.00000009        0.00000310        0.00000059        0.00000060
      16         -0.893468        1.000000        0.00000008        0.00000001        0.00000003        0.00000037
      17         -0.892218        1.000000        0.00000026        0.00000139        0.00000331        0.00000204
      18         -0.891559        1.000000        0.00000033        0.00000000        0.00000001        0.00000121
      19         -0.890341        1.000000        0.00000582        0.00001005        0.00003320        0.00006988
      20         -0.890052        1.000000        0.00000005        0.00000032        0.00000014        0.00000122
      21         -0.889217        1.000000        0.00000009        0.00000041        0.00000242        0.00000008
      22         -0.887765        1.000000        0.00000074        0.00000483        0.00000062        0.00000943
      23         -0.884622        1.000000        0.00000071        0.00000235        0.00000539        0.00000864
      24         -0.878900        1.000000        0.00000009        0.00000056        0.00000067        0.00000023
      25         -0.878014        1.000000        0.00000068        0.00000219        0.00001117        0.00000187
      26         -0.877925        1.000000        0.00000004        0.00000191        0.00000550        0.00000000
      27         -0.876530        1.000000        0.00000003        0.00000085        0.00000027        0.00000061
      28         -0.876402        1.000000        0.00000011        0.00000001        0.00000034        0.00000034
      29         -0.875144        1.000000        0.00000002        0.00000001        0.00000015        0.00000000
      30         -0.872704        1.000000        0.00000100        0.00000249        0.00000666        0.00001374
      31         -0.866191        1.000000        0.00000030        0.00000190        0.00000441        0.00000022
      32         -0.861107        1.000000        0.00000000        0.00000000        0.00000000        0.00000001
      33         -0.860727        1.000000        0.00000019        0.00000223        0.00000020        0.00000110
      34         -0.860032        1.000000        0.00000007        0.00000086        0.00000043        0.00000007
      35         -0.857151        1.000000        0.00000005        0.00000006        0.00000002        0.00000065
      36         -0.855051        1.000000        0.00000023        0.00000459        0.00000197        0.00000085
      37         -0.854259        1.000000        0.00000038        0.00000388        0.00000157        0.00000000
      38         -0.852719        1.000000        0.00000003        0.00000481        0.00000112        0.00000007
      39         -0.852590        1.000000        0.00000189        0.00000731        0.00001306        0.00002163
      40         -0.850559        1.000000        0.00000141        0.00000000        0.00000412        0.00000016
      41         -0.850287        1.000000        0.00000055        0.00000436        0.00000066        0.00000003
      42         -0.847838        1.000000        0.00000007        0.00000050        0.00000246        0.00000039
      43         -0.847064        1.000000        0.00000009        0.00000005        0.00000005        0.00000021
      44         -0.846027        1.000000        0.00000077        0.00000017        0.00000247        0.00001198
      45         -0.837577        1.000000        0.00000000        0.00000007        0.00000004        0.00000002
      46         -0.835010        1.000000        0.00000125        0.00000027        0.00000767        0.00000316
      47         -0.832614        1.000000        0.00000014        0.00000109        0.00000073        0.00000125
      48         -0.832020        1.000000        0.00000006        0.00000033        0.00000000        0.00000003
      49         -0.830276        1.000000        0.00000084        0.00000144        0.00000178        0.00001131
      50         -0.829685        1.000000        0.00000008        0.00000024        0.00000000        0.00000002
      51         -0.829438        1.000000        0.00000023        0.00000005        0.00000002        0.00000068
      52         -0.829144        1.000000        0.00000003        0.00000009        0.00000007        0.00000010
      53         -0.827276        1.000000        0.00000001        0.00000001        0.00000001        0.00000000
      54         -0.824423        1.000000        0.00000002        0.00000000        0.00000007        0.00000005
      55         -0.823790        1.000000        0.00000005        0.00000043        0.00000043        0.00000014
      56         -0.822335        1.000000        0.00000000        0.00000010        0.00000002        0.00000018
      57         -0.821007        1.000000        0.00000006        0.00000043        0.00000046        0.00000091
      58         -0.817811        1.000000        0.00000000        0.00000032        0.00000000        0.00000003
      59         -0.811598        1.000000        0.00000017        0.00000122        0.00000047        0.00000027
      60         -0.652584        1.000000        0.00003295        0.00003267        0.00002500        0.00003156
      61         -0.649832        1.000000        0.00001441        0.00001675        0.00001979        0.00000810
      62         -0.637966        1.000000        0.00002001        0.00000826        0.00001930        0.00001084
      63         -0.624070        1.000000        0.00002488        0.00002052        0.00001633        0.00000559
      64         -0.606431        1.000000        0.00018723        0.00013975        0.00016691        0.00003241
      65         -0.599570        1.000000        0.00103775        0.00049075        0.00160717        0.00001684
      66         -0.599393        1.000000        0.00003911        0.00001426        0.00000236        0.00002992
      67         -0.597633        1.000000        0.00174128        0.00008860        0.00211353        0.00134588
      68         -0.592509        1.000000        0.00072378        0.00027282        0.00077874        0.00004062
      69         -0.586498        1.000000        0.00067786        0.00000473        0.00017789        0.00100664
      70         -0.559261        1.000000        0.14318106        0.00099456        0.00807112        0.00062828
      71         -0.554937        1.000000        0.06439680        0.00038487        0.01133732        0.00198723
      72         -0.553820        1.000000        0.03413285        0.00069767        0.00692662        0.00068882
      73         -0.549403        1.000000        0.08075769        0.00033126        0.00491432        0.00944168
      74         -0.547144        1.000000        0.08203225        0.00351977        0.01150844        0.00172631
      75         -0.546522        1.000000        0.07266108        0.00485332        0.00774598        0.00251382
      76         -0.545055        1.000000        0.06921401        0.00555142        0.00639590        0.00284474
      77         -0.544331        1.000000        0.04780446        0.00306023        0.01177271        0.00380610
      78         -0.543233        1.000000        0.03450523        0.00386004        0.01235493        0.00550253
      79         -0.542088        1.000000        0.02930844        0.00263541        0.02148862        0.00315332
      80         -0.541345        1.000000        0.02799193        0.00340302        0.01110699        0.00505670
      81         -0.540437        1.000000        0.02276238        0.00106376        0.01370226        0.00677148
      82         -0.540324        1.000000        0.00828466        0.00207646        0.00579447        0.00660654
      83         -0.538679        1.000000        0.01590595        0.00173899        0.00507749        0.01558473
      84         -0.538307        1.000000        0.01055121        0.00181648        0.00630581        0.02316524
      85         -0.537652        1.000000        0.00205128        0.00972175        0.00393828        0.01051736
      86         -0.537170        1.000000        0.00674373        0.00708297        0.00490272        0.01310230
      87         -0.536419        1.000000        0.00819562        0.00486581        0.00426906        0.01193369
      88         -0.535726        1.000000        0.00187414        0.00121674        0.00265351        0.00200605
      89         -0.534170        1.000000        0.00183865        0.03164299        0.00093142        0.00647449
      90         -0.531881        1.000000        0.00133088        0.03592832        0.00235931        0.00096499
      91         -0.531728        1.000000        0.02660285        0.01082001        0.01148294        0.00912123
      92         -0.531233        1.000000        0.01509878        0.00663760        0.00939990        0.01379065
      93         -0.530857        1.000000        0.05665213        0.01056080        0.00341669        0.01265106
      94         -0.530751        1.000000        0.00266538        0.00961996        0.00068291        0.00467472
      95         -0.530303        1.000000        0.00246529        0.01158240        0.00040674        0.00294519
      96         -0.530036        1.000000        0.00453522        0.00623529        0.00062491        0.00597926
      97         -0.528373        1.000000        0.01873769        0.01005444        0.00248941        0.01057788
      98         -0.526836        1.000000        0.01364752        0.00644428        0.00144865        0.01298310
      99         -0.526288        1.000000        0.00969086        0.00687858        0.00128937        0.00896212
     100         -0.525633        1.000000        0.02324120        0.02424390        0.00145869        0.00054473
     101         -0.524190        1.000000        0.00017620        0.00018672        0.01209054        0.01700820
     102         -0.521516        1.000000        0.00208266        0.00688507        0.00667253        0.00240725
     103         -0.520836        1.000000        0.00119921        0.00788777        0.00213137        0.01813140
     104         -0.519692        1.000000        0.00043852        0.02383391        0.00362887        0.00189714
     105         -0.519610        1.000000        0.00048076        0.00227525        0.00368053        0.00374847
     106         -0.513225        1.000000        0.00297134        0.00057490        0.00155855        0.00193555
     107         -0.511165        1.000000        0.00473389        0.00056046        0.00153709        0.00455347
     108         -0.505617        1.000000        0.00481144        0.00041514        0.00480259        0.00082461
     109         -0.485500        1.000000        0.00197006        0.00050760        0.00023432        0.00004426
     110         -0.481987        1.000000        0.00291095        0.00002105        0.00109857        0.00001322
     111         -0.481260        1.000000        0.00093644        0.00029386        0.00006760        0.00005324
     112         -0.478430        1.000000        0.00007403        0.00001433        0.00000191        0.00000369
     113         -0.478274        1.000000        0.00165770        0.00002625        0.00004932        0.00071598
     114         -0.475794        1.000000        0.00047869        0.00001015        0.00008618        0.00003859
     115         -0.475610        1.000000        0.00024657        0.00001308        0.00017316        0.00005312
     116         -0.475008        1.000000        0.00288589        0.00096662        0.00001305        0.00001985
     117         -0.473995        1.000000        0.00042932        0.00000074        0.00006914        0.00000415
     118         -0.471727        1.000000        0.00156059        0.00006760        0.00000391        0.00050459
     119         -0.471580        1.000000        0.00013913        0.00000590        0.00001664        0.00001628
     120         -0.471221        1.000000        0.00078801        0.00004608        0.00003615        0.00003236
     121         -0.471140        1.000000        0.00037077        0.00005333        0.00006035        0.00002058
     122         -0.469794        1.000000        0.00277735        0.00055009        0.00002700        0.00001661
     123         -0.469286        1.000000        0.00040914        0.00003366        0.00006932        0.00001823
     124         -0.467066        1.000000        0.00054700        0.00000759        0.00000234        0.00007210
     125         -0.465912        1.000000        0.00024575        0.00000295        0.00002169        0.00000842
     126         -0.465577        1.000000        0.00316606        0.00000199        0.00006969        0.00017269
     127         -0.464584        1.000000        0.00120177        0.00012671        0.00001879        0.00005983
     128         -0.463841        1.000000        0.00181211        0.00022641        0.00000357        0.00001203
     129         -0.463633        1.000000        0.00016657        0.00010148        0.00003641        0.00007365
     130         -0.461869        1.000000        0.00074714        0.00000198        0.00009125        0.00000028
     131         -0.461101        1.000000        0.00003491        0.00000314        0.00000003        0.00000143
     132         -0.460094        1.000000        0.00155492        0.00000388        0.00014741        0.00000282
     133         -0.459483        1.000000        0.00031982        0.00000993        0.00004562        0.00002300
     134         -0.457859        1.000000        0.00000201        0.00000565        0.00001260        0.00000150
     135         -0.456460        1.000000        0.00101135        0.00001003        0.00003034        0.00014030
     136         -0.454971        1.000000        0.00366905        0.00000524        0.00001659        0.00026997
     137         -0.454083        1.000000        0.00037748        0.00000666        0.00000250        0.00002138
     138         -0.452752        1.000000        0.00001157        0.00000015        0.00000041        0.00000032
     139         -0.450054        1.000000        0.00258759        0.00018701        0.00004711        0.00000913
     140         -0.448165        1.000000        0.00266964        0.00000730        0.00014220        0.00033957
     141         -0.447709        1.000000        0.00017740        0.00000302        0.00000048        0.00001616
     142         -0.446929        1.000000        0.00073779        0.00003128        0.00008163        0.00000574
     143         -0.445975        1.000000        0.00272542        0.00017898        0.00002291        0.00000508
     144         -0.441544        1.000000        0.00010847        0.00001640        0.00002217        0.00000493
     145         -0.441302        1.000000        0.00321826        0.00011049        0.00000723        0.00000626
     146         -0.439866        1.000000        0.00006941        0.00000066        0.00002592        0.00001734
     147         -0.437027        1.000000        0.00295986        0.00008503        0.00003941        0.00011918
     148         -0.433872        1.000000        0.00143863        0.00003090        0.00007334        0.00000380
     149         -0.432999        1.000000        0.00097023        0.00001585        0.00000323        0.00000491
     150         -0.432885        1.000000        0.00599501        0.00002582        0.00000251        0.00000055
     151         -0.432526        1.000000        0.00156188        0.00000368        0.00002106        0.00000086
     152         -0.431800        1.000000        0.00545024        0.00001412        0.00000378        0.00013033
     153         -0.431163        1.000000        0.00477579        0.00004287        0.00004003        0.00001273
     154         -0.428206        1.000000        0.01369720        0.00012473        0.00001130        0.00008134
     155         -0.426697        1.000000        0.66153231        0.00105849        0.00041692        0.00053413
     156         -0.423130        1.000000        0.02170020        0.00003662        0.00006045        0.00001723
     157         -0.422455        1.000000        0.05868939        0.00005662        0.00004035        0.00005032
     158         -0.419962        1.000000        0.23902602        0.00042173        0.00010025        0.00015349
     159         -0.419657        1.000000        0.06549443        0.00012476        0.00003936        0.00003179
     160         -0.419549        1.000000        0.44235989        0.00080113        0.00022941        0.00015547
     161         -0.418636        1.000000        0.07672748        0.00001642        0.00014397        0.00005372
     162         -0.417056        1.000000        0.67637212        0.00063715        0.00022185        0.00068809
     163         -0.414832        1.000000        0.43533545        0.00021715        0.00008978        0.00008245
     164         -0.412667        1.000000        0.60394472        0.00032851        0.00031670        0.00054841
     165         -0.412101        1.000000        0.46538125        0.00035067        0.00025925        0.00017505
     166         -0.411403        1.000000        0.66740887        0.00028545        0.00017685        0.00021147
     167         -0.410497        1.000000        0.70509415        0.00026058        0.00032571        0.00028745
     168         -0.408060        1.000000        0.42953684        0.00016329        0.00017053        0.00013631
     169         -0.405314        1.000000        0.37587629        0.00008551        0.00012314        0.00015398
     170         -0.402561        1.000000        0.02517695        0.00003822        0.00001767        0.00000082
     171         -0.401733        1.000000        0.00200947        0.00003059        0.00000061        0.00000186
     172         -0.396903        1.000000        0.00001844        0.00000018        0.00000006        0.00000060
     173         -0.395532        1.000000        0.00018924        0.00000273        0.00000037        0.00000209
     174         -0.395386        1.000000        0.00042768        0.00000697        0.00000195        0.00000188
     175         -0.393612        1.000000        0.00149529        0.00013120        0.00000048        0.00000308
     176         -0.393174        1.000000        0.00008620        0.00000021        0.00000102        0.00000555
     177         -0.392082        1.000000        0.00010671        0.00000815        0.00001171        0.00000273
     178         -0.389067        1.000000        0.00000988        0.00000123        0.00000004        0.00000171
     179         -0.386150        1.000000        0.00029970        0.00003760        0.00000483        0.00000766
     180         -0.384350        1.000000        0.00003422        0.00000347        0.00000036        0.00000022
     181         -0.383936        1.000000        0.00039709        0.00009548        0.00006572        0.00004243
     182         -0.378015        1.000000        0.00020477        0.00002618        0.00000758        0.00002103
     183         -0.373099        1.000000        0.00016774        0.00006347        0.00006036        0.00006358
     184         -0.371361        1.000000        0.00080556        0.00001392        0.00002852        0.00011093
     185         -0.369000        1.000000        0.00014346        0.00003256        0.00005136        0.00003425
     186         -0.368002        1.000000        0.00034081        0.00001887        0.00002835        0.00013488
     187         -0.366242        1.000000        0.00052867        0.00010096        0.00005620        0.00000942
     188         -0.365284        1.000000        0.00030564        0.00004293        0.00007593        0.00003007
     189         -0.359470        1.000000        0.00060217        0.00016300        0.00029148        0.00003117
     190         -0.356430        1.000000        0.00059519        0.00001262        0.00012776        0.00004766
     191         -0.354769        1.000000        0.00042311        0.00001755        0.00013017        0.00001670
     192         -0.351857        1.000000        0.00003265        0.00000689        0.00002631        0.00000288
     193         -0.345418        1.000000        0.00005156        0.00003912        0.00005969        0.00001447
     194         -0.342961        1.000000        0.00057046        0.00044007        0.00073741        0.00015291
     195         -0.339324        1.000000        0.00003343        0.00000529        0.00007532        0.00006629
     196         -0.331727        1.000000        0.00027893        0.00005388        0.00005126        0.00008253
     197         -0.331053        1.000000        0.00016815        0.00010387        0.00005873        0.00015928
     198         -0.330895        1.000000        0.00022244        0.00002166        0.00041311        0.00013618
     199         -0.329209        1.000000        0.00055462        0.00078133        0.00068215        0.00008056
     200         -0.323807        1.000000        0.00003819        0.00001079        0.00001136        0.00005212
     201         -0.323607        1.000000        0.00021141        0.00003935        0.00022371        0.00006159
     202         -0.317657        1.000000        0.00000378        0.00027107        0.00009920        0.00001931
     203         -0.315812        1.000000        0.00039717        0.00044322        0.00046091        0.00040963
     204         -0.315592        1.000000        0.00026461        0.00023604        0.00005959        0.00003212
     205         -0.314698        1.000000        0.00003316        0.00012169        0.00005483        0.00003754
     206         -0.310369        1.000000        0.00000737        0.00000493        0.00008151        0.00000871
     207         -0.308181        1.000000        0.00143223        0.00003923        0.00120432        0.00189290
     208         -0.306702        1.000000        0.00020754        0.00015047        0.00001442        0.00009440
     209         -0.305382        1.000000        0.00000708        0.00000048        0.00001144        0.00000429
     210         -0.303407        1.000000        0.00006254        0.00011864        0.00011172        0.00010178
     211         -0.300389        1.000000        0.00038119        0.00018077        0.00007966        0.00003876
     212         -0.299180        1.000000        0.00084677        0.00064488        0.00294021        0.00012944
     213         -0.298090        1.000000        0.00013656        0.00018825        0.00003539        0.00012382
     214         -0.291613        1.000000        0.00001446        0.00005119        0.00050816        0.00012220
     215         -0.289746        1.000000        0.00007246        0.00033448        0.00012599        0.00031965
     216         -0.289526        1.000000        0.00047632        0.00058417        0.00102092        0.00256194
     217         -0.289252        1.000000        0.00009689        0.00019534        0.00000919        0.00007143
     218         -0.280397        1.000000        0.00010172        0.00002533        0.00001897        0.00018856
     219         -0.280294        1.000000        0.00000446        0.00000737        0.00000195        0.00001410
     220         -0.277661        1.000000        0.00000196        0.00000566        0.00007063        0.00000347
     221         -0.277258        1.000000        0.00001202        0.00009988        0.00018811        0.00050255
     222         -0.275719        1.000000        0.00006788        0.00012104        0.00022465        0.00039979
     223         -0.270037        1.000000        0.00008646        0.00017184        0.00239120        0.00013450
     224         -0.269127        1.000000        0.00015844        0.00070696        0.00125971        0.00042138
     225         -0.267235        1.000000        0.00047201        0.00121475        0.00349944        0.00023226
     226         -0.262039        1.000000        0.00003019        0.00124125        0.00456124        0.00030838
     227         -0.259285        1.000000        0.00002110        0.00023292        0.00004319        0.00004316
     228         -0.252379        1.000000        0.00006487        0.00068762        0.00550843        0.00063812
     229         -0.249958        1.000000        0.00001692        0.00094237        0.00109588        0.00001973
     230         -0.247807        1.000000        0.00016647        0.00098759        0.00009210        0.00057251
     231         -0.244332        1.000000        0.00004109        0.00318861        0.00016053        0.00051163
     232         -0.243844        1.000000        0.00013914        0.00387759        0.00651192        0.00462690
     233         -0.242422        1.000000        0.00028542        0.01390529        0.01890856        0.01570785
     234         -0.241052        1.000000        0.00077595        0.03805682        0.07471741        0.02972238
     235         -0.240399        1.000000        0.00006024        0.01377191        0.00181182        0.00229165
     236         -0.240236        1.000000        0.00048680        0.03268436        0.06071194        0.02155185
     237         -0.238679        1.000000        0.00006920        0.00467510        0.00066539        0.00101150
     238         -0.237994        1.000000        0.00040574        0.01103049        0.01358774        0.00595263
     239         -0.237659        1.000000        0.00115799        0.00889800        0.04439823        0.02659021
     240         -0.236844        1.000000        0.00010013        0.00042606        0.00938115        0.00429243
     241         -0.236159        1.000000        0.00034654        0.04530097        0.02203903        0.02803649
     242         -0.235663        1.000000        0.00080328        0.00497339        0.01780278        0.04034836
     243         -0.234655        1.000000        0.00053305        0.06316143        0.01858718        0.01053402
     244         -0.233947        1.000000        0.00010012        0.00161966        0.00080647        0.00038963
     245         -0.233701        1.000000        0.00011868        0.00736570        0.01542622        0.00196634
     246         -0.233354        1.000000        0.00005854        0.00134648        0.01315822        0.00194739
     247         -0.232116        1.000000        0.00122318        0.00593613        0.06933162        0.01615383
     248         -0.231137        1.000000        0.00003661        0.00027290        0.00070570        0.00123365
     249         -0.230874        1.000000        0.00022890        0.04880844        0.00605364        0.02603169
     250         -0.230853        1.000000        0.00018173        0.00901861        0.01002225        0.00983071
     251         -0.230510        1.000000        0.00063676        0.02352364        0.01235923        0.05440085
     252         -0.229423        1.000000        0.00068222        0.06674248        0.06801695        0.02382886
     253         -0.228717        1.000000        0.00039753        0.01535188        0.00838530        0.01193658
     254         -0.227573        1.000000        0.00191734        0.03289489        0.01103978        0.08629163
     255         -0.227097        1.000000        0.00091539        0.01460574        0.00522902        0.05622260
     256         -0.226234        1.000000        0.00196819        0.06629350        0.03651968        0.05452594
     257         -0.224983        1.000000        0.00065616        0.01204025        0.07333538        0.05329454
     258         -0.224180        1.000000        0.00093520        0.06373002        0.03664408        0.08677608
     259         -0.223122        1.000000        0.00047333        0.09369217        0.00781375        0.01139967