# Projected DOS for atomic kind Pb at iteration step i = 0, E(Fermi) =    -0.141468 a.u.
#     MO Eigenvalue [a.u.]      Occupation                 s                py                pz                px
       1         -0.918192        1.000000        0.00000000        0.00000002        0.00000001        0.00000000
       2         -0.917876        1.000000        0.00000011        0.00000001        0.00000062        0.00000000
       3         -0.917344        1.000000        0.00000104        0.00001519        0.00000246        0.00000716
       4         -0.916851        1.000000        0.00000073        0.00001289        0.00000256        0.00000401
       5         -0.914464        1.000000        0.00000030        0.00000187        0.00000327        0.00000006
       6         -0.914308        1.000000        0.00000028        0.00000074        0.00000048        0.00000503
       7         -0.912557        1.000000        0.00000013        0.00000000        0.00000040        0.00000003
       8         -0.910367        1.000000        0.00000006        0.00000013        0.00000163        0.00000029
       9         -0.909537        1.000000        0.00000003        0.00000008        0.00000047        0.00000016
      10         -0.909168        1.000000        0.00000006        0.00000190        0.00000074        0.00000184
      11         -0.909165        1.000000        0.00000016        0.00000055        0.00000103        0.00000187
      12         -0.903193        1.000000        0.00000010        0.00000078        0.00000001        0.00000001
      13         -0.903102        1.000000        0.00000013        0.00000039        0.00000000        0.00000008
      14         -0.901871        1.000000        0.00000110        0.00001082        0.00000997        0.00001589
      15         -0.900044        1.000000        0.00000009        0.00000310        0.00000059        0.00000060
      16         -0.893526        1.000000        0.00000008        0.00000001        0.00000003        0.00000037
      17         -0.892223        1.000000        0.00000026        0.00000139        0.00000331        0.00000204
      18         -0.891581        1.000000        0.00000033        0.00000000        0.00000001        0.00000121
      19         -0.890327        1.000000        0.00000583        0.00001001        0.00003323        0.00006994
      20         -0.890057        1.000000        0.00000005        0.00000032        0.00000014        0.00000122
      21         -0.889224        1.000000        0.00000009        0.00000041        0.00000242        0.00000008
      22         -0.887748        1.000000        0.00000073        0.00000484        0.00000061        0.00000935
      23         -0.884617        1.000000        0.00000071        0.00000235        0.00000539        0.00000864
      24         -0.878914        1.000000        0.00000009        0.00000056        0.00000068        0.00000023
      25         -0.878048        1.000000        0.00000070        0.00000218        0.00001116        0.00000187
      26         -0.877926        1.000000        0.00000004        0.00000191        0.00000550        0.00000000
      27         -0.876538        1.000000        0.00000003        0.00000086        0.00000027        0.00000061
      28         -0.876408        1.000000        0.00000011        0.00000001        0.00000034        0.00000034
      29         -0.875350        1.000000        0.00000002        0.00000001        0.00000015        0.00000000
      30         -0.872721        1.000000        0.00000100        0.00000249        0.00000665        0.00001374
      31         -0.867077        1.000000        0.00000029        0.00000184        0.00000437        0.00000023
      32         -0.861112        1.000000        0.00000000        0.00000000        0.00000000        0.00000001
      33         -0.860699        1.000000        0.00000019        0.00000224        0.00000020        0.00000110
      34         -0.860048        1.000000        0.00000007        0.00000087        0.00000043        0.00000007
      35         -0.857158        1.000000        0.00000005        0.00000006        0.00000002        0.00000065
      36         -0.855056        1.000000        0.00000023        0.00000460        0.00000198        0.00000085
      37         -0.854275        1.000000        0.00000038        0.00000389        0.00000157        0.00000000
      38         -0.852600        1.000000        0.00000189        0.00000732        0.00001306        0.00002166
      39         -0.852244        1.000000        0.00000003        0.00000487        0.00000109        0.00000006
      40         -0.850713        1.000000        0.00000141        0.00000000        0.00000412        0.00000016
      41         -0.850276        1.000000        0.00000055        0.00000436        0.00000066        0.00000003
      42         -0.847795        1.000000        0.00000007        0.00000050        0.00000247        0.00000038
      43         -0.847108        1.000000        0.00000009        0.00000005        0.00000005        0.00000022
      44         -0.844849        1.000000        0.00000081        0.00000016        0.00000251        0.00001224
      45         -0.837609        1.000000        0.00000000        0.00000007        0.00000005        0.00000002
      46         -0.835024        1.000000        0.00000125        0.00000027        0.00000767        0.00000316
      47         -0.832620        1.000000        0.00000014        0.00000110        0.00000073        0.00000125
      48         -0.832323        1.000000        0.00000023        0.00000005        0.00000002        0.00000067
      49         -0.832022        1.000000        0.00000006        0.00000033        0.00000000        0.00000003
      50         -0.830278        1.000000        0.00000084        0.00000144        0.00000177        0.00001129
      51         -0.828879        1.000000        0.00000003        0.00000009        0.00000007        0.00000010
      52         -0.828641        1.000000        0.00000002        0.00000000        0.00000008        0.00000003
      53         -0.828576        1.000000        0.00000008        0.00000024        0.00000000        0.00000002
      54         -0.827445        1.000000        0.00000001        0.00000001        0.00000000        0.00000000
      55         -0.824904        1.000000        0.00000000        0.00000011        0.00000003        0.00000019
      56         -0.822765        1.000000        0.00000006        0.00000050        0.00000046        0.00000016
      57         -0.821022        1.000000        0.00000006        0.00000043        0.00000046        0.00000092
      58         -0.817674        1.000000        0.00000000        0.00000032        0.00000000        0.00000003
      59         -0.811229        1.000000        0.00000016        0.00000115        0.00000043        0.00000026
      60         -0.652591        1.000000        0.00003331        0.00003288        0.00002502        0.00003163
      61         -0.649841        1.000000        0.00001439        0.00001679        0.00001980        0.00000811
      62         -0.637972        1.000000        0.00002003        0.00000829        0.00001918        0.00001088
      63         -0.624092        1.000000        0.00002582        0.00002047        0.00001734        0.00000594
      64         -0.606437        1.000000        0.00019046        0.00014099        0.00016771        0.00003234
      65         -0.599580        1.000000        0.00104518        0.00049071        0.00161130        0.00001686
      66         -0.599408        1.000000        0.00003941        0.00001402        0.00000240        0.00003062
      67         -0.597655        1.000000        0.00175265        0.00008902        0.00211483        0.00134757
      68         -0.592518        1.000000        0.00072804        0.00027217        0.00078075        0.00004101
      69         -0.586484        1.000000        0.00067122        0.00000459        0.00017761        0.00100573
      70         -0.559482        1.000000        0.14331970        0.00094051        0.00777576        0.00070442
      71         -0.554832        1.000000        0.06547105        0.00039909        0.01012664        0.00167873
      72         -0.553983        1.000000        0.03645391        0.00079912        0.00678428        0.00075033
      73         -0.550071        1.000000        0.07021277        0.00163800        0.01035582        0.00393089
      74         -0.549165        1.000000        0.07705122        0.00042152        0.00500166        0.00995607
      75         -0.547278        1.000000        0.05703467        0.00469396        0.01092499        0.00259396
      76         -0.546648        1.000000        0.07910288        0.00356011        0.00776355        0.00359881
      77         -0.544751        1.000000        0.05270972        0.00620787        0.01170580        0.00290686
      78         -0.544579        1.000000        0.04848625        0.00253384        0.01428194        0.00204726
      79         -0.543586        1.000000        0.02927212        0.00242332        0.01142845        0.00554286
      80         -0.542248        1.000000        0.03124882        0.00496215        0.02072853        0.00279158
      81         -0.541166        1.000000        0.00686972        0.00134377        0.00967457        0.00886930
      82         -0.540697        1.000000        0.00679763        0.00221306        0.00387677        0.00638457
      83         -0.539412        1.000000        0.00940209        0.00065940        0.00904026        0.01465733
      84         -0.538881        1.000000        0.00872014        0.00104049        0.00263354        0.03255718
      85         -0.537937        1.000000        0.00232152        0.00954886        0.00387247        0.00828816
      86         -0.537612        1.000000        0.00717834        0.00594574        0.00555097        0.01337388
      87         -0.536887        1.000000        0.00971362        0.00611306        0.00276760        0.01604419
      88         -0.535711        1.000000        0.00255030        0.00060338        0.00315658        0.00278464
      89         -0.535409        1.000000        0.00469828        0.00068539        0.01186321        0.00670495
      90         -0.534605        1.000000        0.00183479        0.03360572        0.00072711        0.00626794
      91         -0.531967        1.000000        0.02665478        0.01240276        0.01093886        0.00830008
      92         -0.531483        1.000000        0.05664450        0.01081991        0.00369505        0.01256931
      93         -0.531285        1.000000        0.00148136        0.01334820        0.00048062        0.00161085
      94         -0.530836        1.000000        0.00263399        0.00850529        0.00040349        0.00316691
      95         -0.530554        1.000000        0.00165175        0.03368112        0.00272618        0.00088316
      96         -0.529203        1.000000        0.01664723        0.01318475        0.00367168        0.00656200
      97         -0.528883        1.000000        0.00919316        0.00757631        0.00045106        0.00887540
      98         -0.528666        1.000000        0.03776398        0.00532568        0.00104858        0.01889445
      99         -0.526880        1.000000        0.00472880        0.00894212        0.00059739        0.00334369
     100         -0.524681        1.000000        0.02621358        0.02492163        0.00140347        0.00014157
     101         -0.524466        1.000000        0.00014186        0.00022132        0.01234154        0.01676997
     102         -0.521962        1.000000        0.00313081        0.01019956        0.00407878        0.00560074
     103         -0.521327        1.000000        0.00053284        0.00548190        0.00465517        0.01496861
     104         -0.520329        1.000000        0.00025687        0.02341897        0.00357493        0.00173824
     105         -0.519688        1.000000        0.00055603        0.00207215        0.00364040        0.00316814
     106         -0.513230        1.000000        0.00288102        0.00060933        0.00159732        0.00187502
     107         -0.511149        1.000000        0.00439545        0.00068024        0.00146502        0.00467602
     108         -0.505581        1.000000        0.00473917        0.00045270        0.00492123        0.00080054
     109         -0.485573        1.000000        0.00187882        0.00049072        0.00019009        0.00003202
     110         -0.482012        1.000000        0.00294939        0.00002086        0.00108415        0.00001351
     111         -0.481297        1.000000        0.00090604        0.00029783        0.00005768        0.00004409
     112         -0.478432        1.000000        0.00007413        0.00001409        0.00000175        0.00000346
     113         -0.478292        1.000000        0.00163952        0.00002644        0.00004910        0.00070478
     114         -0.475798        1.000000        0.00047950        0.00001064        0.00008650        0.00003681
     115         -0.475620        1.000000        0.00024552        0.00001306        0.00017141        0.00005240
     116         -0.475044        1.000000        0.00284424        0.00093628        0.00001230        0.00001937
     117         -0.474004        1.000000        0.00043154        0.00000076        0.00006881        0.00000417
     118         -0.471724        1.000000        0.00154223        0.00006846        0.00000414        0.00051051
     119         -0.471591        1.000000        0.00013904        0.00000590        0.00001660        0.00001654
     120         -0.471223        1.000000        0.00065922        0.00003717        0.00004610        0.00002838
     121         -0.471135        1.000000        0.00051712        0.00007054        0.00004881        0.00002881
     122         -0.469833        1.000000        0.00289818        0.00054370        0.00002766        0.00001723
     123         -0.469296        1.000000        0.00040945        0.00003354        0.00006876        0.00001812
     124         -0.467073        1.000000        0.00054015        0.00000751        0.00000236        0.00007376
     125         -0.465916        1.000000        0.00025473        0.00000300        0.00002159        0.00000856
     126         -0.465588        1.000000        0.00314845        0.00000195        0.00006916        0.00017010
     127         -0.464590        1.000000        0.00120440        0.00012586        0.00001814        0.00005775
     128         -0.463859        1.000000        0.00178151        0.00021382        0.00000335        0.00001131
     129         -0.463665        1.000000        0.00016921        0.00010615        0.00003565        0.00005845
     130         -0.461875        1.000000        0.00074437        0.00000199        0.00009057        0.00000027
     131         -0.461091        1.000000        0.00003475        0.00000325        0.00000003        0.00000145
     132         -0.460103        1.000000        0.00158792        0.00000395        0.00014629        0.00000275
     133         -0.459483        1.000000        0.00031929        0.00000989        0.00004473        0.00002270
     134         -0.457867        1.000000        0.00000175        0.00000551        0.00001254        0.00000151
     135         -0.456488        1.000000        0.00109303        0.00001043        0.00003118        0.00013860
     136         -0.454979        1.000000        0.00376958        0.00000523        0.00001681        0.00026562
     137         -0.454092        1.000000        0.00037072        0.00000659        0.00000253        0.00002192
     138         -0.452768        1.000000        0.00001028        0.00000014        0.00000033        0.00000028
     139         -0.450084        1.000000        0.00279647        0.00018348        0.00004852        0.00001034
     140         -0.448184        1.000000        0.00270322        0.00000713        0.00014109        0.00033019
     141         -0.447718        1.000000        0.00018012        0.00000295        0.00000046        0.00001589
     142         -0.446930        1.000000        0.00074503        0.00003133        0.00008201        0.00000596
     143         -0.446005        1.000000        0.00297238        0.00017559        0.00002399        0.00000476
     144         -0.441557        1.000000        0.00011736        0.00001643        0.00002228        0.00000493
     145         -0.441332        1.000000        0.00348829        0.00010657        0.00000798        0.00000655
     146         -0.439875        1.000000        0.00007695        0.00000077        0.00002602        0.00001749
     147         -0.437035        1.000000        0.00321502        0.00008791        0.00003513        0.00011819
     148         -0.433885        1.000000        0.00145762        0.00003010        0.00007404        0.00000426
     149         -0.433147        1.000000        0.00576813        0.00002669        0.00000250        0.00000056
     150         -0.433004        1.000000        0.00091743        0.00001755        0.00000313        0.00000487
     151         -0.432622        1.000000        0.00114325        0.00000284        0.00002043        0.00000067
     152         -0.431807        1.000000        0.00532333        0.00001450        0.00000386        0.00013127
     153         -0.431173        1.000000        0.00489192        0.00004276        0.00003960        0.00001295
     154         -0.428231        1.000000        0.01411015        0.00012320        0.00001025        0.00007803
     155         -0.426912        1.000000        0.66412357        0.00111421        0.00044145        0.00053256
     156         -0.423189        1.000000        0.01981910        0.00003545        0.00005937        0.00001548
     157         -0.422440        1.000000        0.05147428        0.00005638        0.00003487        0.00004719
     158         -0.419910        1.000000        0.20068081        0.00030865        0.00006854        0.00018124
     159         -0.419658        1.000000        0.00681878        0.00001052        0.00000554        0.00001592
     160         -0.419243        1.000000        0.53705984        0.00100839        0.00027154        0.00027955
     161         -0.418599        1.000000        0.09999059        0.00002237        0.00017766        0.00003735
     162         -0.417478        1.000000        0.65948610        0.00063034        0.00023675        0.00060052
     163         -0.415514        1.000000        0.59326398        0.00032432        0.00015281        0.00009794
     164         -0.412725        1.000000        0.63954739        0.00035894        0.00030060        0.00070541
     165         -0.412343        1.000000        0.26107527        0.00022170        0.00022757        0.00010077
     166         -0.411374        1.000000        0.68370437        0.00029108        0.00016720        0.00018255
     167         -0.410723        1.000000        0.71432607        0.00027562        0.00031703        0.00029191
     168         -0.408270        1.000000        0.45082059        0.00016319        0.00018211        0.00011712
     169         -0.405446        1.000000        0.34793406        0.00008190        0.00011742        0.00016881
     170         -0.402594        1.000000        0.02196886        0.00003678        0.00001642        0.00000073
     171         -0.401434        1.000000        0.00204772        0.00003044        0.00000061        0.00000191
     172         -0.397838        1.000000        0.00002088        0.00000019        0.00000006        0.00000063
     173         -0.395549        1.000000        0.00018553        0.00000274        0.00000036        0.00000213
     174         -0.394849        1.000000        0.00051803        0.00001262        0.00000192        0.00000167
     175         -0.394297        1.000000        0.00008404        0.00000024        0.00000097        0.00000560
     176         -0.393579        1.000000        0.00136699        0.00012641        0.00000053        0.00000334
     177         -0.392747        1.000000        0.00010167        0.00000824        0.00001190        0.00000291
     178         -0.389076        1.000000        0.00000971        0.00000123        0.00000004        0.00000170
     179         -0.386053        1.000000        0.00031063        0.00003828        0.00000479        0.00000760
     180         -0.384491        1.000000        0.00003653        0.00000362        0.00000034        0.00000021
     181         -0.383941        1.000000        0.00038696        0.00009611        0.00006634        0.00004259
     182         -0.378030        1.000000        0.00019158        0.00002630        0.00000771        0.00002058
     183         -0.373093        1.000000        0.00016747        0.00006343        0.00006016        0.00006346
     184         -0.371367        1.000000        0.00081192        0.00001401        0.00002855        0.00011059
     185         -0.369011        1.000000        0.00014592        0.00003244        0.00005146        0.00003429
     186         -0.368008        1.000000        0.00034367        0.00001903        0.00002820        0.00013470
     187         -0.366254        1.000000        0.00052282        0.00010074        0.00005623        0.00000937
     188         -0.365292        1.000000        0.00030357        0.00004285        0.00007618        0.00003008
     189         -0.359467        1.000000        0.00059285        0.00016307        0.00029169        0.00003107
     190         -0.356432        1.000000        0.00059774        0.00001256        0.00012736        0.00004829
     191         -0.354775        1.000000        0.00042738        0.00001747        0.00012913        0.00001707
     192         -0.351881        1.000000        0.00003222        0.00000694        0.00002653        0.00000286
     193         -0.345445        1.000000        0.00005060        0.00003919        0.00005890        0.00001441
     194         -0.342970        1.000000        0.00056650        0.00044180        0.00074139        0.00015419
     195         -0.339330        1.000000        0.00003335        0.00000528        0.00007507        0.00006566
     196         -0.331705        1.000000        0.00027801        0.00005395        0.00005099        0.00008342
     197         -0.331076        1.000000        0.00016772        0.00010426        0.00005923        0.00015958
     198         -0.330896        1.000000        0.00021864        0.00002185        0.00041503        0.00013525
     199         -0.329219        1.000000        0.00055159        0.00078344        0.00068593        0.00008143
     200         -0.323822        1.000000        0.00003650        0.00001065        0.00001109        0.00005156
     201         -0.323615        1.000000        0.00020813        0.00004024        0.00022496        0.00006172
     202         -0.317820        1.000000        0.00000327        0.00026819        0.00009828        0.00002000
     203         -0.315807        1.000000        0.00039930        0.00044199        0.00045855        0.00040784
     204         -0.315604        1.000000        0.00026385        0.00023655        0.00005883        0.00003151
     205         -0.314706        1.000000        0.00003341        0.00012256        0.00005524        0.00003773
     206         -0.310379        1.000000        0.00000721        0.00000499        0.00008186        0.00000885
     207         -0.308197        1.000000        0.00142988        0.00003941        0.00120656        0.00188916
     208         -0.306725        1.000000        0.00020274        0.00015238        0.00001422        0.00009702
     209         -0.305410        1.000000        0.00000711        0.00000048        0.00001158        0.00000431
     210         -0.303412        1.000000        0.00006262        0.00011723        0.00011126        0.00010076
     211         -0.300364        1.000000        0.00038489        0.00017988        0.00008024        0.00003807
     212         -0.299179        1.000000        0.00083880        0.00064470        0.00295890        0.00012967
     213         -0.298116        1.000000        0.00013268        0.00019093        0.00003555        0.00012564
     214         -0.291572        1.000000        0.00001491        0.00005367        0.00051498        0.00013054
     215         -0.289627        1.000000        0.00007745        0.00033340        0.00013519        0.00035221
     216         -0.289542        1.000000        0.00048136        0.00058021        0.00101704        0.00254993
     217         -0.289122        1.000000        0.00008703        0.00019090        0.00000736        0.00005491
     218         -0.280776        1.000000        0.00000446        0.00000910        0.00000205        0.00001465
     219         -0.280693        1.000000        0.00010587        0.00002601        0.00001977        0.00020099
     220         -0.277650        1.000000        0.00000198        0.00000570        0.00007191        0.00000353
     221         -0.277259        1.000000        0.00001212        0.00009853        0.00018698        0.00050062
     222         -0.275729        1.000000        0.00006725        0.00012239        0.00022736        0.00040421
     223         -0.270018        1.000000        0.00008428        0.00017796        0.00245367        0.00014103
     224         -0.269388        1.000000        0.00014419        0.00070990        0.00132266        0.00038092
     225         -0.267243        1.000000        0.00047245        0.00122556        0.00352114        0.00023979
     226         -0.262199        1.000000        0.00002720        0.00113608        0.00435991        0.00030009
     227         -0.259301        1.000000        0.00002139        0.00023777        0.00004386        0.00004429
     228         -0.252396        1.000000        0.00006480        0.00071484        0.00556749        0.00064703
     229         -0.250228        1.000000        0.00001934        0.00101832        0.00114171        0.00002798
     230         -0.247827        1.000000        0.00016523        0.00102537        0.00009907        0.00060883
     231         -0.244331        1.000000        0.00004121        0.00300754        0.00013950        0.00050395
     232         -0.243848        1.000000        0.00014387        0.00435533        0.00746505        0.00519985
     233         -0.242467        1.000000        0.00028992        0.01543767        0.01998439        0.01645142
     234         -0.241285        1.000000        0.00083002        0.04245840        0.09245090        0.04105534
     235         -0.241145        1.000000        0.00004837        0.01052587        0.00189317        0.00153863
     236         -0.240349        1.000000        0.00031831        0.02453566        0.04142709        0.01619615
     237         -0.238704        1.000000        0.00012560        0.00502805        0.00215729        0.00313692
     238         -0.238271        1.000000        0.00098050        0.00728353        0.03854558        0.03758025
     239         -0.238012        1.000000        0.00047397        0.00588011        0.00749883        0.01392937
     240         -0.236889        1.000000        0.00009931        0.00044502        0.00985320        0.00413323
     241         -0.236271        1.000000        0.00050198        0.05718326        0.02686751        0.03858819
     242         -0.235759        1.000000        0.00072297        0.00273283        0.01533888        0.03089686
     243         -0.234716        1.000000        0.00068860        0.06728107        0.02249422        0.01452443
     244         -0.233959        1.000000        0.00011130        0.00180980        0.00082801        0.00041908
     245         -0.233718        1.000000        0.00011477        0.00769113        0.01461866        0.00236575
     246         -0.233280        1.000000        0.00007976        0.00158734        0.01542153        0.00207964
     247         -0.232149        1.000000        0.00125272        0.00627612        0.06751547        0.01781433
     248         -0.231157        1.000000        0.00003522        0.00047414        0.00093667        0.00218166
     249         -0.230937        1.000000        0.00032931        0.00993336        0.01212024        0.01739365
     250         -0.230816        1.000000        0.00060570        0.00911736        0.01292694        0.05126273
     251         -0.230197        1.000000        0.00016944        0.05554610        0.00570125        0.02169201
     252         -0.229351        1.000000        0.00121490        0.04031701        0.04254503        0.06169529
     253         -0.229221        1.000000        0.00080752        0.02069441        0.02873349        0.03221464
     254         -0.228140        1.000000        0.00116627        0.04140745        0.01702736        0.05296287
     255         -0.227312        1.000000        0.00187109        0.02598109        0.01237083        0.11456985
     256         -0.226901        1.000000        0.00043029        0.01033931        0.00480936        0.01538524
     257         -0.226143        1.000000        0.00200616        0.06126863        0.04749153        0.05198039
     258         -0.224831        1.000000        0.00026146        0.03472442        0.07180075        0.04666512
     259         -0.222788        1.000000        0.00055554        0.11558873        0.02254395        0.01611341