# Projected DOS for atomic kind N at iteration step i = 0, E(Fermi) =    -0.175828 a.u.
#     MO Eigenvalue [a.u.]      Occupation                 s                py                pz                px
       1         -0.977121        1.000000        0.62342789        0.00000217        0.00018670        0.00006594
       2         -0.974076        1.000000        0.62164065        0.00133255        0.00000216        0.00004641
       3         -0.965082        1.000000        0.62119873        0.00033169        0.00066587        0.00004756
       4         -0.956286        1.000000        0.61613118        0.00006596        0.00002831        0.00023626
       5         -0.954375        1.000000        0.61862031        0.00031078        0.00029821        0.00000483
       6         -0.932555        1.000000        0.61095354        0.00001842        0.00008180        0.00002123
       7         -0.931891        1.000000        0.61174371        0.00000163        0.00000122        0.00002403
       8         -0.714704        1.000000        0.01435986        0.00764867        0.13720866        0.07723418
       9         -0.710246        1.000000        0.01815896        0.01596222        0.02207849        0.17493753
      10         -0.699866        1.000000        0.01597342        0.00070810        0.00175929        0.21393323
      11         -0.696672        1.000000        0.01716989        0.00240936        0.00711701        0.19380159
      12         -0.696504        1.000000        0.01481809        0.00036585        0.06610027        0.13180169
      13         -0.681838        1.000000        0.01730179        0.00712462        0.09908347        0.08424554
      14         -0.681012        1.000000        0.01851158        0.00373916        0.04019438        0.14080677
      15         -0.630979        1.000000        0.00000065        0.00000717        0.00000081        0.00002455
      16         -0.624069        1.000000        0.00068725        0.00383843        0.00038932        0.00016925
      17         -0.616768        1.000000        0.00025740        0.00927593        0.00041360        0.00038180
      18         -0.605171        1.000000        0.00002495        0.38198227        0.12351310        0.09344243
      19         -0.602576        1.000000        0.00002993        0.00562292        0.54258296        0.06196046
      20         -0.595900        1.000000        0.00008398        0.27962147        0.24199938        0.00671949
      21         -0.591883        1.000000        0.00020143        0.05266045        0.07153690        0.03913814
      22         -0.591048        1.000000        0.00029428        0.04208736        0.00828193        0.00814973
      23         -0.590207        1.000000        0.00053484        0.04454420        0.05637870        0.01336964
      24         -0.587640        1.000000        0.00026584        0.04666774        0.05290573        0.00542793
      25         -0.587095        1.000000        0.00054862        0.04728906        0.02839424        0.02259527
      26         -0.586128        1.000000        0.00008460        0.00884575        0.00628696        0.00501344
      27         -0.585014        1.000000        0.00047203        0.08220992        0.06185274        0.04104508
      28         -0.584420        1.000000        0.00080133        0.10782379        0.00811078        0.01824574
      29         -0.583102        1.000000        0.00143498        0.32023911        0.05029141        0.20263790
      30         -0.582716        1.000000        0.00239246        0.42354061        0.02714139        0.09823635
      31         -0.581291        1.000000        0.00017620        0.00789057        0.00392126        0.00243245
      32         -0.580841        1.000000        0.00047248        0.09499649        0.05010636        0.03197349
      33         -0.578238        1.000000        0.00042125        0.04950514        0.03017649        0.01038547
      34         -0.577304        1.000000        0.00054862        0.06110540        0.02237953        0.01512117
      35         -0.575888        1.000000        0.00135865        0.09770932        0.16624212        0.01349315
      36         -0.575399        1.000000        0.00023895        0.02636228        0.11891853        0.05131939
      37         -0.573143        1.000000        0.00140865        0.15162532        0.18846010        0.00442087
      38         -0.570766        1.000000        0.00042633        0.15891902        0.02285628        0.01345465
      39         -0.570103        1.000000        0.00024425        0.29294147        0.02355914        0.00930143
      40         -0.569696        1.000000        0.00005796        0.10683554        0.02458445        0.00639392
      41         -0.568961        1.000000        0.00003463        0.08711210        0.06289340        0.01158835
      42         -0.568415        1.000000        0.00032159        0.03951843        0.31388856        0.01613900
      43         -0.567407        1.000000        0.00019596        0.05773522        0.05286693        0.02444266
      44         -0.567017        1.000000        0.00019797        0.04330161        0.05132816        0.02228044
      45         -0.566104        1.000000        0.00002818        0.00778002        0.00683550        0.00307805
      46         -0.564141        1.000000        0.00007549        0.04858764        0.00916309        0.00313399
      47         -0.562838        1.000000        0.00003767        0.03343117        0.00309125        0.00137863
      48         -0.562533        1.000000        0.00004991        0.01660207        0.00884428        0.00318822
      49         -0.562162        1.000000        0.00006887        0.01723489        0.01959324        0.01529319
      50         -0.561186        1.000000        0.00003595        0.00771289        0.04459163        0.00605620
      51         -0.561090        1.000000        0.00003324        0.00502289        0.03904191        0.00495326
      52         -0.560867        1.000000        0.00001977        0.03078759        0.00367087        0.00166555
      53         -0.559532        1.000000        0.00001522        0.00202016        0.00043560        0.00112911
      54         -0.558840        1.000000        0.00005780        0.01835138        0.00297017        0.00494690
      55         -0.556062        1.000000        0.00000893        0.00192498        0.00015533        0.00005082
      56         -0.554409        1.000000        0.00000457        0.00053034        0.00034024        0.00017357
      57         -0.553642        1.000000        0.00001321        0.00248789        0.00019920        0.00009782
      58         -0.553317        1.000000        0.00000632        0.00046599        0.00010348        0.00002470
      59         -0.550709        1.000000        0.00008283        0.25512927        0.08427668        0.05682415
      60         -0.550557        1.000000        0.00016972        0.15756908        0.02463195        0.01347502
      61         -0.548968        1.000000        0.00037541        0.21190077        0.00275318        0.02375644
      62         -0.548807        1.000000        0.00001472        0.00899805        0.00037487        0.00104618
      63         -0.544137        1.000000        0.00002997        0.16726615        0.25012646        0.03887072
      64         -0.540792        1.000000        0.00006895        0.00549609        0.18089115        0.22339611
      65         -0.501676        1.000000        0.01054901        0.01685702        0.29153862        0.10982990
      66         -0.495648        1.000000        0.00628774        0.00345809        0.04674136        0.38443818
      67         -0.484189        1.000000        0.00774283        0.01450299        0.00041164        0.41470309
      68         -0.481147        1.000000        0.00856177        0.00275278        0.01182145        0.41732071
      69         -0.477766        1.000000        0.00967296        0.00049699        0.15990477        0.27721132
      70         -0.461665        1.000000        0.00902168        0.01817563        0.21939510        0.18969394
      71         -0.460858        1.000000        0.00791581        0.00928888        0.09868578        0.32457548
      72         -0.457272        1.000000        0.00004906        0.00014196        0.00232907        0.00290321
      73         -0.453636        1.000000        0.00002765        0.00148331        0.00203708        0.00172472
      74         -0.450670        1.000000        0.00000621        0.00009625        0.00041048        0.00042123
      75         -0.448410        1.000000        0.00001251        0.00090102        0.00221003        0.00511428
      76         -0.446196        1.000000        0.00000163        0.00007794        0.00015217        0.00026459
      77         -0.445652        1.000000        0.00000181        0.00020750        0.00098820        0.00221224
      78         -0.445066        1.000000        0.00000336        0.00006960        0.00035786        0.00041092
      79         -0.441475        1.000000        0.00001414        0.00021547        0.00032052        0.00060024
      80         -0.424556        1.000000        0.00000763        0.02048762        0.00807508        0.00262396
      81         -0.423678        1.000000        0.00008596        0.02070556        0.01622290        0.00057380
      82         -0.422838        1.000000        0.00000802        0.01245644        0.00679003        0.02158539
      83         -0.420574        1.000000        0.00014357        0.02111634        0.01294647        0.00425432
      84         -0.413265        1.000000        0.00004533        0.03294828        0.00060502        0.00048328
      85         -0.412757        1.000000        0.00000342        0.00156124        0.02244629        0.01131595
      86         -0.411811        1.000000        0.00000096        0.03531685        0.00103371        0.00010916
      87         -0.411293        1.000000        0.00000037        0.01760302        0.02068429        0.00020138
      88         -0.410233        1.000000        0.00010562        0.00165975        0.03518588        0.00004419
      89         -0.408484        1.000000        0.00006276        0.02041071        0.01740359        0.00056806
      90         -0.399726        1.000000        0.00000016        0.03873544        0.00009396        0.00185895
      91         -0.398342        1.000000        0.00001790        0.04060925        0.00000750        0.00017164
      92         -0.398003        1.000000        0.00000031        0.00033760        0.03403922        0.00909423
      93         -0.396863        1.000000        0.00000071        0.00032638        0.02053926        0.02276141
      94         -0.308401        1.000000        0.00000459        0.00000134        0.00002561        0.00004995
      95         -0.300988        1.000000        0.00013841        0.00031040        0.00008034        0.00034431
      96         -0.295563        1.000000        0.00025225        0.00133022        0.00039287        0.00008837
      97         -0.273354        1.000000        0.00005926        0.00031555        0.00026814        0.00010975
      98         -0.269403        1.000000        0.00011628        0.00096331        0.00012718        0.00018101
      99         -0.265779        1.000000        0.00024707        0.00079525        0.00014209        0.00013440
     100         -0.264649        1.000000        0.00070704        0.00092404        0.00028329        0.00042571
     101         -0.262319        1.000000        0.00044023        0.00067193        0.00015026        0.00048743
     102         -0.261483        1.000000        0.00052075        0.00044944        0.00035065        0.00072803
     103         -0.260523        1.000000        0.00011862        0.00111131        0.00007771        0.00014967
     104         -0.257648        1.000000        0.00012517        0.00088045        0.00022070        0.00007601
     105         -0.256624        1.000000        0.00010235        0.00014795        0.00003711        0.00014905
     106         -0.254718        1.000000        0.00022697        0.00069619        0.00008221        0.00009832
     107         -0.253439        1.000000        0.00010123        0.00017483        0.00023491        0.00007428
     108         -0.252760        1.000000        0.00016413        0.00033459        0.00027428        0.00026065
     109         -0.249092        1.000000        0.00055788        0.00048127        0.00034770        0.00052439
     110         -0.246851        1.000000        0.00058524        0.00087281        0.00023314        0.00035654
     111         -0.244371        1.000000        0.00142235        0.00030006        0.00057042        0.00069768
     112         -0.242607        1.000000        0.00084592        0.00087334        0.00111459        0.00022057
     113         -0.240387        1.000000        0.00132065        0.00033150        0.00096443        0.00028534
     114         -0.238783        1.000000        0.00010588        0.00009715        0.00012326        0.00007958
     115         -0.238221        1.000000        0.00047997        0.00067842        0.00027854        0.00039534
     116         -0.237971        1.000000        0.00029856        0.00075178        0.00055421        0.00018731
     117         -0.236505        1.000000        0.00075085        0.00010125        0.00110116        0.00023506
     118         -0.235614        1.000000        0.00034423        0.00147317        0.00010818        0.00028744
     119         -0.234433        1.000000        0.00145653        0.00120296        0.00068429        0.00157785
     120         -0.232637        1.000000        0.00141603        0.00091060        0.00185891        0.00048473
     121         -0.231089        1.000000        0.00102035        0.00214675        0.00096287        0.00081570
     122         -0.229646        1.000000        0.00027102        0.00039894        0.00030109        0.00016348
     123         -0.227140        1.000000        0.00126617        0.00189950        0.00104852        0.00070128
     124         -0.227080        1.000000        0.00064775        0.00111904        0.00104777        0.00068252
     125         -0.223773        1.000000        0.00078086        0.00123651        0.00073148        0.00071362
     126         -0.223267        1.000000        0.00170693        0.00131320        0.00121178        0.00038133
     127         -0.221421        1.000000        0.00108745        0.00073366        0.00229808        0.00056643
     128         -0.219864        1.000000        0.00033041        0.00243597        0.00144561        0.00154706
     129         -0.217546        1.000000        0.00098020        0.00199537        0.00117004        0.00085935
     130         -0.217116        1.000000        0.00191977        0.00349506        0.00207634        0.00158892
     131         -0.214727        1.000000        0.00073895        0.00085175        0.00141025        0.00037965
     132         -0.212670        1.000000        0.00073300        0.00109717        0.00115426        0.00034434
     133         -0.212248        1.000000        0.00064692        0.00415748        0.00097853        0.00025254
     134         -0.211613        1.000000        0.00080707        0.00110242        0.00093176        0.00059901
     135         -0.210981        1.000000        0.00066668        0.00117569        0.00149475        0.00021600
     136         -0.209821        1.000000        0.00057560        0.00405095        0.00038922        0.00036327
     137         -0.208710        1.000000        0.00025514        0.00218377        0.00068844        0.00079297
     138         -0.208130        1.000000        0.00015968        0.00042742        0.00021066        0.00012862
     139         -0.207684        1.000000        0.00018502        0.00173574        0.00067708        0.00004175
     140         -0.206114        1.000000        0.00016762        0.00112313        0.00180591        0.00020673
     141         -0.205299        1.000000        0.00005196        0.00074241        0.00018146        0.00016726
     142         -0.204793        1.000000        0.00009197        0.00045118        0.00008591        0.00003724
     143         -0.203991        1.000000        0.00012039        0.00036946        0.00012959        0.00003646
     144         -0.203209        1.000000        0.00015590        0.00059288        0.00020105        0.00003338
     145         -0.201605        1.000000        0.00032211        0.00175841        0.00034953        0.00022513
     146         -0.201050        1.000000        0.00009173        0.00012648        0.00023042        0.00004579
     147         -0.199838        1.000000        0.00081229        0.00189578        0.00027944        0.00047933
     148         -0.198559        1.000000        0.00035763        0.00025764        0.00197025        0.00029752
     149         -0.197645        1.000000        0.00043983        0.00021635        0.00070228        0.00019287
     150         -0.196499        1.000000        0.00008797        0.00019858        0.00103159        0.00059083
     151         -0.195352        1.000000        0.00010906        0.00071172        0.00040002        0.00027619
     152         -0.194963        1.000000        0.00022478        0.00028642        0.00044637        0.00011901
     153         -0.193904        1.000000        0.00069104        0.00093099        0.00049469        0.00158924
     154         -0.193505        1.000000        0.00008482        0.00020945        0.00035075        0.00021934
     155         -0.192667        1.000000        0.00028440        0.00020609        0.00032555        0.00051476
     156         -0.192341        1.000000        0.00005080        0.00017758        0.00018764        0.00006513
     157         -0.191817        1.000000        0.00069013        0.00087624        0.00117157        0.00311900
     158         -0.191047        1.000000        0.00014531        0.00020501        0.00101211        0.00127649
     159         -0.190852        1.000000        0.00009396        0.00003093        0.00063017        0.00006404
     160         -0.190357        1.000000        0.00016343        0.00002533        0.00055130        0.00011407
     161         -0.189872        1.000000        0.00012658        0.00025185        0.00015931        0.00022310
     162         -0.189500        1.000000        0.00010725        0.00006776        0.00012505        0.00001669
     163         -0.189011        1.000000        0.00009124        0.00025023        0.00023144        0.00021728
     164         -0.188623        1.000000        0.00011769        0.00015071        0.00028441        0.00033477
     165         -0.188248        1.000000        0.00019365        0.00029633        0.00052131        0.00064135
     166         -0.187735        1.000000        0.00005925        0.00013672        0.00038505        0.00033018
     167         -0.186981        1.000000        0.00017143        0.00013458        0.00007034        0.00003914
     168         -0.186510        1.000000        0.00016965        0.00012161        0.00033851        0.00008037
     169         -0.186057        1.000000        0.00006133        0.00008257        0.00010767        0.00009295
     170         -0.185975        1.000000        0.00011273        0.00012010        0.00021369        0.00031344
     171         -0.185285        1.000000        0.00004546        0.00005098        0.00012874        0.00005840
     172         -0.184526        1.000000        0.00004267        0.00010428        0.00005891        0.00006978
     173         -0.184273        1.000000        0.00006569        0.00022730        0.00020088        0.00026330
     174         -0.183052        1.000000        0.00008502        0.00008002        0.00018044        0.00019417
     175         -0.182615        1.000000        0.00015293        0.00011730        0.00025080        0.00049370
     176         -0.181676        1.000000        0.00003923        0.00006186        0.00003326        0.00004196
     177         -0.181576        1.000000        0.00005276        0.00005589        0.00026673        0.00011917
     178         -0.180854        1.000000        0.00002786        0.00003827        0.00004567        0.00002724
     179         -0.180762        1.000000        0.00006361        0.00005050        0.00005727        0.00007429
     180         -0.180092        1.000000        0.00002001        0.00003917        0.00007174        0.00007543
     181         -0.179880        1.000000        0.00001833        0.00001719        0.00008417        0.00008019
     182         -0.179642        1.000000        0.00007105        0.00009327        0.00010499        0.00003106
     183         -0.179356        1.000000        0.00004042        0.00021105        0.00009106        0.00003451
     184         -0.178613        1.000000        0.00004964        0.00016125        0.00005481        0.00007819
     185         -0.178321        1.000000        0.00005260        0.00003382        0.00011578        0.00013823
     186         -0.178002        1.000000        0.00001404        0.00001321        0.00001726        0.00000817
     187         -0.177816        1.000000        0.00000925        0.00000869        0.00003842        0.00002186
     188         -0.177681        1.000000        0.00002418        0.00001249        0.00003992        0.00000799
     189         -0.177243        1.000000        0.00001512        0.00003035        0.00006536        0.00003814
     190         -0.176859        1.000000        0.00007498        0.00004554        0.00020438        0.00001461
     191         -0.176770        1.000000        0.00008279        0.00008192        0.00008377        0.00014847
     192         -0.176562        1.000000        0.00004760        0.00003215        0.00005179        0.00005745
     193         -0.176399        1.000000        0.00002298        0.00001888        0.00005998        0.00005513
     194         -0.175979        1.000000        0.00002067        0.00002420        0.00006847        0.00002538
     195         -0.175828        1.000000        0.00001203        0.00005225        0.00008889        0.00004332
     196         -0.175747        0.000000        0.00003680        0.00001460        0.00005453        0.00004294
     197         -0.175596        0.000000        0.00001503        0.00004025        0.00004566        0.00002545
     198         -0.174759        0.000000        0.00001152        0.00004616        0.00004435        0.00001221
     199         -0.174597        0.000000        0.00001122        0.00000717        0.00005718        0.00001689
     200         -0.173998        0.000000        0.00002501        0.00005628        0.00001516        0.00002592
     201         -0.171771        0.000000        0.00001283        0.00000567        0.00000728        0.00000390
     202         -0.066111        0.000000        0.00016411        0.00026749        0.00002561        0.00003323
     203         -0.061283        0.000000        0.00014061        0.00014316        0.00012866        0.00018528
     204         -0.059245        0.000000        0.00002820        0.00023565        0.00002932        0.00003517
     205         -0.057491        0.000000        0.00006515        0.00019044        0.00005201        0.00002415
     206         -0.056074        0.000000        0.00050702        0.00018271        0.00039200        0.00028504
     207         -0.053115        0.000000        0.00003398        0.00042152        0.00009546        0.00002019
     208         -0.046884        0.000000        0.00006594        0.00007928        0.00004331        0.00002882
     209         -0.045496        0.000000        0.00008834        0.00006669        0.00001236        0.00003306
     210         -0.043190        0.000000        0.00021573        0.00000791        0.00001826        0.00005725
     211         -0.041443        0.000000        0.00005882        0.00005862        0.00001550        0.00003709
     212         -0.038830        0.000000        0.00003245        0.00005214        0.00003840        0.00001677
     213         -0.036666        0.000000        0.00002801        0.00003482        0.00003888        0.00000724
     214         -0.035663        0.000000        0.00001376        0.00005893        0.00000458        0.00002472
     215         -0.032041        0.000000        0.00004153        0.00021399        0.00007620        0.00001206
     216         -0.030481        0.000000        0.00005702        0.00005760        0.00004492        0.00000165
     217         -0.027964        0.000000        0.00002858        0.00001983        0.00001344        0.00000617
     218         -0.027007        0.000000        0.00009377        0.00008911        0.00001635        0.00004122
     219         -0.025486        0.000000        0.00008077        0.00003338        0.00007702        0.00001042
     220         -0.022585        0.000000        0.00002539        0.00001712        0.00003018        0.00001702
     221         -0.021889        0.000000        0.00006709        0.00003616        0.00004270        0.00000424
     222         -0.012117        0.000000        0.00005951        0.00001635        0.00004092        0.00000595
     223         -0.010793        0.000000        0.00005328        0.00033315        0.00009665        0.00005287
     224         -0.010750        0.000000        0.00005142        0.00009236        0.00000904        0.00001754
     225         -0.005552        0.000000        0.00003647        0.00002475        0.00007160        0.00002192
     226          0.079401        0.000000        0.12846567        0.00393193        0.16170416        0.06012474
     227          0.083528        0.000000        0.12560317        0.02242169        0.02653393        0.18021307
     228          0.086314        0.000000        0.10289432        0.00097177        0.09018277        0.16343521
     229          0.090321        0.000000        0.11893293        0.00080082        0.00306148        0.23148661
     230          0.092227        0.000000        0.12008027        0.00572228        0.01807311        0.21491363
     231          0.106895        0.000000        0.10038531        0.00708573        0.05396445        0.20522462
     232          0.109410        0.000000        0.10566542        0.01232248        0.13894867        0.10931960
     233          0.131303        0.000000        0.04293077        0.18174878        0.00749646        0.09757250
     234          0.149306        0.000000        0.04542058        0.13309847        0.12046825        0.03424557
     235          0.180346        0.000000        0.01791700        0.18015660        0.05325552        0.08083662
     236          0.202905        0.000000        0.03840452        0.05856177        0.14105394        0.10004324
     237          0.238302        0.000000        0.06540463        0.07239380        0.00456213        0.19617196
     238          0.269088        0.000000        0.00003583        0.00129522        0.29221761        0.03631527
     239          0.273602        0.000000        0.00052255        0.30796588        0.00651024        0.00911792
     240          0.281643        0.000000        0.00049349        0.17360457        0.14577525        0.00759239
     241          0.282270        0.000000        0.00024892        0.02045517        0.20148126        0.10291408
     242          0.284778        0.000000        0.00176985        0.23385607        0.07662609        0.00557629
     243          0.287949        0.000000        0.13562043        0.07700495        0.12236888        0.00123172
     244          0.293742        0.000000        0.17568707        0.12767557        0.00819155        0.03415645
     245          0.300337        0.000000        0.00436130        0.02391062        0.10467151        0.17737730
     246          0.304308        0.000000        0.00116604        0.06588299        0.21682911        0.02881599
     247          0.306430        0.000000        0.00816170        0.26049233        0.04587260        0.00617290
     248          0.308776        0.000000        0.16659092        0.04022422        0.05708961        0.07872935
     249          0.309933        0.000000        0.00127663        0.23490874        0.03902867        0.04089268
     250          0.317782        0.000000        0.24428107        0.00219441        0.03476880        0.06853941
     251          0.323989        0.000000        0.18659225        0.01631316        0.08834423        0.04589945
     252          0.348953        0.000000        0.24489340        0.00523297        0.01564230        0.07789912
     253          0.351867        0.000000        0.24045805        0.00635692        0.05577032        0.04361973
     254          0.440301        0.000000        0.00015653        0.01874108        0.00207119        0.00000058
     255          0.441705        0.000000        0.00000275        0.00002750        0.00550862        0.01361062
     256          0.444965        0.000000        0.00041329        0.00850370        0.00890654        0.00101812
     257          0.446826        0.000000        0.00023774        0.00739351        0.01069493        0.00145793
     258          0.450285        0.000000        0.00068043        0.00118420        0.02050896        0.00008841
     259          0.451355        0.000000        0.00001217        0.01494415        0.00757454        0.00059076