# Projected DOS for atomic kind I at iteration step i = 0, E(Fermi) =    -0.175330 a.u.
#     MO Eigenvalue [a.u.]      Occupation                 s                py                pz                px
       1         -0.976908        1.000000        0.00000677        0.00005480        0.00002307        0.00001586
       2         -0.973884        1.000000        0.00000234        0.00001477        0.00002764        0.00000567
       3         -0.964903        1.000000        0.00005305        0.00006707        0.00008722        0.00023155
       4         -0.956105        1.000000        0.00008263        0.00016813        0.00025218        0.00019060
       5         -0.954159        1.000000        0.00006524        0.00011307        0.00024177        0.00002301
       6         -0.932365        1.000000        0.00023157        0.00053859        0.00028476        0.00030218
       7         -0.931716        1.000000        0.00018921        0.00053174        0.00025040        0.00018001
       8         -0.714480        1.000000        0.00009579        0.00001860        0.00008294        0.00009228
       9         -0.710048        1.000000        0.00041020        0.00016832        0.00019639        0.00021430
      10         -0.699686        1.000000        0.00182869        0.00025166        0.00023988        0.00048748
      11         -0.696452        1.000000        0.00060264        0.00012497        0.00008496        0.00004713
      12         -0.696322        1.000000        0.00093590        0.00026536        0.00035717        0.00032440
      13         -0.681640        1.000000        0.00152030        0.00020145        0.00027929        0.00031361
      14         -0.680835        1.000000        0.00126868        0.00026321        0.00020373        0.00010989
      15         -0.630845        1.000000        0.96437414        0.00470479        0.01982951        0.00800226
      16         -0.623875        1.000000        0.95300649        0.01486327        0.00359604        0.00181756
      17         -0.615518        1.000000        0.94435657        0.00162281        0.01189121        0.00992136
      18         -0.604903        1.000000        0.01945147        0.00029882        0.00069232        0.00013389
      19         -0.602357        1.000000        0.00529842        0.00020062        0.00030676        0.00002880
      20         -0.595697        1.000000        0.12887093        0.00081948        0.00089288        0.00182121
      21         -0.591489        1.000000        0.66407213        0.00334447        0.00284690        0.00243394
      22         -0.590905        1.000000        0.81930933        0.00270769        0.00244776        0.00248414
      23         -0.589886        1.000000        0.70305599        0.00217341        0.00233702        0.00154112
      24         -0.587420        1.000000        0.72296967        0.00445300        0.00408544        0.00467088
      25         -0.586856        1.000000        0.75680466        0.00398406        0.00344496        0.00289628
      26         -0.585978        1.000000        0.93876495        0.00196350        0.00722397        0.00291743
      27         -0.584596        1.000000        0.56745060        0.00552081        0.00284803        0.00221759
      28         -0.582936        1.000000        0.14590685        0.00144239        0.00046235        0.00029398
      29         -0.582644        1.000000        0.25884961        0.00162517        0.00092021        0.00060503
      30         -0.582280        1.000000        0.41886132        0.00347847        0.00128309        0.00087619
      31         -0.580598        1.000000        0.68329353        0.00606994        0.00191546        0.00120365
      32         -0.580072        1.000000        0.93192832        0.00182938        0.00516616        0.00316964
      33         -0.577708        1.000000        0.76370320        0.00291439        0.00218389        0.00164266
      34         -0.576418        1.000000        0.76031884        0.00246010        0.00271586        0.00278882
      35         -0.575559        1.000000        0.53356550        0.00172344        0.00313744        0.00247348
      36         -0.574645        1.000000        0.60415195        0.00213618        0.00255053        0.00301429
      37         -0.572879        1.000000        0.42503974        0.00098496        0.00149811        0.00093063
      38         -0.570237        1.000000        0.65637207        0.00116436        0.00184997        0.00122714
      39         -0.569623        1.000000        0.47676965        0.00287062        0.00222621        0.00313880
      40         -0.569084        1.000000        0.69539587        0.00330323        0.00266417        0.00360578
      41         -0.568567        1.000000        0.59862445        0.00178163        0.00220791        0.00184052
      42         -0.568041        1.000000        0.38166300        0.00187415        0.00226439        0.00242388
      43         -0.567128        1.000000        0.79548598        0.00126933        0.00219193        0.00183617
      44         -0.566704        1.000000        0.67787335        0.00162951        0.00173424        0.00272240
      45         -0.565159        1.000000        0.91633062        0.00150571        0.00266375        0.00193303
      46         -0.562741        1.000000        0.84705655        0.00240721        0.00180144        0.00425712
      47         -0.562477        1.000000        0.93873854        0.00095954        0.00065438        0.00086796
      48         -0.561749        1.000000        0.89354994        0.00204340        0.00136926        0.00209607
      49         -0.561486        1.000000        0.89929492        0.00189060        0.00090970        0.00119294
      50         -0.561442        1.000000        0.84841118        0.00086049        0.00045858        0.00364004
      51         -0.560782        1.000000        0.81778292        0.00093530        0.00252944        0.00244833
      52         -0.560328        1.000000        0.89565636        0.00196133        0.00233601        0.00133807
      53         -0.559146        1.000000        0.96445304        0.00100634        0.00043909        0.00143335
      54         -0.558824        1.000000        0.91706754        0.00344370        0.00075674        0.00107216
      55         -0.554710        1.000000        0.96217566        0.00168126        0.00014601        0.00086387
      56         -0.553254        1.000000        0.96060142        0.00099421        0.00109034        0.00072056
      57         -0.552929        1.000000        0.95849910        0.00143043        0.00039620        0.00128796
      58         -0.552351        1.000000        0.96077725        0.00161017        0.00107770        0.00049519
      59         -0.550538        1.000000        0.27310253        0.00152077        0.00087459        0.00139012
      60         -0.549767        1.000000        0.45987495        0.00211581        0.00155616        0.00080208
      61         -0.547900        1.000000        0.82984936        0.00131765        0.00068511        0.00081794
      62         -0.547778        1.000000        0.99038523        0.00019255        0.00043893        0.00007206
      63         -0.543947        1.000000        0.23432870        0.00268306        0.00215440        0.00184743
      64         -0.540568        1.000000        0.32044167        0.00183647        0.00175803        0.00095703
      65         -0.501461        1.000000        0.00138066        0.00017966        0.00029336        0.00033649
      66         -0.495461        1.000000        0.00236992        0.00052983        0.00064643        0.00067807
      67         -0.484019        1.000000        0.00284055        0.00053353        0.00088659        0.00168107
      68         -0.480937        1.000000        0.00132998        0.00058896        0.00106792        0.00016860
      69         -0.477591        1.000000        0.00237936        0.00131743        0.00143926        0.00124234
      70         -0.461474        1.000000        0.00491144        0.00226024        0.00248654        0.00307990
      71         -0.460684        1.000000        0.00437432        0.00293241        0.00301499        0.00128242
      72         -0.456976        1.000000        0.16614697        0.04792072        0.03751296        0.04457044
      73         -0.453492        1.000000        0.12649615        0.04788660        0.03300491        0.03641044
      74         -0.450241        1.000000        0.12135934        0.04612501        0.04012366        0.03081547
      75         -0.448203        1.000000        0.13824597        0.02784332        0.03854147        0.03642824
      76         -0.445858        1.000000        0.12973269        0.04183649        0.02745185        0.03416746
      77         -0.445301        1.000000        0.13729053        0.02971480        0.03366733        0.03464225
      78         -0.444665        1.000000        0.13783859        0.02728828        0.03912551        0.03325860
      79         -0.441144        1.000000        0.13534319        0.02548324        0.02253388        0.03651087
      80         -0.424340        1.000000        0.00027893        0.00028091        0.00022777        0.00030829
      81         -0.423481        1.000000        0.00219310        0.00202874        0.00116541        0.00192627
      82         -0.422615        1.000000        0.00038677        0.00021369        0.00042965        0.00049623
      83         -0.420389        1.000000        0.00090759        0.00195197        0.00115147        0.00051576
      84         -0.413098        1.000000        0.00063828        0.00123964        0.00085740        0.00148665
      85         -0.412585        1.000000        0.00179153        0.00161760        0.00194503        0.00344206
      86         -0.411632        1.000000        0.00134208        0.00231541        0.00088104        0.00249733
      87         -0.411069        1.000000        0.00072406        0.00054716        0.00131182        0.00046827
      88         -0.410057        1.000000        0.00112165        0.00135564        0.00195979        0.00164969
      89         -0.408259        1.000000        0.00032134        0.00056115        0.00026810        0.00041736
      90         -0.399540        1.000000        0.00077429        0.00100979        0.00172591        0.00107191
      91         -0.398172        1.000000        0.00090074        0.00168756        0.00144819        0.00083635
      92         -0.397836        1.000000        0.00107262        0.00190463        0.00119690        0.00064475
      93         -0.396657        1.000000        0.00180102        0.00186803        0.00160784        0.00239712
      94         -0.308234        1.000000        0.03237668        0.13456606        0.58640592        0.24446132
      95         -0.300781        1.000000        0.02152645        0.70534042        0.22272431        0.00342691
      96         -0.293678        1.000000        0.02301365        0.00892015        0.49269466        0.43000509
      97         -0.272984        1.000000        0.01152957        0.18708043        0.23339569        0.33480823
      98         -0.269165        1.000000        0.01251700        0.38140285        0.26000607        0.09072369
      99         -0.264977        1.000000        0.01064551        0.32044272        0.14930569        0.25898574
     100         -0.264276        1.000000        0.00895753        0.12735064        0.34530404        0.31464833
     101         -0.261858        1.000000        0.01275348        0.20688559        0.28640723        0.26649637
     102         -0.261142        1.000000        0.01064281        0.19422496        0.32319082        0.23455847
     103         -0.259599        1.000000        0.00887246        0.26431331        0.27539019        0.21422648
     104         -0.257257        1.000000        0.01229654        0.30030832        0.17998659        0.25933139
     105         -0.256398        1.000000        0.01716904        0.28198434        0.29445496        0.14401478
     106         -0.253213        1.000000        0.01252500        0.33790189        0.18673628        0.21768655
     107         -0.252850        1.000000        0.01110169        0.12949208        0.43814424        0.19193411
     108         -0.252175        1.000000        0.01044528        0.15314158        0.23685668        0.41435775
     109         -0.248703        1.000000        0.01208224        0.20449791        0.18471645        0.41349347
     110         -0.246589        1.000000        0.01207950        0.06087168        0.25854618        0.49352035
     111         -0.244037        1.000000        0.01224333        0.41384581        0.12437485        0.27179692
     112         -0.242090        1.000000        0.01013575        0.20631709        0.34440065        0.24907906
     113         -0.240160        1.000000        0.00653415        0.45813650        0.15179893        0.30053113
     114         -0.238506        1.000000        0.00747524        0.52972458        0.19129493        0.16681899
     115         -0.237819        1.000000        0.01293723        0.32637305        0.18954878        0.26834925
     116         -0.237483        1.000000        0.01385940        0.22349364        0.24195595        0.31561844
     117         -0.236262        1.000000        0.01266071        0.16198728        0.34099056        0.30152552
     118         -0.234982        1.000000        0.01540577        0.27771225        0.09998433        0.39106987
     119         -0.233871        1.000000        0.01052993        0.34046991        0.20532482        0.25814553
     120         -0.232284        1.000000        0.01011838        0.33083765        0.30052209        0.22082475
     121         -0.230458        1.000000        0.01117483        0.42331679        0.21352563        0.18126653
     122         -0.228950        1.000000        0.01160968        0.28525692        0.25622243        0.24655620
     123         -0.226920        1.000000        0.00513627        0.15128217        0.21482924        0.51417760
     124         -0.226476        1.000000        0.00992223        0.23652095        0.22297895        0.33813878
     125         -0.223699        1.000000        0.00424672        0.08343459        0.28623232        0.56558111
     126         -0.222375        1.000000        0.00263129        0.38363051        0.21877746        0.32467685
     127         -0.220923        1.000000        0.00527033        0.16164441        0.56751225        0.18525532
     128         -0.219375        1.000000        0.00339328        0.56443050        0.14047152        0.22958473
     129         -0.217145        1.000000        0.00344078        0.49744514        0.34033245        0.11323982
     130         -0.216159        1.000000        0.00275151        0.26987922        0.20511263        0.48143358
     131         -0.214007        1.000000        0.00339591        0.21168129        0.43075090        0.29273611
     132         -0.212321        1.000000        0.00258723        0.17463458        0.22995944        0.54140476
     133         -0.211805        1.000000        0.00261271        0.41289028        0.14041247        0.40275439
     134         -0.211347        1.000000        0.00204837        0.14123920        0.26350270        0.56238389
     135         -0.210605        1.000000        0.00214550        0.26847764        0.34083601        0.34878774
     136         -0.209369        1.000000        0.00199019        0.39466012        0.28020648        0.29195176
     137         -0.208243        1.000000        0.00098693        0.25584787        0.47617088        0.25271194
     138         -0.207679        1.000000        0.00169118        0.58042593        0.13339377        0.25667060
     139         -0.207227        1.000000        0.00144037        0.33529395        0.37980474        0.26829853
     140         -0.205547        1.000000        0.00156116        0.41855778        0.33084166        0.21515511
     141         -0.205101        1.000000        0.00094287        0.54655389        0.34829776        0.08757190
     142         -0.204601        1.000000        0.00080511        0.51180568        0.32008415        0.15462448
     143         -0.203603        1.000000        0.00101347        0.31063383        0.35297029        0.32238814
     144         -0.202811        1.000000        0.00145198        0.31584573        0.28490561        0.37227386
     145         -0.201065        1.000000        0.00157602        0.44445659        0.28339665        0.23730312
     146         -0.200685        1.000000        0.00062892        0.30892256        0.41049174        0.26072156
     147         -0.199606        1.000000        0.00227915        0.60560871        0.17557125        0.16816155
     148         -0.198311        1.000000        0.00094753        0.24013694        0.41450888        0.32482625
     149         -0.197081        1.000000        0.00161494        0.23853855        0.45676535        0.27385776
     150         -0.196660        1.000000        0.00117528        0.40351114        0.42050044        0.15425714
     151         -0.194964        1.000000        0.00164486        0.30061584        0.38441273        0.27117413
     152         -0.194309        1.000000        0.00055050        0.23023315        0.28236851        0.46398097
     153         -0.193320        1.000000        0.00152281        0.31101918        0.29322082        0.36371716
     154         -0.192991        1.000000        0.00073085        0.30170593        0.44512980        0.22594849
     155         -0.192281        1.000000        0.00131782        0.31865255        0.30944932        0.33652886
     156         -0.191928        1.000000        0.00090590        0.36960242        0.32510636        0.28781239
     157         -0.191065        1.000000        0.00144382        0.33390408        0.28830148        0.35235336
     158         -0.190682        1.000000        0.00053930        0.28814503        0.08562141        0.61980629
     159         -0.190390        1.000000        0.00101217        0.43451022        0.19752130        0.34818691
     160         -0.190057        1.000000        0.00037272        0.38275417        0.26142446        0.35058914
     161         -0.188855        1.000000        0.00085858        0.23890759        0.43631176        0.30876188
     162         -0.188692        1.000000        0.00069078        0.37426736        0.31291591        0.30646864
     163         -0.188556        1.000000        0.00094555        0.21763456        0.41768211        0.34892820
     164         -0.188016        1.000000        0.00106525        0.31136171        0.48445188        0.19296123
     165         -0.187688        1.000000        0.00086378        0.25630027        0.36446920        0.37095711
     166         -0.186948        1.000000        0.00144926        0.31831600        0.38338669        0.27693112
     167         -0.186640        1.000000        0.00120132        0.32604429        0.37400720        0.29040934
     168         -0.186318        1.000000        0.00087531        0.42658190        0.22426222        0.34084883
     169         -0.185766        1.000000        0.00037808        0.41372574        0.22715428        0.35588741
     170         -0.185430        1.000000        0.00079459        0.13365128        0.39667426        0.46202000
     171         -0.184880        1.000000        0.00129241        0.47167045        0.31301578        0.20173348
     172         -0.183864        1.000000        0.00070193        0.13178070        0.66709973        0.19114979
     173         -0.183227        1.000000        0.00131526        0.43954160        0.12346996        0.39957148
     174         -0.182323        1.000000        0.00092724        0.25719867        0.31063394        0.41826317
     175         -0.181915        1.000000        0.00120447        0.38176330        0.32495840        0.24991962
     176         -0.181471        1.000000        0.00058918        0.32081881        0.33288133        0.32511162
     177         -0.180838        1.000000        0.00087182        0.12201909        0.76653123        0.09742419
     178         -0.180405        1.000000        0.00082593        0.14862222        0.35780229        0.47048920
     179         -0.179804        1.000000        0.00041435        0.23208191        0.58909235        0.16363546
     180         -0.179565        1.000000        0.00046206        0.24916684        0.60076929        0.13186351
     181         -0.179186        1.000000        0.00111198        0.25743244        0.37319927        0.32895643
     182         -0.179015        1.000000        0.00039123        0.12825009        0.11586451        0.75131011
     183         -0.178319        1.000000        0.00024424        0.18796327        0.67842774        0.12561573
     184         -0.178109        1.000000        0.00030951        0.35334364        0.19484828        0.43930363
     185         -0.177627        1.000000        0.00035888        0.44903541        0.17235159        0.36483098
     186         -0.177513        1.000000        0.00065363        0.33896537        0.19510442        0.45100274
     187         -0.177342        1.000000        0.00052389        0.40545300        0.23184116        0.35392831
     188         -0.176702        1.000000        0.00036603        0.44956569        0.32260442        0.21546279
     189         -0.176331        1.000000        0.00049863        0.37996641        0.30380252        0.31399331
     190         -0.176227        1.000000        0.00031971        0.52452306        0.27184406        0.19677428
     191         -0.176169        1.000000        0.00032556        0.58134423        0.14276865        0.26832117
     192         -0.175613        1.000000        0.00042782        0.14544867        0.24577414        0.59026778
     193         -0.175353        1.000000        0.00122492        0.30545592        0.27108053        0.41698904
     194         -0.175330        1.000000        0.00087407        0.38408917        0.28106070        0.27141761
     195         -0.175308        0.000000        0.00069871        0.17545447        0.31529361        0.50493514
     196         -0.174953        0.000000        0.00260848        0.40193020        0.30285399        0.23970424
     197         -0.174434        0.000000        0.00637644        0.53380066        0.31692710        0.12370897
     198         -0.174173        0.000000        0.00914682        0.23805276        0.49838959        0.23552525
     199         -0.173933        0.000000        0.00226107        0.15768370        0.27918509        0.48903028
     200         -0.172705        0.000000        0.00578290        0.09888572        0.43346899        0.42829797
     201         -0.170466        0.000000        0.00078980        0.27329084        0.22113834        0.38565360
     202         -0.065818        0.000000        0.02138541        0.07146628        0.10039477        0.06470176
     203         -0.061048        0.000000        0.02327067        0.01127287        0.03904103        0.19098816
     204         -0.058898        0.000000        0.01592970        0.07028396        0.12465841        0.06427980
     205         -0.057250        0.000000        0.01586473        0.05147878        0.15766880        0.05163513
     206         -0.055887        0.000000        0.02396401        0.06097093        0.17234044        0.02259475
     207         -0.052880        0.000000        0.02289516        0.03870830        0.18876246        0.03237820
     208         -0.046609        0.000000        0.02144410        0.05685548        0.17198629        0.03893856
     209         -0.045069        0.000000        0.02630016        0.14269240        0.03710208        0.08428661
     210         -0.042918        0.000000        0.02617307        0.12806279        0.10119455        0.04221660
     211         -0.041024        0.000000        0.02169110        0.08553307        0.02130607        0.17236476
     212         -0.038543        0.000000        0.02522977        0.14062913        0.06282177        0.06944923
     213         -0.036404        0.000000        0.02310698        0.09454148        0.07813813        0.10644815
     214         -0.035349        0.000000        0.01806199        0.04714540        0.03946234        0.19906309
     215         -0.031780        0.000000        0.01800245        0.04546679        0.16779137        0.07541232
     216         -0.030262        0.000000        0.01747322        0.01600126        0.15997960        0.11309295
     217         -0.027506        0.000000        0.01928706        0.02140355        0.12370651        0.14551188
     218         -0.026640        0.000000        0.01660852        0.03600431        0.14163062        0.10703061
     219         -0.025229        0.000000        0.01583274        0.02537725        0.09593514        0.16936222
     220         -0.022191        0.000000        0.01723655        0.09689851        0.05740292        0.14117585
     221         -0.021505        0.000000        0.01644173        0.11656079        0.05256845        0.12262548
     222         -0.011862        0.000000        0.01598784        0.07175765        0.03597786        0.19233889
     223         -0.010747        0.000000        0.01444443        0.30063438        0.00354101        0.00971708
     224         -0.010148        0.000000        0.01366984        0.23134196        0.03830346        0.03117290
     225         -0.005273        0.000000        0.01645519        0.26376078        0.02052745        0.02667606
     226          0.079600        0.000000        0.00003839        0.00026482        0.00069908        0.00097056
     227          0.083709        0.000000        0.00007068        0.00056554        0.00110051        0.00057709
     228          0.086471        0.000000        0.00006910        0.00076778        0.00084002        0.00095025
     229          0.090474        0.000000        0.00007303        0.00049491        0.00077893        0.00114121
     230          0.092418        0.000000        0.00003382        0.00069281        0.00054393        0.00012552
     231          0.107052        0.000000        0.00005030        0.00095348        0.00076806        0.00034591
     232          0.109592        0.000000        0.00006665        0.00080607        0.00077977        0.00085884
     233          0.131515        0.000000        0.00000827        0.00006511        0.00030452        0.00006634
     234          0.149515        0.000000        0.00000352        0.00007318        0.00011555        0.00011816
     235          0.180594        0.000000        0.00000641        0.00005903        0.00002979        0.00004590
     236          0.203142        0.000000        0.00000292        0.00014890        0.00004705        0.00004240
     237          0.238545        0.000000        0.00001124        0.00020114        0.00014210        0.00006379
     238          0.269291        0.000000        0.00000744        0.00035727        0.00034415        0.00013531
     239          0.273775        0.000000        0.00031206        0.00418455        0.00070626        0.00248214
     240          0.281833        0.000000        0.00013244        0.00036562        0.00022161        0.00293488
     241          0.282475        0.000000        0.00018279        0.00155695        0.00020126        0.00237482
     242          0.284959        0.000000        0.00041346        0.00374061        0.00569247        0.00068573
     243          0.288105        0.000000        0.00011280        0.00188298        0.00265491        0.00036559
     244          0.293953        0.000000        0.00001513        0.00064695        0.00070370        0.00013738
     245          0.300542        0.000000        0.00107461        0.00796512        0.00441561        0.00519460
     246          0.304491        0.000000        0.00080689        0.00906301        0.00381122        0.00292548
     247          0.306594        0.000000        0.00031256        0.00432429        0.00095746        0.00251827
     248          0.308967        0.000000        0.00010664        0.00113772        0.00088924        0.00293763
     249          0.310131        0.000000        0.00034108        0.00513608        0.00217225        0.00181210
     250          0.317975        0.000000        0.00042908        0.00421343        0.00155605        0.00402457
     251          0.324199        0.000000        0.00058695        0.00287067        0.00898292        0.00070265
     252          0.349150        0.000000        0.00092369        0.01064410        0.00399398        0.00398072
     253          0.352051        0.000000        0.00101898        0.00917182        0.00417690        0.00496616
     254          0.440488        0.000000        0.00000574        0.00005062        0.00008492        0.00002798
     255          0.441900        0.000000        0.00000640        0.00001459        0.00009068        0.00006910
     256          0.445113        0.000000        0.00001405        0.00037303        0.00018520        0.00010369
     257          0.446999        0.000000        0.00002829        0.00030843        0.00019735        0.00009986
     258          0.450481        0.000000        0.00001661        0.00002948        0.00018118        0.00005607
     259          0.451506        0.000000        0.00001251        0.00003907        0.00009957        0.00018349