# Projected DOS for atomic kind C at iteration step i = 0, E(Fermi) =    -0.175828 a.u.
#     MO Eigenvalue [a.u.]      Occupation                 s                py                pz                px
       1         -0.977121        1.000000        0.05969960        0.00186008        0.02943931        0.01425469
       2         -0.974076        1.000000        0.06294917        0.00125240        0.00543754        0.04050250
       3         -0.965082        1.000000        0.06040166        0.00091858        0.00000633        0.04514506
       4         -0.956286        1.000000        0.05725715        0.00010034        0.01502672        0.02774435
       5         -0.954375        1.000000        0.06216207        0.00035868        0.00090885        0.04429054
       6         -0.932555        1.000000        0.06264888        0.00193183        0.02289621        0.01933486
       7         -0.931891        1.000000        0.06292403        0.00101723        0.00943851        0.03369695
       8         -0.714704        1.000000        0.43115980        0.00000003        0.00013519        0.00019780
       9         -0.710246        1.000000        0.42946914        0.00032514        0.00000990        0.00077140
      10         -0.699866        1.000000        0.43033635        0.00011953        0.00013148        0.00048833
      11         -0.696672        1.000000        0.43651379        0.00000161        0.00012523        0.00100366
      12         -0.696504        1.000000        0.44219252        0.00000264        0.00030488        0.00058951
      13         -0.681838        1.000000        0.43974537        0.00001421        0.00099501        0.00072969
      14         -0.681012        1.000000        0.44186802        0.00000187        0.00055519        0.00174404
      15         -0.630979        1.000000        0.00003094        0.00001285        0.00002337        0.00000170
      16         -0.624069        1.000000        0.00118127        0.00042893        0.00003384        0.00025895
      17         -0.616768        1.000000        0.00003438        0.00155799        0.00011342        0.00001863
      18         -0.605171        1.000000        0.00013810        0.03332935        0.01266822        0.00683061
      19         -0.602576        1.000000        0.00004489        0.00059433        0.04964075        0.00538442
      20         -0.595900        1.000000        0.00002998        0.02441040        0.02071583        0.00066208
      21         -0.591883        1.000000        0.00019498        0.00508142        0.00842481        0.00398482
      22         -0.591048        1.000000        0.00008496        0.00510668        0.00105798        0.00109860
      23         -0.590207        1.000000        0.00043974        0.00399021        0.00561367        0.00174034
      24         -0.587640        1.000000        0.00024861        0.00431386        0.00517640        0.00074850
      25         -0.587095        1.000000        0.00047649        0.00418436        0.00313963        0.00278590
      26         -0.586128        1.000000        0.00007826        0.00093425        0.00095324        0.00055876
      27         -0.585014        1.000000        0.00015548        0.00912594        0.00687005        0.00558075
      28         -0.584420        1.000000        0.00019573        0.01111588        0.00099743        0.00241834
      29         -0.583102        1.000000        0.00103690        0.03713198        0.00801641        0.02045368
      30         -0.582716        1.000000        0.00128375        0.04499724        0.00395589        0.01314358
      31         -0.581291        1.000000        0.00005265        0.00121566        0.00058170        0.00028968
      32         -0.580841        1.000000        0.00055604        0.00991686        0.00522555        0.00320222
      33         -0.578238        1.000000        0.00016820        0.00507053        0.00377173        0.00093756
      34         -0.577304        1.000000        0.00017943        0.00536675        0.00227362        0.00129361
      35         -0.575888        1.000000        0.00065573        0.01236520        0.01826951        0.00136088
      36         -0.575399        1.000000        0.00030141        0.00293785        0.01139983        0.00448616
      37         -0.573143        1.000000        0.00099357        0.01674317        0.01903357        0.00062816
      38         -0.570766        1.000000        0.00012577        0.01693619        0.00205173        0.00074768
      39         -0.570103        1.000000        0.00003189        0.03037608        0.00258998        0.00105654
      40         -0.569696        1.000000        0.00005287        0.01179441        0.00254867        0.00047791
      41         -0.568961        1.000000        0.00005266        0.00850125        0.00619352        0.00101556
      42         -0.568415        1.000000        0.00004286        0.00416785        0.03491145        0.00119748
      43         -0.567407        1.000000        0.00008868        0.00520324        0.00578277        0.00234187
      44         -0.567017        1.000000        0.00008534        0.00383911        0.00489291        0.00208089
      45         -0.566104        1.000000        0.00003244        0.00085940        0.00077915        0.00011064
      46         -0.564141        1.000000        0.00002227        0.00536077        0.00079411        0.00044037
      47         -0.562838        1.000000        0.00001496        0.00405773        0.00038659        0.00011320
      48         -0.562533        1.000000        0.00011295        0.00173529        0.00139937        0.00051201
      49         -0.562162        1.000000        0.00004341        0.00139697        0.00245076        0.00071366
      50         -0.561186        1.000000        0.00006264        0.00067073        0.00522257        0.00062911
      51         -0.561090        1.000000        0.00003782        0.00044980        0.00473090        0.00047920
      52         -0.560867        1.000000        0.00000849        0.00410906        0.00061963        0.00019155
      53         -0.559532        1.000000        0.00000851        0.00021990        0.00009829        0.00009386
      54         -0.558840        1.000000        0.00001552        0.00168788        0.00034334        0.00081878
      55         -0.556062        1.000000        0.00000163        0.00028747        0.00002126        0.00000421
      56         -0.554409        1.000000        0.00001299        0.00006702        0.00007571        0.00001967
      57         -0.553642        1.000000        0.00000071        0.00022911        0.00002468        0.00001153
      58         -0.553317        1.000000        0.00000211        0.00005517        0.00001717        0.00001236
      59         -0.550709        1.000000        0.00007511        0.02872281        0.01045192        0.00566897
      60         -0.550557        1.000000        0.00010687        0.01856096        0.00270389        0.00123467
      61         -0.548968        1.000000        0.00023938        0.02612223        0.00051601        0.00165542
      62         -0.548807        1.000000        0.00001135        0.00116367        0.00006226        0.00008670
      63         -0.544137        1.000000        0.00009974        0.02084401        0.02942959        0.00616130
      64         -0.540792        1.000000        0.00000680        0.00073665        0.02353437        0.02922306
      65         -0.501676        1.000000        0.03370551        0.01485355        0.20173571        0.12112909
      66         -0.495648        1.000000        0.02908957        0.01311491        0.03283970        0.28954502
      67         -0.484189        1.000000        0.03134924        0.00293960        0.00052544        0.33028797
      68         -0.481147        1.000000        0.02709090        0.00115214        0.00589385        0.33411391
      69         -0.477766        1.000000        0.02630871        0.00101429        0.11610288        0.22239951
      70         -0.461665        1.000000        0.02204826        0.01238200        0.17189521        0.15484440
      71         -0.460858        1.000000        0.02020266        0.00446440        0.07932660        0.25468605
      72         -0.457272        1.000000        0.00022685        0.00032699        0.00050943        0.00350738
      73         -0.453636        1.000000        0.00015362        0.00068767        0.00107671        0.00304135
      74         -0.450670        1.000000        0.00001880        0.00030026        0.00117478        0.00037191
      75         -0.448410        1.000000        0.00022071        0.00014089        0.00283648        0.00360564
      76         -0.446196        1.000000        0.00003583        0.00041708        0.00058724        0.00031762
      77         -0.445652        1.000000        0.00016313        0.00057008        0.00167531        0.00145018
      78         -0.445066        1.000000        0.00002693        0.00022689        0.00027077        0.00029136
      79         -0.441475        1.000000        0.00005218        0.00134856        0.00181140        0.00055162
      80         -0.424556        1.000000        0.00000085        0.36587596        0.11919471        0.06379466
      81         -0.423678        1.000000        0.00004711        0.25357468        0.25955433        0.01464839
      82         -0.422838        1.000000        0.00000124        0.15768381        0.08902306        0.28797305
      83         -0.420574        1.000000        0.00002681        0.25392637        0.22141609        0.06140334
      84         -0.413265        1.000000        0.00003754        0.51028124        0.01819732        0.01182788
      85         -0.412757        1.000000        0.00000531        0.02376631        0.32767445        0.18319398
      86         -0.411811        1.000000        0.00001820        0.51951591        0.01492461        0.00132229
      87         -0.411293        1.000000        0.00005697        0.24546157        0.28814017        0.00220704
      88         -0.410233        1.000000        0.00004493        0.01098928        0.52661243        0.00016702
      89         -0.408484        1.000000        0.00000046        0.29043776        0.23869050        0.00936601
      90         -0.399726        1.000000        0.00002175        0.50173503        0.00316408        0.02380340
      91         -0.398342        1.000000        0.00009149        0.51831310        0.00012244        0.01112227
      92         -0.398003        1.000000        0.00000254        0.00279080        0.41190573        0.11347598
      93         -0.396863        1.000000        0.00001148        0.00647946        0.25097145        0.26828130
      94         -0.308401        1.000000        0.00007439        0.00030660        0.00012436        0.00000465
      95         -0.300988        1.000000        0.00013438        0.00090644        0.00002324        0.00035014
      96         -0.295563        1.000000        0.00007700        0.00023116        0.00011288        0.00008239
      97         -0.273354        1.000000        0.00002018        0.00012470        0.00003853        0.00008970
      98         -0.269403        1.000000        0.00003099        0.00028860        0.00009710        0.00008540
      99         -0.265779        1.000000        0.00010785        0.00016238        0.00041512        0.00012127
     100         -0.264649        1.000000        0.00025337        0.00030670        0.00017442        0.00061009
     101         -0.262319        1.000000        0.00004937        0.00015081        0.00020798        0.00040344
     102         -0.261483        1.000000        0.00005766        0.00015052        0.00048204        0.00032466
     103         -0.260523        1.000000        0.00002644        0.00014258        0.00040814        0.00002077
     104         -0.257648        1.000000        0.00005971        0.00015570        0.00053559        0.00015794
     105         -0.256624        1.000000        0.00003459        0.00024254        0.00012459        0.00010078
     106         -0.254718        1.000000        0.00003934        0.00024665        0.00035718        0.00011902
     107         -0.253439        1.000000        0.00004030        0.00012829        0.00002243        0.00007047
     108         -0.252760        1.000000        0.00058529        0.00070916        0.00008612        0.00010040
     109         -0.249092        1.000000        0.00013472        0.00062270        0.00020223        0.00034473
     110         -0.246851        1.000000        0.00008962        0.00011335        0.00011504        0.00044561
     111         -0.244371        1.000000        0.00009352        0.00027273        0.00047246        0.00041815
     112         -0.242607        1.000000        0.00032334        0.00035140        0.00052927        0.00024621
     113         -0.240387        1.000000        0.00013688        0.00016606        0.00046421        0.00068517
     114         -0.238783        1.000000        0.00005858        0.00004929        0.00002743        0.00008105
     115         -0.238221        1.000000        0.00003688        0.00010545        0.00009531        0.00021306
     116         -0.237971        1.000000        0.00008230        0.00004472        0.00018421        0.00013583
     117         -0.236505        1.000000        0.00028875        0.00017456        0.00032796        0.00017998
     118         -0.235614        1.000000        0.00036079        0.00012730        0.00026414        0.00017491
     119         -0.234433        1.000000        0.00025072        0.00037491        0.00070157        0.00035046
     120         -0.232637        1.000000        0.00015065        0.00016013        0.00075437        0.00056383
     121         -0.231089        1.000000        0.00036296        0.00035549        0.00037991        0.00089930
     122         -0.229646        1.000000        0.00015909        0.00017641        0.00025058        0.00012103
     123         -0.227140        1.000000        0.00024097        0.00051404        0.00024681        0.00039591
     124         -0.227080        1.000000        0.00010281        0.00024825        0.00063755        0.00017484
     125         -0.223773        1.000000        0.00067937        0.00052980        0.00018422        0.00043898
     126         -0.223267        1.000000        0.00006764        0.00035633        0.00043348        0.00019454
     127         -0.221421        1.000000        0.00012407        0.00031309        0.00026383        0.00051421
     128         -0.219864        1.000000        0.00023015        0.00023871        0.00042385        0.00008428
     129         -0.217546        1.000000        0.00045794        0.00013815        0.00032023        0.00038157
     130         -0.217116        1.000000        0.00003541        0.00038647        0.00117511        0.00076935
     131         -0.214727        1.000000        0.00045348        0.00018582        0.00035580        0.00027797
     132         -0.212670        1.000000        0.00019887        0.00032317        0.00068026        0.00049829
     133         -0.212248        1.000000        0.00015461        0.00048339        0.00053075        0.00018813
     134         -0.211613        1.000000        0.00007185        0.00041240        0.00017926        0.00046937
     135         -0.210981        1.000000        0.00020713        0.00031905        0.00033867        0.00025306
     136         -0.209821        1.000000        0.00018850        0.00035844        0.00032156        0.00028642
     137         -0.208710        1.000000        0.00009169        0.00033320        0.00072850        0.00011449
     138         -0.208130        1.000000        0.00015293        0.00014288        0.00029822        0.00039675
     139         -0.207684        1.000000        0.00010544        0.00029295        0.00027410        0.00021273
     140         -0.206114        1.000000        0.00005073        0.00009921        0.00016812        0.00018150
     141         -0.205299        1.000000        0.00008368        0.00003966        0.00012135        0.00012073
     142         -0.204793        1.000000        0.00008775        0.00006675        0.00011576        0.00012489
     143         -0.203991        1.000000        0.00006530        0.00010014        0.00023757        0.00005774
     144         -0.203209        1.000000        0.00007410        0.00015018        0.00028094        0.00005550
     145         -0.201605        1.000000        0.00021601        0.00018142        0.00022167        0.00011029
     146         -0.201050        1.000000        0.00001526        0.00012166        0.00015107        0.00003695
     147         -0.199838        1.000000        0.00018237        0.00025469        0.00006683        0.00018262
     148         -0.198559        1.000000        0.00008549        0.00033823        0.00012835        0.00004506
     149         -0.197645        1.000000        0.00009923        0.00015423        0.00007511        0.00014841
     150         -0.196499        1.000000        0.00012485        0.00013424        0.00029728        0.00010467
     151         -0.195352        1.000000        0.00013926        0.00040570        0.00020115        0.00002894
     152         -0.194963        1.000000        0.00012241        0.00013313        0.00020191        0.00006825
     153         -0.193904        1.000000        0.00012185        0.00025869        0.00019053        0.00018252
     154         -0.193505        1.000000        0.00013268        0.00014515        0.00016177        0.00021351
     155         -0.192667        1.000000        0.00016999        0.00014956        0.00026108        0.00010102
     156         -0.192341        1.000000        0.00007293        0.00012122        0.00006414        0.00011882
     157         -0.191817        1.000000        0.00004443        0.00015605        0.00004129        0.00022982
     158         -0.191047        1.000000        0.00005558        0.00010660        0.00015359        0.00036309
     159         -0.190852        1.000000        0.00008195        0.00014844        0.00003805        0.00009324
     160         -0.190357        1.000000        0.00001831        0.00003761        0.00000413        0.00003509
     161         -0.189872        1.000000        0.00006495        0.00006707        0.00012366        0.00003236
     162         -0.189500        1.000000        0.00002743        0.00005376        0.00003051        0.00007037
     163         -0.189011        1.000000        0.00011463        0.00010826        0.00049001        0.00014167
     164         -0.188623        1.000000        0.00019668        0.00023943        0.00073362        0.00006937
     165         -0.188248        1.000000        0.00006181        0.00011541        0.00014378        0.00009896
     166         -0.187735        1.000000        0.00005931        0.00021006        0.00006093        0.00008426
     167         -0.186981        1.000000        0.00010805        0.00006968        0.00013056        0.00009546
     168         -0.186510        1.000000        0.00002377        0.00008894        0.00003564        0.00005768
     169         -0.186057        1.000000        0.00007400        0.00007448        0.00016299        0.00012191
     170         -0.185975        1.000000        0.00002504        0.00006494        0.00006770        0.00002289
     171         -0.185285        1.000000        0.00007953        0.00003313        0.00007228        0.00001090
     172         -0.184526        1.000000        0.00003069        0.00002229        0.00006416        0.00001904
     173         -0.184273        1.000000        0.00022023        0.00001808        0.00057592        0.00002165
     174         -0.183052        1.000000        0.00002406        0.00001448        0.00003332        0.00005708
     175         -0.182615        1.000000        0.00001974        0.00000684        0.00003731        0.00005198
     176         -0.181676        1.000000        0.00004827        0.00004915        0.00015779        0.00001263
     177         -0.181576        1.000000        0.00003446        0.00005572        0.00004270        0.00003943
     178         -0.180854        1.000000        0.00003073        0.00004593        0.00002956        0.00003096
     179         -0.180762        1.000000        0.00002171        0.00003565        0.00005987        0.00002764
     180         -0.180092        1.000000        0.00008369        0.00007608        0.00004500        0.00007613
     181         -0.179880        1.000000        0.00008159        0.00011216        0.00005326        0.00003339
     182         -0.179642        1.000000        0.00003234        0.00003851        0.00004642        0.00003169
     183         -0.179356        1.000000        0.00006404        0.00004721        0.00008233        0.00001143
     184         -0.178613        1.000000        0.00000664        0.00002310        0.00001993        0.00003146
     185         -0.178321        1.000000        0.00001808        0.00004029        0.00004288        0.00004181
     186         -0.178002        1.000000        0.00003705        0.00002247        0.00007245        0.00000657
     187         -0.177816        1.000000        0.00004401        0.00002079        0.00005787        0.00003378
     188         -0.177681        1.000000        0.00006103        0.00008269        0.00023336        0.00001494
     189         -0.177243        1.000000        0.00001472        0.00001262        0.00003227        0.00002565
     190         -0.176859        1.000000        0.00000301        0.00000646        0.00000693        0.00000905
     191         -0.176770        1.000000        0.00000977        0.00001802        0.00001372        0.00003522
     192         -0.176562        1.000000        0.00001124        0.00000586        0.00000078        0.00002075
     193         -0.176399        1.000000        0.00000892        0.00000714        0.00001889        0.00000918
     194         -0.175979        1.000000        0.00001389        0.00000804        0.00001752        0.00000813
     195         -0.175828        1.000000        0.00003367        0.00004255        0.00005649        0.00002817
     196         -0.175747        0.000000        0.00003687        0.00001869        0.00003743        0.00001984
     197         -0.175596        0.000000        0.00000764        0.00005752        0.00008315        0.00005015
     198         -0.174759        0.000000        0.00002133        0.00011256        0.00005425        0.00006687
     199         -0.174597        0.000000        0.00010462        0.00006333        0.00004799        0.00000415
     200         -0.173998        0.000000        0.00004293        0.00013165        0.00001015        0.00001488
     201         -0.171771        0.000000        0.00000818        0.00004453        0.00000526        0.00002357
     202         -0.066111        0.000000        0.00008877        0.00010412        0.00013143        0.00011604
     203         -0.061283        0.000000        0.00006730        0.00000936        0.00007434        0.00005637
     204         -0.059245        0.000000        0.00004800        0.00004504        0.00014100        0.00008360
     205         -0.057491        0.000000        0.00010985        0.00015653        0.00022442        0.00026220
     206         -0.056074        0.000000        0.00003308        0.00002440        0.00005352        0.00016987
     207         -0.053115        0.000000        0.00001897        0.00001897        0.00001220        0.00002698
     208         -0.046884        0.000000        0.00001219        0.00000802        0.00003108        0.00001985
     209         -0.045496        0.000000        0.00002890        0.00001546        0.00005965        0.00013995
     210         -0.043190        0.000000        0.00001795        0.00001621        0.00001696        0.00004433
     211         -0.041443        0.000000        0.00005327        0.00004589        0.00003660        0.00002096
     212         -0.038830        0.000000        0.00000680        0.00000330        0.00001858        0.00001907
     213         -0.036666        0.000000        0.00001924        0.00000887        0.00002189        0.00004154
     214         -0.035663        0.000000        0.00003701        0.00001987        0.00003093        0.00001617
     215         -0.032041        0.000000        0.00001140        0.00001499        0.00000938        0.00002839
     216         -0.030481        0.000000        0.00001580        0.00002313        0.00003811        0.00002577
     217         -0.027964        0.000000        0.00002422        0.00003627        0.00001336        0.00004781
     218         -0.027007        0.000000        0.00006630        0.00001083        0.00007570        0.00002405
     219         -0.025486        0.000000        0.00001293        0.00000243        0.00001728        0.00002773
     220         -0.022585        0.000000        0.00000678        0.00001407        0.00002796        0.00001161
     221         -0.021889        0.000000        0.00001303        0.00002644        0.00001977        0.00004909
     222         -0.012117        0.000000        0.00001254        0.00001232        0.00000764        0.00002506
     223         -0.010793        0.000000        0.00003982        0.00001390        0.00008549        0.00003198
     224         -0.010750        0.000000        0.00001168        0.00000484        0.00005891        0.00000541
     225         -0.005552        0.000000        0.00001745        0.00002921        0.00000364        0.00002832
     226          0.079401        0.000000        0.08491340        0.01950153        0.35038645        0.17735339
     227          0.083528        0.000000        0.07993872        0.01550158        0.06539314        0.45845301
     228          0.086314        0.000000        0.07985158        0.00187998        0.19153737        0.36218527
     229          0.090321        0.000000        0.08057238        0.00899471        0.00032625        0.53718333
     230          0.092227        0.000000        0.08353875        0.00370883        0.01046736        0.52561420
     231          0.106895        0.000000        0.08238896        0.01330508        0.11953955        0.41241657
     232          0.109410        0.000000        0.08090059        0.02312314        0.28223103        0.24055683
     233          0.131303        0.000000        0.00511911        0.00010336        0.00179375        0.01290939
     234          0.149306        0.000000        0.00390275        0.00065368        0.00002003        0.00853500
     235          0.180346        0.000000        0.00064663        0.00097212        0.00074363        0.00003856
     236          0.202905        0.000000        0.00349437        0.00013769        0.00028877        0.00976382
     237          0.238302        0.000000        0.00309089        0.00127467        0.00039738        0.00581281
     238          0.269088        0.000000        0.00000292        0.00000919        0.00455184        0.00056551
     239          0.273602        0.000000        0.00000182        0.00471112        0.00019895        0.00004170
     240          0.281643        0.000000        0.00001164        0.00276622        0.00294915        0.00027493
     241          0.282270        0.000000        0.00000781        0.00058695        0.00326668        0.00196380
     242          0.284778        0.000000        0.00008650        0.00411947        0.00185354        0.00014715
     243          0.287949        0.000000        0.00291934        0.00256757        0.00118628        0.00013021
     244          0.293742        0.000000        0.00351535        0.00280592        0.00000422        0.00010830
     245          0.300337        0.000000        0.00028523        0.00028745        0.00214710        0.00469025
     246          0.304308        0.000000        0.00006154        0.00257145        0.00467024        0.00032492
     247          0.306430        0.000000        0.00022000        0.00742394        0.00117260        0.00007301
     248          0.308776        0.000000        0.00308424        0.00175047        0.00139153        0.00015264
     249          0.309933        0.000000        0.00001764        0.00649550        0.00186450        0.00192798
     250          0.317782        0.000000        0.00475286        0.00007268        0.00013447        0.00007504
     251          0.323989        0.000000        0.00393601        0.00064408        0.00333982        0.00015884
     252          0.348953        0.000000        0.00531327        0.00002976        0.00003181        0.00006049
     253          0.351867        0.000000        0.00539538        0.00005514        0.00022084        0.00004616
     254          0.440301        0.000000        0.00004424        0.37261631        0.01737783        0.00046148
     255          0.441705        0.000000        0.00002029        0.00378378        0.12458825        0.26449510
     256          0.444965        0.000000        0.00012888        0.20827359        0.13066510        0.05116466
     257          0.446826        0.000000        0.00020147        0.17256063        0.21241032        0.00888504
     258          0.450285        0.000000        0.00038929        0.03022601        0.35312567        0.00752473
     259          0.451355        0.000000        0.00152459        0.25414605        0.12815861        0.00793908