# Projected DOS for atomic kind Pb at iteration step i = 0, E(Fermi) =    -0.175330 a.u.
#     MO Eigenvalue [a.u.]      Occupation                 s                py                pz                px
       1         -0.976908        1.000000        0.00000001        0.00000028        0.00000034        0.00000039
       2         -0.973884        1.000000        0.00000015        0.00000420        0.00000352        0.00000124
       3         -0.964903        1.000000        0.00000006        0.00000071        0.00000104        0.00000059
       4         -0.956105        1.000000        0.00000010        0.00000161        0.00000134        0.00000078
       5         -0.954159        1.000000        0.00000009        0.00000353        0.00000191        0.00000067
       6         -0.932365        1.000000        0.00000115        0.00001114        0.00000986        0.00001640
       7         -0.931716        1.000000        0.00000023        0.00000137        0.00000320        0.00000191
       8         -0.714480        1.000000        0.00000245        0.00000646        0.00000284        0.00000701
       9         -0.710048        1.000000        0.00003286        0.00007465        0.00008121        0.00001819
      10         -0.699686        1.000000        0.00002350        0.00002827        0.00003878        0.00001755
      11         -0.696452        1.000000        0.00000913        0.00001321        0.00000601        0.00000377
      12         -0.696322        1.000000        0.00000986        0.00001234        0.00001897        0.00000731
      13         -0.681640        1.000000        0.00003777        0.00003701        0.00002343        0.00003574
      14         -0.680835        1.000000        0.00001480        0.00000734        0.00001699        0.00000871
      15         -0.630845        1.000000        0.00098761        0.00000267        0.00046474        0.00150720
      16         -0.623875        1.000000        0.00628792        0.00027535        0.00872289        0.00005659
      17         -0.615518        1.000000        0.00492368        0.00023196        0.00121518        0.00487683
      18         -0.604903        1.000000        0.00057537        0.00002321        0.00012466        0.00030339
      19         -0.602357        1.000000        0.00038530        0.00012075        0.00001057        0.00008707
      20         -0.595697        1.000000        0.00213673        0.00010790        0.00027509        0.00047907
      21         -0.591489        1.000000        0.05741531        0.00524913        0.00612188        0.00224073
      22         -0.590905        1.000000        0.04447578        0.00038689        0.01709655        0.00046623
      23         -0.589886        1.000000        0.04711813        0.00763258        0.00806627        0.00148033
      24         -0.587420        1.000000        0.09300375        0.00567949        0.00177442        0.00245577
      25         -0.586856        1.000000        0.06203046        0.00195744        0.00264102        0.00653484
      26         -0.585978        1.000000        0.00583671        0.00051981        0.00239136        0.00269155
      27         -0.584596        1.000000        0.03803116        0.00600925        0.00240633        0.00113694
      28         -0.582936        1.000000        0.00973923        0.00034546        0.00127404        0.00061720
      29         -0.582644        1.000000        0.01442047        0.00086023        0.00318927        0.00154954
      30         -0.582280        1.000000        0.01895744        0.00110475        0.00628616        0.00076794
      31         -0.580598        1.000000        0.00484499        0.00136725        0.00240722        0.00012440
      32         -0.580072        1.000000        0.00499466        0.00020328        0.00310889        0.00213223
      33         -0.577708        1.000000        0.02030151        0.00251602        0.00848121        0.00849073
      34         -0.576418        1.000000        0.04333044        0.00365132        0.00539635        0.00791741
      35         -0.575559        1.000000        0.03651822        0.00269758        0.00769456        0.00801133
      36         -0.574645        1.000000        0.04507869        0.00940864        0.00133278        0.00184512
      37         -0.572879        1.000000        0.01083114        0.00060652        0.00496163        0.01152123
      38         -0.570237        1.000000        0.01432441        0.01629064        0.00445822        0.00438453
      39         -0.569623        1.000000        0.04690757        0.00283866        0.00160914        0.00473947
      40         -0.569084        1.000000        0.05524414        0.00593419        0.00443869        0.00445762
      41         -0.568567        1.000000        0.02688968        0.00816321        0.00931441        0.00418234
      42         -0.568041        1.000000        0.03627871        0.00357701        0.00504901        0.00287554
      43         -0.567128        1.000000        0.01017369        0.00262245        0.01292147        0.00827073
      44         -0.566704        1.000000        0.01067676        0.00467733        0.00922645        0.00425685
      45         -0.565159        1.000000        0.02682822        0.00175076        0.00656093        0.02399005
      46         -0.562741        1.000000        0.04703240        0.00338001        0.00502314        0.02009245
      47         -0.562477        1.000000        0.00809551        0.03053287        0.00255767        0.00476176
      48         -0.561749        1.000000        0.02064025        0.00688205        0.00323309        0.01671432
      49         -0.561486        1.000000        0.00922714        0.01151743        0.00411015        0.00874719
      50         -0.561442        1.000000        0.01370352        0.00289445        0.00320177        0.02419764
      51         -0.560782        1.000000        0.03028444        0.00662318        0.00937768        0.01254058
      52         -0.560328        1.000000        0.01302603        0.00505182        0.01087239        0.00259776
      53         -0.559146        1.000000        0.00508056        0.00010608        0.00221659        0.01780588
      54         -0.558824        1.000000        0.01499674        0.02625324        0.00294474        0.00296300
      55         -0.554710        1.000000        0.00350238        0.01900938        0.00596399        0.00014600
      56         -0.553254        1.000000        0.00056210        0.00186948        0.01464071        0.01501856
      57         -0.552929        1.000000        0.00427909        0.02692836        0.00537392        0.00100004
      58         -0.552351        1.000000        0.00364434        0.02299673        0.00068174        0.00674286
      59         -0.550538        1.000000        0.00231230        0.00178709        0.00162343        0.00383258
      60         -0.549767        1.000000        0.00577398        0.00432851        0.00436337        0.00288342
      61         -0.547900        1.000000        0.00276668        0.00992133        0.00027071        0.00097393
      62         -0.547778        1.000000        0.00031431        0.00018600        0.00385251        0.00009149
      63         -0.543947        1.000000        0.00491032        0.00087679        0.00503985        0.00109139
      64         -0.540568        1.000000        0.00368157        0.00038140        0.00523872        0.00201773
      65         -0.501461        1.000000        0.00023254        0.00002631        0.00000146        0.00001715
      66         -0.495461        1.000000        0.00033743        0.00007577        0.00006082        0.00002005
      67         -0.484019        1.000000        0.00027819        0.00001473        0.00002335        0.00002692
      68         -0.480937        1.000000        0.00060807        0.00001471        0.00001916        0.00000630
      69         -0.477591        1.000000        0.00169326        0.00004755        0.00004486        0.00001287
      70         -0.461474        1.000000        0.01601564        0.00002573        0.00001271        0.00014079
      71         -0.460684        1.000000        0.01743887        0.00001928        0.00011341        0.00002132
      72         -0.456976        1.000000        0.68878461        0.00146588        0.00140374        0.00088730
      73         -0.453492        1.000000        0.74049704        0.00163183        0.00032648        0.00082758
      74         -0.450241        1.000000        0.75297952        0.00109516        0.00105854        0.00154674
      75         -0.448203        1.000000        0.73840940        0.00020231        0.00057370        0.00071127
      76         -0.445858        1.000000        0.76170212        0.00091171        0.00047844        0.00059761
      77         -0.445301        1.000000        0.75531704        0.00028639        0.00048951        0.00050566
      78         -0.444665        1.000000        0.75907840        0.00015731        0.00075554        0.00041759
      79         -0.441144        1.000000        0.77203688        0.00007598        0.00008383        0.00016738
      80         -0.424340        1.000000        0.00075768        0.00002266        0.00000813        0.00002175
      81         -0.423481        1.000000        0.00857149        0.00036468        0.00045400        0.00004092
      82         -0.422615        1.000000        0.00046088        0.00005363        0.00001123        0.00010259
      83         -0.420389        1.000000        0.00138752        0.00023507        0.00018442        0.00004778
      84         -0.413098        1.000000        0.00024364        0.00010623        0.00005274        0.00009842
      85         -0.412585        1.000000        0.00108495        0.00008428        0.00004947        0.00000841
      86         -0.411632        1.000000        0.00057215        0.00004838        0.00006824        0.00002260
      87         -0.411069        1.000000        0.00015164        0.00002000        0.00002698        0.00000745
      88         -0.410057        1.000000        0.00065084        0.00007507        0.00020142        0.00010810
      89         -0.408259        1.000000        0.00012472        0.00000955        0.00002737        0.00000238
      90         -0.399540        1.000000        0.00049797        0.00001390        0.00002064        0.00010033
      91         -0.398172        1.000000        0.00074140        0.00000962        0.00016069        0.00001941
      92         -0.397836        1.000000        0.00054486        0.00001381        0.00010861        0.00004680
      93         -0.396657        1.000000        0.00032089        0.00001309        0.00003073        0.00012475
      94         -0.308234        1.000000        0.00002773        0.00016545        0.00049437        0.00058950
      95         -0.300781        1.000000        0.00519719        0.00411271        0.03388080        0.00109666
      96         -0.293678        1.000000        0.00230329        0.00182561        0.00520821        0.03306177
      97         -0.272984        1.000000        0.00352816        0.02905313        0.09640690        0.10298438
      98         -0.269165        1.000000        0.00361705        0.16368088        0.07865143        0.00725101
      99         -0.264977        1.000000        0.00817593        0.08444975        0.03273073        0.13225627
     100         -0.264276        1.000000        0.00188340        0.01958624        0.08123831        0.09693170
     101         -0.261858        1.000000        0.00195954        0.08634670        0.07421316        0.06178621
     102         -0.261142        1.000000        0.00480898        0.07738337        0.10021488        0.05152616
     103         -0.259599        1.000000        0.00420951        0.07085138        0.06988324        0.09009541
     104         -0.257257        1.000000        0.00138131        0.08629499        0.04616039        0.11180420
     105         -0.256398        1.000000        0.00225275        0.10828482        0.08961867        0.06086281
     106         -0.253213        1.000000        0.00364880        0.15407713        0.03219787        0.05378424
     107         -0.252850        1.000000        0.00199750        0.03647738        0.13513604        0.05405806
     108         -0.252175        1.000000        0.00022055        0.04097168        0.04710131        0.09386137
     109         -0.248703        1.000000        0.00236747        0.05622380        0.08557513        0.03727478
     110         -0.246589        1.000000        0.00037700        0.01525147        0.07775201        0.07832425
     111         -0.244037        1.000000        0.00082136        0.04304972        0.03190631        0.09666652
     112         -0.242090        1.000000        0.00140826        0.02793622        0.09054267        0.06515149
     113         -0.240160        1.000000        0.00143038        0.02596230        0.02460667        0.02602687
     114         -0.238506        1.000000        0.00175491        0.04569396        0.02379591        0.03265807
     115         -0.237819        1.000000        0.00120274        0.08811245        0.07008024        0.04065359
     116         -0.237483        1.000000        0.00163693        0.06080763        0.07356341        0.06637449
     117         -0.236262        1.000000        0.00398808        0.04481472        0.06064690        0.06957079
     118         -0.234982        1.000000        0.00134831        0.09753352        0.02869967        0.08429967
     119         -0.233871        1.000000        0.00890382        0.12376912        0.01700478        0.02735849
     120         -0.232284        1.000000        0.00407932        0.02218094        0.07773025        0.02649881
     121         -0.230458        1.000000        0.00622320        0.11615107        0.01426201        0.02703876
     122         -0.228950        1.000000        0.00518659        0.10508968        0.07259188        0.01533816
     123         -0.226920        1.000000        0.00886562        0.00436638        0.01173259        0.08048455
     124         -0.226476        1.000000        0.00867791        0.06272641        0.04940292        0.06732291
     125         -0.223699        1.000000        0.00184296        0.00444912        0.01082880        0.03771581
     126         -0.222375        1.000000        0.00375265        0.01621279        0.01460449        0.02806005
     127         -0.220923        1.000000        0.00557083        0.00847818        0.03128608        0.02738789
     128         -0.219375        1.000000        0.00219549        0.02390835        0.02148868        0.00673713
     129         -0.217145        1.000000        0.00190183        0.00804533        0.01368363        0.00852901
     130         -0.216159        1.000000        0.00284984        0.00376578        0.01169120        0.01489038
     131         -0.214007        1.000000        0.00758648        0.00231601        0.01331790        0.03351735
     132         -0.212321        1.000000        0.00692569        0.00852240        0.00920882        0.02126782
     133         -0.211805        1.000000        0.00593334        0.00798830        0.01078340        0.00659458
     134         -0.211347        1.000000        0.00293946        0.00770402        0.00834154        0.00637376
     135         -0.210605        1.000000        0.00450765        0.00563891        0.01840129        0.00595166
     136         -0.209369        1.000000        0.00414263        0.00712401        0.00829864        0.00411643
     137         -0.208243        1.000000        0.00088604        0.00276607        0.00388026        0.00153259
     138         -0.207679        1.000000        0.00432159        0.01134115        0.00400155        0.00584648
     139         -0.207227        1.000000        0.00103299        0.00399416        0.00346651        0.00222756
     140         -0.205547        1.000000        0.00398991        0.00638334        0.01243604        0.00681672
     141         -0.205101        1.000000        0.00356897        0.00394455        0.00596805        0.00121264
     142         -0.204601        1.000000        0.00258570        0.00267941        0.00412595        0.00183227
     143         -0.203603        1.000000        0.00193232        0.00366687        0.00315295        0.00270884
     144         -0.202811        1.000000        0.00601527        0.00825123        0.00363917        0.00545866
     145         -0.201065        1.000000        0.00953336        0.00714063        0.00777781        0.00473338
     146         -0.200685        1.000000        0.00474806        0.00407330        0.00656871        0.00243151
     147         -0.199606        1.000000        0.01577607        0.01643386        0.00560831        0.00544523
     148         -0.198311        1.000000        0.00522874        0.00268454        0.00502500        0.00312486
     149         -0.197081        1.000000        0.00830855        0.00333782        0.01150281        0.00363698
     150         -0.196660        1.000000        0.00364283        0.00402273        0.00829750        0.00151277
     151         -0.194964        1.000000        0.01460403        0.00899419        0.00887736        0.00717619
     152         -0.194309        1.000000        0.00909435        0.00311026        0.00365737        0.00461105
     153         -0.193320        1.000000        0.00962974        0.00484155        0.00600475        0.00621129
     154         -0.192991        1.000000        0.01019744        0.00487319        0.00494690        0.00449239
     155         -0.192281        1.000000        0.01390919        0.00594543        0.00548330        0.00504969
     156         -0.191928        1.000000        0.00653724        0.00208980        0.00376937        0.00189974
     157         -0.191065        1.000000        0.00916975        0.00237265        0.00185932        0.00333503
     158         -0.190682        1.000000        0.00215607        0.00049896        0.00080603        0.00067474
     159         -0.190390        1.000000        0.00772438        0.00232944        0.00281304        0.00226905
     160         -0.190057        1.000000        0.00199837        0.00033967        0.00091166        0.00038805
     161         -0.188855        1.000000        0.00657476        0.00164504        0.00303264        0.00295213
     162         -0.188692        1.000000        0.00117216        0.00151698        0.00118583        0.00050727
     163         -0.188556        1.000000        0.00397308        0.00283343        0.00481003        0.00192281
     164         -0.188016        1.000000        0.00186812        0.00164062        0.00290354        0.00140313
     165         -0.187688        1.000000        0.00301096        0.00147176        0.00113471        0.00060834
     166         -0.186948        1.000000        0.00810747        0.00347924        0.00515130        0.00168173
     167         -0.186640        1.000000        0.00343634        0.00087956        0.00163234        0.00026694
     168         -0.186318        1.000000        0.00095578        0.00264308        0.00150570        0.00104649
     169         -0.185766        1.000000        0.00122041        0.00046278        0.00015129        0.00050936
     170         -0.185430        1.000000        0.00289831        0.00036705        0.00227398        0.00026688
     171         -0.184880        1.000000        0.00628485        0.00107156        0.00112464        0.00323389
     172         -0.183864        1.000000        0.00594015        0.00062489        0.00064266        0.00044967
     173         -0.183227        1.000000        0.01987386        0.00339695        0.00534730        0.00673234
     174         -0.182323        1.000000        0.00711988        0.00045140        0.00232958        0.00136879
     175         -0.181915        1.000000        0.02734613        0.00290626        0.00494324        0.00644109
     176         -0.181471        1.000000        0.01448591        0.00077523        0.00261874        0.00216327
     177         -0.180838        1.000000        0.00713347        0.00096075        0.00273968        0.00167766
     178         -0.180405        1.000000        0.01644201        0.00125154        0.00099816        0.00323281
     179         -0.179804        1.000000        0.01003035        0.00083736        0.00206537        0.00119474
     180         -0.179565        1.000000        0.01167584        0.00104668        0.00243728        0.00206845
     181         -0.179186        1.000000        0.02729915        0.00250442        0.00345939        0.00563899
     182         -0.179015        1.000000        0.00130543        0.00013992        0.00055704        0.00136506
     183         -0.178319        1.000000        0.00357742        0.00033334        0.00175697        0.00166277
     184         -0.178109        1.000000        0.00850610        0.00027423        0.00100233        0.00172770
     185         -0.177627        1.000000        0.00976817        0.00084901        0.00091512        0.00143791
     186         -0.177513        1.000000        0.01060984        0.00110797        0.00045363        0.00137930
     187         -0.177342        1.000000        0.00620237        0.00080810        0.00040103        0.00030837
     188         -0.176702        1.000000        0.00913906        0.00041507        0.00141851        0.00072020
     189         -0.176331        1.000000        0.00086854        0.00007444        0.00007571        0.00018811
     190         -0.176227        1.000000        0.00511737        0.00023075        0.00050834        0.00036184
     191         -0.176169        1.000000        0.00513600        0.00020698        0.00058343        0.00099274
     192         -0.175613        1.000000        0.01452803        0.00038649        0.00070337        0.00215904
     193         -0.175353        1.000000        0.00386459        0.00019110        0.00015329        0.00075467
     194         -0.175330        1.000000        0.05219149        0.00157112        0.00220344        0.00610524
     195         -0.175308        0.000000        0.00268839        0.00014038        0.00017151        0.00043304
     196         -0.174953        0.000000        0.04310820        0.00150678        0.00225035        0.00561693
     197         -0.174434        0.000000        0.01615977        0.00018256        0.00017331        0.00212466
     198         -0.174173        0.000000        0.01624441        0.00040732        0.00054047        0.00117304
     199         -0.173933        0.000000        0.05877701        0.00464270        0.00500425        0.00310640
     200         -0.172705        0.000000        0.03205373        0.00037914        0.00057718        0.00026300
     201         -0.170466        0.000000        0.10821925        0.00127964        0.00848467        0.00096378
     202         -0.065818        0.000000        0.00977152        0.22657177        0.41840847        0.08606070
     203         -0.061048        0.000000        0.00736368        0.02365531        0.09211276        0.61116530
     204         -0.058898        0.000000        0.00766534        0.28701186        0.30638942        0.12284953
     205         -0.057250        0.000000        0.00390768        0.15880688        0.42640479        0.13281075
     206         -0.055887        0.000000        0.00849478        0.14958388        0.55228444        0.00722219
     207         -0.052880        0.000000        0.00456242        0.06667678        0.59515499        0.04988970
     208         -0.046609        0.000000        0.00483598        0.16914272        0.37037656        0.16599112
     209         -0.045069        0.000000        0.00494988        0.40871733        0.09164242        0.20373176
     210         -0.042918        0.000000        0.00707943        0.35446823        0.24308717        0.09706247
     211         -0.041024        0.000000        0.00161841        0.28337445        0.03673026        0.37687973
     212         -0.038543        0.000000        0.00199840        0.39862594        0.12688910        0.17407439
     213         -0.036404        0.000000        0.00408919        0.25048621        0.16915209        0.27375490
     214         -0.035349        0.000000        0.00183557        0.09524069        0.10206625        0.49685914
     215         -0.031780        0.000000        0.00270831        0.11288451        0.39156562        0.18554793
     216         -0.030262        0.000000        0.00097090        0.05365227        0.30614246        0.33229951
     217         -0.027506        0.000000        0.00093459        0.09880603        0.16680737        0.42329801
     218         -0.026640        0.000000        0.00130282        0.12444530        0.38379430        0.18857531
     219         -0.025229        0.000000        0.00218933        0.03718877        0.28269771        0.37096853
     220         -0.022191        0.000000        0.00028110        0.29962832        0.18982817        0.19727870
     221         -0.021505        0.000000        0.00147244        0.18677584        0.05169753        0.45150530
     222         -0.011862        0.000000        0.00036256        0.22262032        0.13165271        0.32900625
     223         -0.010747        0.000000        0.00018402        0.63068551        0.02462060        0.01507558
     224         -0.010148        0.000000        0.00068460        0.40998533        0.11482499        0.15963213
     225         -0.005273        0.000000        0.00037297        0.49138365        0.06610095        0.11436483
     226          0.079600        0.000000        0.00000198        0.00015226        0.00001826        0.00003326
     227          0.083709        0.000000        0.00000073        0.00027079        0.00018832        0.00014573
     228          0.086471        0.000000        0.00000482        0.00017000        0.00006064        0.00002659
     229          0.090474        0.000000        0.00000116        0.00005442        0.00005756        0.00003582
     230          0.092418        0.000000        0.00000142        0.00001771        0.00004525        0.00000222
     231          0.107052        0.000000        0.00000793        0.00001379        0.00013586        0.00001134
     232          0.109592        0.000000        0.00000307        0.00007420        0.00004671        0.00011679
     233          0.131515        0.000000        0.00000076        0.00008512        0.00014847        0.00013677
     234          0.149515        0.000000        0.00000119        0.00000805        0.00000202        0.00002923
     235          0.180594        0.000000        0.00000016        0.00000968        0.00000065        0.00000606
     236          0.203142        0.000000        0.00000119        0.00000073        0.00000131        0.00000025
     237          0.238545        0.000000        0.00000030        0.00000672        0.00000837        0.00000381
     238          0.269291        0.000000        0.00000403        0.00002230        0.00001044        0.00004531
     239          0.273775        0.000000        0.00000257        0.00008251        0.00012135        0.00000455
     240          0.281833        0.000000        0.00000112        0.00001857        0.00002907        0.00003465
     241          0.282475        0.000000        0.00000388        0.00005868        0.00002991        0.00001315
     242          0.284959        0.000000        0.00000308        0.00006525        0.00006889        0.00000314
     243          0.288105        0.000000        0.00000311        0.00000247        0.00003159        0.00008247
     244          0.293953        0.000000        0.00000455        0.00001675        0.00000716        0.00008234
     245          0.300542        0.000000        0.00001075        0.00006098        0.00005741        0.00010109
     246          0.304491        0.000000        0.00003616        0.00008658        0.00028724        0.00006775
     247          0.306594        0.000000        0.00000268        0.00001539        0.00002102        0.00002361
     248          0.308967        0.000000        0.00000102        0.00002486        0.00004817        0.00003333
     249          0.310131        0.000000        0.00002211        0.00003233        0.00024733        0.00005787
     250          0.317975        0.000000        0.00000845        0.00008854        0.00006045        0.00000830
     251          0.324199        0.000000        0.00000215        0.00005892        0.00001216        0.00000666
     252          0.349150        0.000000        0.00003657        0.00004668        0.00033246        0.00007266
     253          0.352051        0.000000        0.00000505        0.00002628        0.00002861        0.00007933
     254          0.440488        0.000000        0.00000024        0.00001968        0.00001338        0.00006063
     255          0.441900        0.000000        0.00000017        0.00000100        0.00000404        0.00000448
     256          0.445113        0.000000        0.00000083        0.00008066        0.00007355        0.00004534
     257          0.446999        0.000000        0.00000195        0.00029905        0.00025035        0.00002730
     258          0.450481        0.000000        0.00000016        0.00000396        0.00000279        0.00000300
     259          0.451506        0.000000        0.00000007        0.00004518        0.00002562        0.00001836