# Projected DOS for atomic kind H at iteration step i = 0, E(Fermi) =    -0.175330 a.u.
#     MO Eigenvalue [a.u.]      Occupation                 s
       1         -0.976908        1.000000        0.27091525
       2         -0.973884        1.000000        0.26673030
       3         -0.964903        1.000000        0.27079786
       4         -0.956105        1.000000        0.28267306
       5         -0.954159        1.000000        0.27255321
       6         -0.932365        1.000000        0.28068946
       7         -0.931716        1.000000        0.27994899
       8         -0.714480        1.000000        0.33174154
       9         -0.710048        1.000000        0.33709782
      10         -0.699686        1.000000        0.33363702
      11         -0.696452        1.000000        0.34098535
      12         -0.696322        1.000000        0.34185919
      13         -0.681640        1.000000        0.34829542
      14         -0.680835        1.000000        0.35068950
      15         -0.630845        1.000000        0.00002492
      16         -0.623875        1.000000        0.00439899
      17         -0.615518        1.000000        0.00842627
      18         -0.604903        1.000000        0.32419432
      19         -0.602357        1.000000        0.32751740
      20         -0.595697        1.000000        0.29007485
      21         -0.591489        1.000000        0.08982879
      22         -0.590905        1.000000        0.04149032
      23         -0.589886        1.000000        0.08042360
      24         -0.587420        1.000000        0.05721760
      25         -0.586856        1.000000        0.05835240
      26         -0.585978        1.000000        0.01335414
      27         -0.584596        1.000000        0.12370801
      28         -0.582936        1.000000        0.26876991
      29         -0.582644        1.000000        0.23207979
      30         -0.582280        1.000000        0.17925525
      31         -0.580598        1.000000        0.09651804
      32         -0.580072        1.000000        0.01659643
      33         -0.577708        1.000000        0.06962690
      34         -0.576418        1.000000        0.05896699
      35         -0.575559        1.000000        0.13114575
      36         -0.574645        1.000000        0.10907990
      37         -0.572879        1.000000        0.17576017
      38         -0.570237        1.000000        0.09653130
      39         -0.569623        1.000000        0.14675462
      40         -0.569084        1.000000        0.07150524
      41         -0.568567        1.000000        0.10928336
      42         -0.568041        1.000000        0.18120647
      43         -0.567128        1.000000        0.05833603
      44         -0.566704        1.000000        0.10123267
      45         -0.565159        1.000000        0.00558030
      46         -0.562741        1.000000        0.02138442
      47         -0.562477        1.000000        0.00438527
      48         -0.561749        1.000000        0.01645895
      49         -0.561486        1.000000        0.02067943
      50         -0.561442        1.000000        0.03558848
      51         -0.560782        1.000000        0.03615001
      52         -0.560328        1.000000        0.02149785
      53         -0.559146        1.000000        0.00268727
      54         -0.558824        1.000000        0.01084098
      55         -0.554710        1.000000        0.00203990
      56         -0.553254        1.000000        0.00138199
      57         -0.552929        1.000000        0.00023186
      58         -0.552351        1.000000        0.00060435
      59         -0.550538        1.000000        0.22922424
      60         -0.549767        1.000000        0.16576580
      61         -0.547900        1.000000        0.04895527
      62         -0.547778        1.000000        0.00140152
      63         -0.543947        1.000000        0.23488713
      64         -0.540568        1.000000        0.20213627
      65         -0.501461        1.000000        0.19732113
      66         -0.495461        1.000000        0.18976567
      67         -0.484019        1.000000        0.19120493
      68         -0.480937        1.000000        0.18747071
      69         -0.477591        1.000000        0.17865975
      70         -0.461474        1.000000        0.17399675
      71         -0.460684        1.000000        0.17079736
      72         -0.456976        1.000000        0.00206247
      73         -0.453492        1.000000        0.00253537
      74         -0.450241        1.000000        0.00163706
      75         -0.448203        1.000000        0.00325736
      76         -0.445858        1.000000        0.00120065
      77         -0.445301        1.000000        0.00177325
      78         -0.444665        1.000000        0.00052313
      79         -0.441144        1.000000        0.00281545
      80         -0.424340        1.000000        0.41804887
      81         -0.423481        1.000000        0.41786177
      82         -0.422615        1.000000        0.42230120
      83         -0.420389        1.000000        0.41842737
      84         -0.413098        1.000000        0.42085155
      85         -0.412585        1.000000        0.42000445
      86         -0.411632        1.000000        0.42000471
      87         -0.411069        1.000000        0.42237086
      88         -0.410057        1.000000        0.41804486
      89         -0.408259        1.000000        0.42130900
      90         -0.399540        1.000000        0.42536134
      91         -0.398172        1.000000        0.42374105
      92         -0.397836        1.000000        0.42280462
      93         -0.396657        1.000000        0.42243704
      94         -0.308234        1.000000        0.00032097
      95         -0.300781        1.000000        0.00043071
      96         -0.293678        1.000000        0.00039021
      97         -0.272984        1.000000        0.00018082
      98         -0.269165        1.000000        0.00026780
      99         -0.264977        1.000000        0.00036866
     100         -0.264276        1.000000        0.00058793
     101         -0.261858        1.000000        0.00032637
     102         -0.261142        1.000000        0.00045245
     103         -0.259599        1.000000        0.00028145
     104         -0.257257        1.000000        0.00038207
     105         -0.256398        1.000000        0.00019978
     106         -0.253213        1.000000        0.00017787
     107         -0.252850        1.000000        0.00030224
     108         -0.252175        1.000000        0.00055720
     109         -0.248703        1.000000        0.00047990
     110         -0.246589        1.000000        0.00053037
     111         -0.244037        1.000000        0.00092685
     112         -0.242090        1.000000        0.00060095
     113         -0.240160        1.000000        0.00075153
     114         -0.238506        1.000000        0.00010989
     115         -0.237819        1.000000        0.00040980
     116         -0.237483        1.000000        0.00041536
     117         -0.236262        1.000000        0.00057700
     118         -0.234982        1.000000        0.00063136
     119         -0.233871        1.000000        0.00117008
     120         -0.232284        1.000000        0.00102668
     121         -0.230458        1.000000        0.00090981
     122         -0.228950        1.000000        0.00031548
     123         -0.226920        1.000000        0.00148814
     124         -0.226476        1.000000        0.00071926
     125         -0.223699        1.000000        0.00076093
     126         -0.222375        1.000000        0.00159443
     127         -0.220923        1.000000        0.00140201
     128         -0.219375        1.000000        0.00083216
     129         -0.217145        1.000000        0.00181898
     130         -0.216159        1.000000        0.00099738
     131         -0.214007        1.000000        0.00105441
     132         -0.212321        1.000000        0.00074882
     133         -0.211805        1.000000        0.00133053
     134         -0.211347        1.000000        0.00107047
     135         -0.210605        1.000000        0.00096973
     136         -0.209369        1.000000        0.00107544
     137         -0.208243        1.000000        0.00072431
     138         -0.207679        1.000000        0.00039285
     139         -0.207227        1.000000        0.00067847
     140         -0.205547        1.000000        0.00058746
     141         -0.205101        1.000000        0.00035575
     142         -0.204601        1.000000        0.00030613
     143         -0.203603        1.000000        0.00041173
     144         -0.202811        1.000000        0.00056131
     145         -0.201065        1.000000        0.00089095
     146         -0.200685        1.000000        0.00032772
     147         -0.199606        1.000000        0.00092071
     148         -0.198311        1.000000        0.00050627
     149         -0.197081        1.000000        0.00057845
     150         -0.196660        1.000000        0.00038275
     151         -0.194964        1.000000        0.00032694
     152         -0.194309        1.000000        0.00032436
     153         -0.193320        1.000000        0.00058579
     154         -0.192991        1.000000        0.00023305
     155         -0.192281        1.000000        0.00060778
     156         -0.191928        1.000000        0.00054281
     157         -0.191065        1.000000        0.00126113
     158         -0.190682        1.000000        0.00023517
     159         -0.190390        1.000000        0.00060725
     160         -0.190057        1.000000        0.00025227
     161         -0.188855        1.000000        0.00023372
     162         -0.188692        1.000000        0.00023832
     163         -0.188556        1.000000        0.00020110
     164         -0.188016        1.000000        0.00036714
     165         -0.187688        1.000000        0.00009637
     166         -0.186948        1.000000        0.00027640
     167         -0.186640        1.000000        0.00048237
     168         -0.186318        1.000000        0.00026646
     169         -0.185766        1.000000        0.00008083
     170         -0.185430        1.000000        0.00011143
     171         -0.184880        1.000000        0.00013415
     172         -0.183864        1.000000        0.00023489
     173         -0.183227        1.000000        0.00013960
     174         -0.182323        1.000000        0.00032234
     175         -0.181915        1.000000        0.00014811
     176         -0.181471        1.000000        0.00010821
     177         -0.180838        1.000000        0.00017374
     178         -0.180405        1.000000        0.00006959
     179         -0.179804        1.000000        0.00009559
     180         -0.179565        1.000000        0.00007682
     181         -0.179186        1.000000        0.00006731
     182         -0.179015        1.000000        0.00015253
     183         -0.178319        1.000000        0.00011527
     184         -0.178109        1.000000        0.00020516
     185         -0.177627        1.000000        0.00010685
     186         -0.177513        1.000000        0.00014469
     187         -0.177342        1.000000        0.00010689
     188         -0.176702        1.000000        0.00005933
     189         -0.176331        1.000000        0.00013160
     190         -0.176227        1.000000        0.00004242
     191         -0.176169        1.000000        0.00006716
     192         -0.175613        1.000000        0.00009061
     193         -0.175353        1.000000        0.00005949
     194         -0.175330        1.000000        0.00011967
     195         -0.175308        0.000000        0.00002842
     196         -0.174953        0.000000        0.00010321
     197         -0.174434        0.000000        0.00010846
     198         -0.174173        0.000000        0.00010326
     199         -0.173933        0.000000        0.00009317
     200         -0.172705        0.000000        0.00007246
     201         -0.170466        0.000000        0.00004726
     202         -0.065818        0.000000        0.00030712
     203         -0.061048        0.000000        0.00032846
     204         -0.058898        0.000000        0.00030465
     205         -0.057250        0.000000        0.00032173
     206         -0.055887        0.000000        0.00088130
     207         -0.052880        0.000000        0.00033076
     208         -0.046609        0.000000        0.00014398
     209         -0.045069        0.000000        0.00014015
     210         -0.042918        0.000000        0.00026393
     211         -0.041024        0.000000        0.00017729
     212         -0.038543        0.000000        0.00009367
     213         -0.036404        0.000000        0.00008057
     214         -0.035349        0.000000        0.00005631
     215         -0.031780        0.000000        0.00021980
     216         -0.030262        0.000000        0.00012503
     217         -0.027506        0.000000        0.00007239
     218         -0.026640        0.000000        0.00018211
     219         -0.025229        0.000000        0.00018453
     220         -0.022191        0.000000        0.00010424
     221         -0.021505        0.000000        0.00011087
     222         -0.011862        0.000000        0.00011533
     223         -0.010747        0.000000        0.00037141
     224         -0.010148        0.000000        0.00014975
     225         -0.005273        0.000000        0.00012417
     226          0.079600        0.000000        0.01142282
     227          0.083709        0.000000        0.02296407
     228          0.086471        0.000000        0.00417794
     229          0.090474        0.000000        0.01596476
     230          0.092418        0.000000        0.01638949
     231          0.107052        0.000000        0.00339850
     232          0.109592        0.000000        0.00417805
     233          0.131515        0.000000        0.64966415
     234          0.149515        0.000000        0.65344499
     235          0.180594        0.000000        0.66538412
     236          0.203142        0.000000        0.64812780
     237          0.238545        0.000000        0.65056219
     238          0.269291        0.000000        0.66415133
     239          0.273775        0.000000        0.66307376
     240          0.281833        0.000000        0.66285039
     241          0.282475        0.000000        0.66472579
     242          0.284959        0.000000        0.66530676
     243          0.288105        0.000000        0.65184352
     244          0.293953        0.000000        0.64630802
     245          0.300542        0.000000        0.66342100
     246          0.304491        0.000000        0.66265524
     247          0.306594        0.000000        0.66229462
     248          0.308967        0.000000        0.64582009
     249          0.310131        0.000000        0.66383594
     250          0.317975        0.000000        0.63485344
     251          0.324199        0.000000        0.64162680
     252          0.349150        0.000000        0.63091897
     253          0.352051        0.000000        0.62866424
     254          0.440488        0.000000        0.58825206
     255          0.441900        0.000000        0.58780033
     256          0.445113        0.000000        0.58999974
     257          0.446999        0.000000        0.58495366
     258          0.450481        0.000000        0.58600057
     259          0.451506        0.000000        0.58468809
     260          0.456149        0.000000        0.58493483
     261          0.456797        0.000000        0.58503660
     262          0.458519        0.000000        0.58316812
     263          0.460101        0.000000        0.59093305
     264          0.465581        0.000000        0.57887210
     265          0.467894        0.000000        0.58069111
     266          0.470082        0.000000        0.58036753
     267          0.471042        0.000000        0.58258837
     268          0.550192        0.000000        0.55236598
     269          0.554070        0.000000        0.55351364
     270          0.555636        0.000000        0.55197767
     271          0.558649        0.000000        0.55299137
     272          0.562951        0.000000        0.55276649
     273          0.564415        0.000000        0.55269421
     274          0.565120        0.000000        0.55301267
