# Projected DOS for atomic kind I at iteration step i = 0, E(Fermi) =    -0.175828 a.u.
#     MO Eigenvalue [a.u.]      Occupation                 s                py                pz                px
       1         -0.977121        1.000000        0.00000678        0.00005482        0.00002303        0.00001587
       2         -0.974076        1.000000        0.00000234        0.00001478        0.00002764        0.00000568
       3         -0.965082        1.000000        0.00005316        0.00006714        0.00008729        0.00023179
       4         -0.956286        1.000000        0.00008280        0.00016821        0.00025231        0.00019076
       5         -0.954375        1.000000        0.00006534        0.00011287        0.00024222        0.00002302
       6         -0.932555        1.000000        0.00023209        0.00053890        0.00028496        0.00030258
       7         -0.931891        1.000000        0.00018938        0.00053215        0.00025070        0.00018019
       8         -0.714704        1.000000        0.00009671        0.00001858        0.00008292        0.00009227
       9         -0.710246        1.000000        0.00041417        0.00016851        0.00019637        0.00021444
      10         -0.699866        1.000000        0.00183218        0.00025205        0.00024015        0.00048807
      11         -0.696672        1.000000        0.00057889        0.00012281        0.00009336        0.00004415
      12         -0.696504        1.000000        0.00096941        0.00026741        0.00034932        0.00032740
      13         -0.681838        1.000000        0.00152702        0.00020196        0.00027967        0.00031425
      14         -0.681012        1.000000        0.00126698        0.00026339        0.00020402        0.00011003
      15         -0.630979        1.000000        0.96434281        0.00470738        0.01985046        0.00800923
      16         -0.624069        1.000000        0.95291443        0.01488742        0.00360682        0.00182123
      17         -0.616768        1.000000        0.94518514        0.00160250        0.01195591        0.00997714
      18         -0.605171        1.000000        0.02250958        0.00029982        0.00071177        0.00013827
      19         -0.602576        1.000000        0.00546619        0.00020146        0.00030811        0.00002931
      20         -0.595900        1.000000        0.12918371        0.00082415        0.00089914        0.00182309
      21         -0.591883        1.000000        0.64903896        0.00314181        0.00266379        0.00215282
      22         -0.591048        1.000000        0.82155217        0.00249314        0.00240066        0.00252105
      23         -0.590207        1.000000        0.72573071        0.00262388        0.00260864        0.00186015
      24         -0.587640        1.000000        0.70851130        0.00436659        0.00405210        0.00449982
      25         -0.587095        1.000000        0.74589479        0.00406456        0.00314603        0.00261171
      26         -0.586128        1.000000        0.94441869        0.00196118        0.00729236        0.00308696
      27         -0.585014        1.000000        0.62211046        0.00535614        0.00313838        0.00247083
      28         -0.584420        1.000000        0.71577780        0.00404785        0.00201870        0.00129521
      29         -0.583102        1.000000        0.05140005        0.00105633        0.00033213        0.00020329
      30         -0.582716        1.000000        0.08836323        0.00095151        0.00038695        0.00027696
      31         -0.581291        1.000000        0.95155832        0.00178010        0.00537190        0.00331220
      32         -0.580841        1.000000        0.69459746        0.00637703        0.00185346        0.00119631
      33         -0.578238        1.000000        0.77116434        0.00304895        0.00312728        0.00307796
      34         -0.577304        1.000000        0.77339050        0.00300771        0.00216873        0.00207920
      35         -0.575888        1.000000        0.48917590        0.00130782        0.00265813        0.00212277
      36         -0.575399        1.000000        0.61982781        0.00194839        0.00204900        0.00258886
      37         -0.573143        1.000000        0.40395478        0.00098216        0.00147028        0.00090957
      38         -0.570766        1.000000        0.63775046        0.00118686        0.00197686        0.00133524
      39         -0.570103        1.000000        0.41145302        0.00260914        0.00192391        0.00317303
      40         -0.569696        1.000000        0.70078525        0.00305269        0.00269556        0.00331184
      41         -0.568961        1.000000        0.68271603        0.00183969        0.00194794        0.00197679
      42         -0.568415        1.000000        0.34124868        0.00201681        0.00252358        0.00236871
      43         -0.567407        1.000000        0.72903636        0.00157092        0.00221720        0.00272138
      44         -0.567017        1.000000        0.76581471        0.00129380        0.00183056        0.00190563
      45         -0.566104        1.000000        0.90381730        0.00165700        0.00282604        0.00175146
      46         -0.564141        1.000000        0.82161388        0.00236652        0.00161840        0.00405945
      47         -0.562838        1.000000        0.87109942        0.00211342        0.00198937        0.00286151
      48         -0.562533        1.000000        0.90349422        0.00090226        0.00047636        0.00170013
      49         -0.562162        1.000000        0.86752355        0.00091993        0.00044890        0.00267498
      50         -0.561186        1.000000        0.86031011        0.00155587        0.00147528        0.00144439
      51         -0.561090        1.000000        0.86923217        0.00151107        0.00165923        0.00152763
      52         -0.560867        1.000000        0.90823638        0.00155892        0.00230347        0.00135062
      53         -0.559532        1.000000        0.96749651        0.00080456        0.00037977        0.00130403
      54         -0.558840        1.000000        0.89582126        0.00419234        0.00086309        0.00118960
      55         -0.556062        1.000000        0.96587208        0.00154924        0.00017690        0.00081587
      56         -0.554409        1.000000        0.96161458        0.00154630        0.00106302        0.00051301
      57         -0.553642        1.000000        0.96080461        0.00098550        0.00104512        0.00076560
      58         -0.553317        1.000000        0.95699814        0.00158779        0.00034650        0.00131731
      59         -0.550709        1.000000        0.33464686        0.00154714        0.00095301        0.00131906
      60         -0.550557        1.000000        0.65574642        0.00159508        0.00097616        0.00071593
      61         -0.548968        1.000000        0.59397051        0.00175713        0.00113541        0.00092460
      62         -0.548807        1.000000        0.97781024        0.00022283        0.00045412        0.00008785
      63         -0.544137        1.000000        0.23334955        0.00268244        0.00216300        0.00185200
      64         -0.540792        1.000000        0.31753111        0.00185408        0.00177115        0.00096904
      65         -0.501676        1.000000        0.00135225        0.00017971        0.00029502        0.00033544
      66         -0.495648        1.000000        0.00232029        0.00053152        0.00064688        0.00068033
      67         -0.484189        1.000000        0.00284607        0.00053390        0.00088747        0.00168291
      68         -0.481147        1.000000        0.00130621        0.00059023        0.00106716        0.00016783
      69         -0.477766        1.000000        0.00236541        0.00131932        0.00144393        0.00124381
      70         -0.461665        1.000000        0.00488298        0.00223897        0.00246333        0.00305744
      71         -0.460858        1.000000        0.00451012        0.00298333        0.00306051        0.00132358
      72         -0.457272        1.000000        0.16677174        0.04787243        0.03739579        0.04459400
      73         -0.453636        1.000000        0.12589890        0.04788414        0.03321105        0.03673946
      74         -0.450670        1.000000        0.11959783        0.04679579        0.04020232        0.03036969
      75         -0.448410        1.000000        0.13771218        0.02737950        0.03874313        0.03733928
      76         -0.446196        1.000000        0.12946684        0.03964231        0.02800888        0.03566531
      77         -0.445652        1.000000        0.13590942        0.03113370        0.03319827        0.03348970
      78         -0.445066        1.000000        0.13648112        0.02857040        0.03860601        0.03313230
      79         -0.441475        1.000000        0.13404870        0.02561124        0.02292628        0.03639096
      80         -0.424556        1.000000        0.00026657        0.00027990        0.00022966        0.00030688
      81         -0.423678        1.000000        0.00215254        0.00203764        0.00116403        0.00192968
      82         -0.422838        1.000000        0.00038450        0.00021229        0.00043211        0.00049505
      83         -0.420574        1.000000        0.00089334        0.00196234        0.00115267        0.00051809
      84         -0.413265        1.000000        0.00063714        0.00124065        0.00085723        0.00148576
      85         -0.412757        1.000000        0.00178182        0.00161735        0.00195167        0.00344187
      86         -0.411811        1.000000        0.00133265        0.00231303        0.00089126        0.00249023
      87         -0.411293        1.000000        0.00072205        0.00054629        0.00131260        0.00046819
      88         -0.410233        1.000000        0.00112392        0.00135554        0.00195998        0.00164832
      89         -0.408484        1.000000        0.00031533        0.00056261        0.00026784        0.00041850
      90         -0.399726        1.000000        0.00077461        0.00101130        0.00173470        0.00107105
      91         -0.398342        1.000000        0.00090000        0.00168334        0.00144836        0.00083659
      92         -0.398003        1.000000        0.00107789        0.00190856        0.00120486        0.00065249
      93         -0.396863        1.000000        0.00180618        0.00187124        0.00160918        0.00240017
      94         -0.308401        1.000000        0.03240870        0.13452535        0.58641608        0.24446017
      95         -0.300988        1.000000        0.02156837        0.70463214        0.22248641        0.00428408
      96         -0.295563        1.000000        0.02302805        0.00980310        0.49664723        0.42752812
      97         -0.273354        1.000000        0.01149830        0.18372850        0.23237461        0.33989814
      98         -0.269403        1.000000        0.01253845        0.37606017        0.26206673        0.09361252
      99         -0.265779        1.000000        0.01118134        0.33305782        0.17297614        0.22144770
     100         -0.264649        1.000000        0.00853043        0.13375258        0.30905332        0.34538057
     101         -0.262319        1.000000        0.01304180        0.18127651        0.26554313        0.31554510
     102         -0.261483        1.000000        0.01058148        0.16354712        0.34428548        0.24541282
     103         -0.260523        1.000000        0.00825437        0.28003420        0.27310797        0.21078096
     104         -0.257648        1.000000        0.01364888        0.22195795        0.24869021        0.26240683
     105         -0.256624        1.000000        0.01658110        0.35915381        0.22046997        0.14005491
     106         -0.254718        1.000000        0.01057342        0.12095580        0.41644330        0.23420290
     107         -0.253439        1.000000        0.01220112        0.38186334        0.22679243        0.13075370
     108         -0.252760        1.000000        0.01052899        0.16268475        0.22555849        0.41154189
     109         -0.249092        1.000000        0.01211794        0.18475752        0.19112811        0.43023936
     110         -0.246851        1.000000        0.01193015        0.06228976        0.25997345        0.49165110
     111         -0.244371        1.000000        0.01216655        0.40226170        0.12937276        0.27635596
     112         -0.242607        1.000000        0.00981447        0.21847969        0.35157871        0.23297387
     113         -0.240387        1.000000        0.00692629        0.44518194        0.15754107        0.30399688
     114         -0.238783        1.000000        0.00920113        0.51827539        0.18357335        0.15735512
     115         -0.238221        1.000000        0.01143608        0.40528597        0.20764544        0.19758601
     116         -0.237971        1.000000        0.01355904        0.16340770        0.21944419        0.40094134
     117         -0.236505        1.000000        0.01280749        0.16243777        0.34210220        0.29828553
     118         -0.235614        1.000000        0.01552520        0.32296800        0.10099329        0.34330544
     119         -0.234433        1.000000        0.01029921        0.30002427        0.20534467        0.30262941
     120         -0.232637        1.000000        0.00994892        0.34526109        0.28902640        0.22125525
     121         -0.231089        1.000000        0.01140282        0.43035262        0.21564204        0.17014156
     122         -0.229646        1.000000        0.01099249        0.27162334        0.24804913        0.27867568
     123         -0.227140        1.000000        0.00733644        0.16343031        0.20144415        0.47895097
     124         -0.227080        1.000000        0.00816256        0.23763042        0.25167542        0.34032492
     125         -0.223773        1.000000        0.00390415        0.09211264        0.30363394        0.54629252
     126         -0.223267        1.000000        0.00282482        0.32416585        0.25595281        0.34248290
     127         -0.221421        1.000000        0.00552457        0.15860778        0.53895543        0.20709265
     128         -0.219864        1.000000        0.00306603        0.56845605        0.12488010        0.24876203
     129         -0.217546        1.000000        0.00337171        0.35956225        0.33564681        0.25380530
     130         -0.217116        1.000000        0.00299470        0.44214019        0.19283803        0.32255490
     131         -0.214727        1.000000        0.00351536        0.22118115        0.39017756        0.31939134
     132         -0.212670        1.000000        0.00264287        0.17819568        0.23204793        0.53434274
     133         -0.212248        1.000000        0.00276491        0.38974741        0.16340983        0.40241597
     134         -0.211613        1.000000        0.00180896        0.13235571        0.26970230        0.56731004
     135         -0.210981        1.000000        0.00214607        0.29057334        0.32846582        0.33940324
     136         -0.209821        1.000000        0.00204633        0.39536778        0.28218237        0.28770613
     137         -0.208710        1.000000        0.00089112        0.30436538        0.44347061        0.23662833
     138         -0.208130        1.000000        0.00157834        0.54182187        0.18356199        0.24710201
     139         -0.207684        1.000000        0.00137756        0.33372075        0.38077695        0.26867889
     140         -0.206114        1.000000        0.00167433        0.44347936        0.28721656        0.23305511
     141         -0.205299        1.000000        0.00088282        0.49488861        0.38066322        0.10878294
     142         -0.204793        1.000000        0.00071417        0.53327648        0.31175236        0.14337926
     143         -0.203991        1.000000        0.00104779        0.29832407        0.36039234        0.32652887
     144         -0.203209        1.000000        0.00118059        0.31868923        0.29475488        0.36393723
     145         -0.201605        1.000000        0.00149411        0.46240986        0.28043178        0.22681118
     146         -0.201050        1.000000        0.00066089        0.31541855        0.40427593        0.26099132
     147         -0.199838        1.000000        0.00229779        0.57232827        0.18242258        0.19005048
     148         -0.198559        1.000000        0.00111114        0.27814300        0.39880775        0.30061410
     149         -0.197645        1.000000        0.00161711        0.24112009        0.47423543        0.25696106
     150         -0.196499        1.000000        0.00127818        0.41845247        0.32944865        0.22138862
     151         -0.195352        1.000000        0.00145014        0.25959497        0.42980653        0.27127992
     152         -0.194963        1.000000        0.00048277        0.23249469        0.31921625        0.42945043
     153         -0.193904        1.000000        0.00200297        0.30376771        0.32570770        0.33926764
     154         -0.193505        1.000000        0.00078546        0.29024627        0.36512506        0.30943283
     155         -0.192667        1.000000        0.00082945        0.33845796        0.37875593        0.25910567
     156         -0.192341        1.000000        0.00084925        0.33276234        0.35122610        0.28750892
     157         -0.191817        1.000000        0.00119933        0.36785805        0.22622662        0.38508677
     158         -0.191047        1.000000        0.00079624        0.37438683        0.15237103        0.46382586
     159         -0.190852        1.000000        0.00048050        0.35242359        0.18990363        0.45347115
     160         -0.190357        1.000000        0.00044062        0.34503224        0.24211413        0.40852976
     161         -0.189872        1.000000        0.00053551        0.25092128        0.39641928        0.34684942
     162         -0.189500        1.000000        0.00082663        0.30108732        0.37756695        0.30763704
     163         -0.189011        1.000000        0.00115012        0.20642991        0.54659652        0.22717736
     164         -0.188623        1.000000        0.00106447        0.36399333        0.37755443        0.24447867
     165         -0.188248        1.000000        0.00117796        0.32747682        0.31216795        0.34508540
     166         -0.187735        1.000000        0.00087239        0.36731784        0.23407903        0.38784791
     167         -0.186981        1.000000        0.00147325        0.31250794        0.28622950        0.37951150
     168         -0.186510        1.000000        0.00085811        0.42247039        0.25802748        0.31211880
     169         -0.186057        1.000000        0.00093791        0.21220774        0.27147076        0.50950557
     170         -0.185975        1.000000        0.00061840        0.47130708        0.24396722        0.27730506
     171         -0.185285        1.000000        0.00087932        0.33683215        0.30622831        0.34511886
     172         -0.184526        1.000000        0.00092659        0.36077198        0.30272172        0.31187444
     173         -0.184273        1.000000        0.00081937        0.13229108        0.70257457        0.15791270
     174         -0.183052        1.000000        0.00130752        0.45760331        0.26036995        0.24002872
     175         -0.182615        1.000000        0.00092535        0.25549937        0.33064994        0.39002198
     176         -0.181676        1.000000        0.00077363        0.18168695        0.74472856        0.07017057
     177         -0.181576        1.000000        0.00084622        0.26709256        0.44210491        0.25379809
     178         -0.180854        1.000000        0.00099596        0.25036500        0.25026010        0.48018186
     179         -0.180762        1.000000        0.00093038        0.32550748        0.34583658        0.29897965
     180         -0.180092        1.000000        0.00050545        0.30262618        0.34276672        0.33285754
     181         -0.179880        1.000000        0.00051136        0.26919254        0.48410683        0.23539921
     182         -0.179642        1.000000        0.00073149        0.29369303        0.14099740        0.55375762
     183         -0.179356        1.000000        0.00066455        0.16334111        0.16311657        0.65872870
     184         -0.178613        1.000000        0.00032474        0.24260846        0.54768707        0.19344800
     185         -0.178321        1.000000        0.00076241        0.26854897        0.31910818        0.36290580
     186         -0.178002        1.000000        0.00062529        0.32555165        0.19701640        0.45783405
     187         -0.177816        1.000000        0.00073848        0.11882815        0.55411505        0.32185628
     188         -0.177681        1.000000        0.00078068        0.41518954        0.11315308        0.44501056
     189         -0.177243        1.000000        0.00060863        0.38692964        0.21582954        0.36314365
     190         -0.176859        1.000000        0.00030754        0.25378460        0.24941758        0.49083024
     191         -0.176770        1.000000        0.00131126        0.29999639        0.51181301        0.18131705
     192         -0.176562        1.000000        0.00034255        0.23888210        0.40156469        0.35415036
     193         -0.176399        1.000000        0.00037896        0.44698142        0.33030353        0.21049161
     194         -0.175979        1.000000        0.00028987        0.33234367        0.19229863        0.45973104
     195         -0.175828        1.000000        0.00067261        0.47241023        0.24551374        0.26552890
     196         -0.175747        0.000000        0.00155740        0.35779602        0.31804169        0.30453771
     197         -0.175596        0.000000        0.00339960        0.17283956        0.41159834        0.39535442
     198         -0.174759        0.000000        0.00657245        0.58864560        0.30111635        0.08412396
     199         -0.174597        0.000000        0.00821659        0.20082161        0.51436945        0.24950182
     200         -0.173998        0.000000        0.00487394        0.29642042        0.41844382        0.22453317
     201         -0.171771        0.000000        0.00039840        0.33204810        0.20698949        0.32596704
     202         -0.066111        0.000000        0.02136031        0.07051309        0.10052109        0.06421157
     203         -0.061283        0.000000        0.02325148        0.01113086        0.03961734        0.19044404
     204         -0.059245        0.000000        0.01581487        0.06868061        0.12422175        0.06507136
     205         -0.057491        0.000000        0.01591870        0.05392855        0.15453771        0.05077169
     206         -0.056074        0.000000        0.02400038        0.06102431        0.17264599        0.02272394
     207         -0.053115        0.000000        0.02294516        0.03870054        0.18836982        0.03245379
     208         -0.046884        0.000000        0.02146412        0.05670306        0.17185111        0.03859577
     209         -0.045496        0.000000        0.02655907        0.14182064        0.03615412        0.08096045
     210         -0.043190        0.000000        0.02615975        0.12877225        0.10088188        0.04151486
     211         -0.041443        0.000000        0.02169541        0.08022462        0.02249891        0.17256995
     212         -0.038830        0.000000        0.02522518        0.13953300        0.06329115        0.06919952
     213         -0.036666        0.000000        0.02267522        0.09007407        0.07635168        0.11245818
     214         -0.035663        0.000000        0.01850438        0.04923585        0.04060111        0.19362373
     215         -0.032041        0.000000        0.01797932        0.04540826        0.16812855        0.07466945
     216         -0.030481        0.000000        0.01746086        0.01611117        0.15868632        0.11392374
     217         -0.027964        0.000000        0.01955176        0.01799431        0.09380097        0.17294446
     218         -0.027007        0.000000        0.01663264        0.03989483        0.16896219        0.07518907
     219         -0.025486        0.000000        0.01581076        0.02670702        0.09701353        0.16662339
     220         -0.022585        0.000000        0.01680433        0.08645873        0.06226882        0.14406280
     221         -0.021889        0.000000        0.01696256        0.12511527        0.04752100        0.11733563
     222         -0.012117        0.000000        0.01600670        0.07237734        0.03614035        0.19071100
     223         -0.010793        0.000000        0.01441248        0.29932193        0.00473308        0.01080663
     224         -0.010750        0.000000        0.01375713        0.22708025        0.03771549        0.03141938
     225         -0.005552        0.000000        0.01649407        0.26453843        0.02043912        0.02608310
     226          0.079401        0.000000        0.00003838        0.00026417        0.00069514        0.00097019
     227          0.083528        0.000000        0.00007024        0.00056147        0.00109608        0.00057561
     228          0.086314        0.000000        0.00006923        0.00076838        0.00084066        0.00094932
     229          0.090321        0.000000        0.00007307        0.00049444        0.00077824        0.00114168
     230          0.092227        0.000000        0.00003367        0.00069207        0.00054514        0.00012538
     231          0.106895        0.000000        0.00005034        0.00095450        0.00076807        0.00034619
     232          0.109410        0.000000        0.00006656        0.00080624        0.00077782        0.00085715
     233          0.131303        0.000000        0.00000821        0.00006491        0.00030388        0.00006595
     234          0.149306        0.000000        0.00000352        0.00007241        0.00011592        0.00011845
     235          0.180346        0.000000        0.00000640        0.00005895        0.00002966        0.00004587
     236          0.202905        0.000000        0.00000292        0.00014903        0.00004690        0.00004214
     237          0.238302        0.000000        0.00001116        0.00020066        0.00014098        0.00006385
     238          0.269088        0.000000        0.00000743        0.00035718        0.00034397        0.00013545
     239          0.273602        0.000000        0.00031121        0.00417846        0.00070453        0.00247837
     240          0.281643        0.000000        0.00013249        0.00036506        0.00022149        0.00293484
     241          0.282270        0.000000        0.00018213        0.00155240        0.00020028        0.00237366
     242          0.284778        0.000000        0.00041253        0.00372127        0.00571418        0.00068254
     243          0.287949        0.000000        0.00011151        0.00187918        0.00262186        0.00037542
     244          0.293742        0.000000        0.00001509        0.00064714        0.00070303        0.00013792
     245          0.300337        0.000000        0.00107506        0.00796965        0.00440972        0.00520373
     246          0.304308        0.000000        0.00080707        0.00907019        0.00381212        0.00292503
     247          0.306430        0.000000        0.00031312        0.00431938        0.00095360        0.00251183
     248          0.308776        0.000000        0.00010676        0.00114585        0.00089292        0.00293197
     249          0.309933        0.000000        0.00034156        0.00514038        0.00216961        0.00181924
     250          0.317782        0.000000        0.00042822        0.00421224        0.00155471        0.00402098
     251          0.323989        0.000000        0.00058492        0.00287316        0.00897043        0.00070246
     252          0.348953        0.000000        0.00092469        0.01065354        0.00399414        0.00398708
     253          0.351867        0.000000        0.00101852        0.00917101        0.00417379        0.00495544
     254          0.440301        0.000000        0.00000571        0.00005061        0.00008397        0.00002828
     255          0.441705        0.000000        0.00000635        0.00001455        0.00009057        0.00006873
     256          0.444965        0.000000        0.00001394        0.00036999        0.00018375        0.00010308
     257          0.446826        0.000000        0.00002829        0.00030836        0.00019877        0.00009976
     258          0.450285        0.000000        0.00001660        0.00002950        0.00018118        0.00005607
     259          0.451355        0.000000        0.00001252        0.00003915        0.00009969        0.00018362