# Projected DOS for atomic kind H at iteration step i = 0, E(Fermi) =    -0.175828 a.u.
#     MO Eigenvalue [a.u.]      Occupation                 s
       1         -0.977121        1.000000        0.27096209
       2         -0.974076        1.000000        0.26677707
       3         -0.965082        1.000000        0.27084276
       4         -0.956286        1.000000        0.28271184
       5         -0.954375        1.000000        0.27259610
       6         -0.932555        1.000000        0.28071608
       7         -0.931891        1.000000        0.27999355
       8         -0.714704        1.000000        0.33174653
       9         -0.710246        1.000000        0.33708650
      10         -0.699866        1.000000        0.33362970
      11         -0.696672        1.000000        0.34098773
      12         -0.696504        1.000000        0.34186114
      13         -0.681838        1.000000        0.34830284
      14         -0.681012        1.000000        0.35068672
      15         -0.630979        1.000000        0.00002488
      16         -0.624069        1.000000        0.00440666
      17         -0.616768        1.000000        0.00813825
      18         -0.605171        1.000000        0.32322587
      19         -0.602576        1.000000        0.32751641
      20         -0.595900        1.000000        0.29000406
      21         -0.591883        1.000000        0.09761659
      22         -0.591048        1.000000        0.03946447
      23         -0.590207        1.000000        0.07077249
      24         -0.587640        1.000000        0.06355553
      25         -0.587095        1.000000        0.06238328
      26         -0.586128        1.000000        0.01195069
      27         -0.585014        1.000000        0.10390816
      28         -0.584420        1.000000        0.07620325
      29         -0.583102        1.000000        0.30149404
      30         -0.582716        1.000000        0.29123844
      31         -0.581291        1.000000        0.00899625
      32         -0.580841        1.000000        0.09308403
      33         -0.578238        1.000000        0.05411086
      34         -0.577304        1.000000        0.06405114
      35         -0.575888        1.000000        0.14910408
      36         -0.575399        1.000000        0.10752509
      37         -0.573143        1.000000        0.18282074
      38         -0.570766        1.000000        0.10236220
      39         -0.570103        1.000000        0.16846001
      40         -0.569696        1.000000        0.07139678
      41         -0.568961        1.000000        0.08256934
      42         -0.568415        1.000000        0.19425154
      43         -0.567407        1.000000        0.08221357
      44         -0.567017        1.000000        0.06895023
      45         -0.566104        1.000000        0.00910193
      46         -0.564141        1.000000        0.03038706
      47         -0.562838        1.000000        0.01829415
      48         -0.562533        1.000000        0.01666132
      49         -0.562162        1.000000        0.03097631
      50         -0.561186        1.000000        0.03049266
      51         -0.561090        1.000000        0.02518217
      52         -0.560867        1.000000        0.01901622
      53         -0.559532        1.000000        0.00228587
      54         -0.558840        1.000000        0.01598271
      55         -0.556062        1.000000        0.00109104
      56         -0.554409        1.000000        0.00055386
      57         -0.553642        1.000000        0.00135398
      58         -0.553317        1.000000        0.00026898
      59         -0.550709        1.000000        0.20887723
      60         -0.550557        1.000000        0.10300854
      61         -0.548968        1.000000        0.12537330
      62         -0.548807        1.000000        0.00545140
      63         -0.544137        1.000000        0.23510647
      64         -0.540792        1.000000        0.20294421
      65         -0.501676        1.000000        0.19736526
      66         -0.495648        1.000000        0.18981510
      67         -0.484189        1.000000        0.19124183
      68         -0.481147        1.000000        0.18752056
      69         -0.477766        1.000000        0.17869813
      70         -0.461665        1.000000        0.17410821
      71         -0.460858        1.000000        0.17065236
      72         -0.457272        1.000000        0.00221077
      73         -0.453636        1.000000        0.00252161
      74         -0.450670        1.000000        0.00153033
      75         -0.448410        1.000000        0.00310956
      76         -0.446196        1.000000        0.00109905
      77         -0.445652        1.000000        0.00203317
      78         -0.445066        1.000000        0.00053050
      79         -0.441475        1.000000        0.00280166
      80         -0.424556        1.000000        0.41807293
      81         -0.423678        1.000000        0.41792070
      82         -0.422838        1.000000        0.42232722
      83         -0.420574        1.000000        0.41838433
      84         -0.413265        1.000000        0.42085074
      85         -0.412757        1.000000        0.42002211
      86         -0.411811        1.000000        0.42002943
      87         -0.411293        1.000000        0.42239202
      88         -0.410233        1.000000        0.41806756
      89         -0.408484        1.000000        0.42133408
      90         -0.399726        1.000000        0.42536180
      91         -0.398342        1.000000        0.42374444
      92         -0.398003        1.000000        0.42279106
      93         -0.396863        1.000000        0.42244956
      94         -0.308401        1.000000        0.00032066
      95         -0.300988        1.000000        0.00043242
      96         -0.295563        1.000000        0.00039338
      97         -0.273354        1.000000        0.00018088
      98         -0.269403        1.000000        0.00027315
      99         -0.265779        1.000000        0.00033819
     100         -0.264649        1.000000        0.00055984
     101         -0.262319        1.000000        0.00031029
     102         -0.261483        1.000000        0.00046667
     103         -0.260523        1.000000        0.00029849
     104         -0.257648        1.000000        0.00039330
     105         -0.256624        1.000000        0.00016065
     106         -0.254718        1.000000        0.00029026
     107         -0.253439        1.000000        0.00020461
     108         -0.252760        1.000000        0.00056874
     109         -0.249092        1.000000        0.00046294
     110         -0.246851        1.000000        0.00054548
     111         -0.244371        1.000000        0.00090273
     112         -0.242607        1.000000        0.00061476
     113         -0.240387        1.000000        0.00076452
     114         -0.238783        1.000000        0.00010356
     115         -0.238221        1.000000        0.00038919
     116         -0.237971        1.000000        0.00040738
     117         -0.236505        1.000000        0.00056342
     118         -0.235614        1.000000        0.00055055
     119         -0.234433        1.000000        0.00115601
     120         -0.232637        1.000000        0.00103732
     121         -0.231089        1.000000        0.00099604
     122         -0.229646        1.000000        0.00032771
     123         -0.227140        1.000000        0.00125691
     124         -0.227080        1.000000        0.00091035
     125         -0.223773        1.000000        0.00087079
     126         -0.223267        1.000000        0.00163644
     127         -0.221421        1.000000        0.00119975
     128         -0.219864        1.000000        0.00070303
     129         -0.217546        1.000000        0.00099765
     130         -0.217116        1.000000        0.00181103
     131         -0.214727        1.000000        0.00115089
     132         -0.212670        1.000000        0.00081098
     133         -0.212248        1.000000        0.00122709
     134         -0.211613        1.000000        0.00108302
     135         -0.210981        1.000000        0.00100555
     136         -0.209821        1.000000        0.00114488
     137         -0.208710        1.000000        0.00076308
     138         -0.208130        1.000000        0.00042603
     139         -0.207684        1.000000        0.00065210
     140         -0.206114        1.000000        0.00058656
     141         -0.205299        1.000000        0.00036337
     142         -0.204793        1.000000        0.00027485
     143         -0.203991        1.000000        0.00041068
     144         -0.203209        1.000000        0.00053093
     145         -0.201605        1.000000        0.00094099
     146         -0.201050        1.000000        0.00030879
     147         -0.199838        1.000000        0.00091502
     148         -0.198559        1.000000        0.00054985
     149         -0.197645        1.000000        0.00058975
     150         -0.196499        1.000000        0.00041373
     151         -0.195352        1.000000        0.00031040
     152         -0.194963        1.000000        0.00025312
     153         -0.193904        1.000000        0.00082423
     154         -0.193505        1.000000        0.00024553
     155         -0.192667        1.000000        0.00041002
     156         -0.192341        1.000000        0.00023469
     157         -0.191817        1.000000        0.00136299
     158         -0.191047        1.000000        0.00048624
     159         -0.190852        1.000000        0.00034983
     160         -0.190357        1.000000        0.00024753
     161         -0.189872        1.000000        0.00022845
     162         -0.189500        1.000000        0.00022760
     163         -0.189011        1.000000        0.00026537
     164         -0.188623        1.000000        0.00040043
     165         -0.188248        1.000000        0.00046395
     166         -0.187735        1.000000        0.00023567
     167         -0.186981        1.000000        0.00020714
     168         -0.186510        1.000000        0.00022246
     169         -0.186057        1.000000        0.00013929
     170         -0.185975        1.000000        0.00019750
     171         -0.185285        1.000000        0.00008373
     172         -0.184526        1.000000        0.00012770
     173         -0.184273        1.000000        0.00027155
     174         -0.183052        1.000000        0.00019292
     175         -0.182615        1.000000        0.00025285
     176         -0.181676        1.000000        0.00015634
     177         -0.181576        1.000000        0.00015604
     178         -0.180854        1.000000        0.00008857
     179         -0.180762        1.000000        0.00014104
     180         -0.180092        1.000000        0.00008158
     181         -0.179880        1.000000        0.00012436
     182         -0.179642        1.000000        0.00012226
     183         -0.179356        1.000000        0.00009733
     184         -0.178613        1.000000        0.00011531
     185         -0.178321        1.000000        0.00012910
     186         -0.178002        1.000000        0.00006199
     187         -0.177816        1.000000        0.00003655
     188         -0.177681        1.000000        0.00010047
     189         -0.177243        1.000000        0.00006624
     190         -0.176859        1.000000        0.00017873
     191         -0.176770        1.000000        0.00015605
     192         -0.176562        1.000000        0.00009352
     193         -0.176399        1.000000        0.00007842
     194         -0.175979        1.000000        0.00006532
     195         -0.175828        1.000000        0.00007039
     196         -0.175747        0.000000        0.00007424
     197         -0.175596        0.000000        0.00006785
     198         -0.174759        0.000000        0.00012569
     199         -0.174597        0.000000        0.00007244
     200         -0.173998        0.000000        0.00011635
     201         -0.171771        0.000000        0.00003745
     202         -0.066111        0.000000        0.00030898
     203         -0.061283        0.000000        0.00033098
     204         -0.059245        0.000000        0.00030227
     205         -0.057491        0.000000        0.00032002
     206         -0.056074        0.000000        0.00087210
     207         -0.053115        0.000000        0.00033388
     208         -0.046884        0.000000        0.00014275
     209         -0.045496        0.000000        0.00014392
     210         -0.043190        0.000000        0.00026651
     211         -0.041443        0.000000        0.00017903
     212         -0.038830        0.000000        0.00009226
     213         -0.036666        0.000000        0.00008022
     214         -0.035663        0.000000        0.00005585
     215         -0.032041        0.000000        0.00022302
     216         -0.030481        0.000000        0.00012556
     217         -0.027964        0.000000        0.00008059
     218         -0.027007        0.000000        0.00017784
     219         -0.025486        0.000000        0.00018298
     220         -0.022585        0.000000        0.00009551
     221         -0.021889        0.000000        0.00012125
     222         -0.012117        0.000000        0.00011424
     223         -0.010793        0.000000        0.00035714
     224         -0.010750        0.000000        0.00016401
     225         -0.005552        0.000000        0.00012370
     226          0.079401        0.000000        0.01144574
     227          0.083528        0.000000        0.02303138
     228          0.086314        0.000000        0.00417235
     229          0.090321        0.000000        0.01600564
     230          0.092227        0.000000        0.01641850
     231          0.106895        0.000000        0.00340177
     232          0.109410        0.000000        0.00418260
     233          0.131303        0.000000        0.64951133
     234          0.149306        0.000000        0.65330511
     235          0.180346        0.000000        0.66527587
     236          0.202905        0.000000        0.64800741
     237          0.238302        0.000000        0.65045593
     238          0.269088        0.000000        0.66408028
     239          0.273602        0.000000        0.66304663
     240          0.281643        0.000000        0.66279504
     241          0.282270        0.000000        0.66466136
     242          0.284778        0.000000        0.66529414
     243          0.287949        0.000000        0.65186140
     244          0.293742        0.000000        0.64624140
     245          0.300337        0.000000        0.66338096
     246          0.304308        0.000000        0.66258579
     247          0.306430        0.000000        0.66225002
     248          0.308776        0.000000        0.64580227
     249          0.309933        0.000000        0.66375710
     250          0.317782        0.000000        0.63479922
     251          0.323989        0.000000        0.64156126
     252          0.348953        0.000000        0.63084891
     253          0.351867        0.000000        0.62861928
     254          0.440301        0.000000        0.58826782
     255          0.441705        0.000000        0.58777341
     256          0.444965        0.000000        0.59005712
     257          0.446826        0.000000        0.58494098
     258          0.450285        0.000000        0.58597905
     259          0.451355        0.000000        0.58468572
     260          0.455982        0.000000        0.58490365
     261          0.456610        0.000000        0.58503545
     262          0.458374        0.000000        0.58318382
     263          0.459954        0.000000        0.59093222
     264          0.465435        0.000000        0.57887145
     265          0.467722        0.000000        0.58069612
     266          0.469920        0.000000        0.58035573
     267          0.470905        0.000000        0.58260477
     268          0.550003        0.000000        0.55234664
     269          0.553916        0.000000        0.55349672
     270          0.555491        0.000000        0.55197807
     271          0.558455        0.000000        0.55296446
     272          0.562806        0.000000        0.55275019
     273          0.564249        0.000000        0.55267787
     274          0.564984        0.000000        0.55300832
