# Projected DOS for atomic kind N at iteration step i = 0, E(Fermi) =    -0.175330 a.u.
#     MO Eigenvalue [a.u.]      Occupation                 s                py                pz                px
       1         -0.976908        1.000000        0.62350167        0.00000221        0.00018708        0.00006594
       2         -0.973884        1.000000        0.62171986        0.00133272        0.00000208        0.00004621
       3         -0.964903        1.000000        0.62126547        0.00033151        0.00066654        0.00004770
       4         -0.956105        1.000000        0.61619405        0.00006609        0.00002816        0.00023723
       5         -0.954159        1.000000        0.61869713        0.00031150        0.00029808        0.00000493
       6         -0.932365        1.000000        0.61101331        0.00001862        0.00008242        0.00002139
       7         -0.931716        1.000000        0.61181582        0.00000166        0.00000125        0.00002418
       8         -0.714480        1.000000        0.01435776        0.00764057        0.13720763        0.07720915
       9         -0.710048        1.000000        0.01815419        0.01595596        0.02208930        0.17489396
      10         -0.699686        1.000000        0.01597303        0.00070856        0.00175851        0.21389316
      11         -0.696452        1.000000        0.01712994        0.00238982        0.00786439        0.19298727
      12         -0.696322        1.000000        0.01484801        0.00039288        0.06533060        0.13256365
      13         -0.681640        1.000000        0.01729356        0.00711559        0.09909586        0.08422794
      14         -0.680835        1.000000        0.01850808        0.00374151        0.04019080        0.14077984
      15         -0.630845        1.000000        0.00000065        0.00000717        0.00000081        0.00002459
      16         -0.623875        1.000000        0.00068578        0.00383570        0.00038650        0.00016847
      17         -0.615518        1.000000        0.00025703        0.00966119        0.00043656        0.00039696
      18         -0.604903        1.000000        0.00002445        0.38310540        0.12400204        0.09396088
      19         -0.602357        1.000000        0.00002935        0.00560806        0.54277796        0.06198823
      20         -0.595697        1.000000        0.00008375        0.27979324        0.24211043        0.00670698
      21         -0.591489        1.000000        0.00023381        0.03936472        0.07804206        0.03241012
      22         -0.590905        1.000000        0.00019838        0.04806276        0.00394434        0.00957192
      23         -0.589886        1.000000        0.00060036        0.05535554        0.05632430        0.02011523
      24         -0.587420        1.000000        0.00034380        0.03777146        0.05011351        0.00603687
      25         -0.586856        1.000000        0.00049146        0.04396769        0.02676490        0.02049072
      26         -0.585978        1.000000        0.00010831        0.00982817        0.00635113        0.00538613
      27         -0.584596        1.000000        0.00057045        0.10275019        0.07127698        0.04958116
      28         -0.582936        1.000000        0.00069559        0.24497391        0.04950801        0.21815750
      29         -0.582644        1.000000        0.00270562        0.39718715        0.01432648        0.01972430
      30         -0.582280        1.000000        0.00117948        0.23598732        0.01994469        0.07592185
      31         -0.580598        1.000000        0.00048655        0.09684307        0.05221892        0.03329147
      32         -0.580072        1.000000        0.00016215        0.01319221        0.00789001        0.00608281
      33         -0.577708        1.000000        0.00062501        0.04896208        0.04331275        0.01560364
      34         -0.576418        1.000000        0.00052311        0.06071367        0.03345146        0.00722037
      35         -0.575559        1.000000        0.00116331        0.08904802        0.14114877        0.01330266
      36         -0.574645        1.000000        0.00029686        0.03941340        0.11604564        0.04611193
      37         -0.572879        1.000000        0.00138250        0.14306996        0.18239178        0.00528712
      38         -0.570237        1.000000        0.00038860        0.15154355        0.01990025        0.01290232
      39         -0.569623        1.000000        0.00020883        0.23461175        0.03547592        0.01241133
      40         -0.569084        1.000000        0.00004539        0.10998797        0.02323794        0.00509720
      41         -0.568567        1.000000        0.00006695        0.07889555        0.12701590        0.00957588
      42         -0.568041        1.000000        0.00030455        0.08174462        0.24578483        0.01778098
      43         -0.567128        1.000000        0.00023886        0.03368317        0.04609736        0.01702107
      44         -0.566704        1.000000        0.00015336        0.07298792        0.06485528        0.03215532
      45         -0.565159        1.000000        0.00002857        0.00644523        0.00354063        0.00143424
      46         -0.562741        1.000000        0.00006728        0.03603393        0.00521265        0.00139297
      47         -0.562477        1.000000        0.00001165        0.00451550        0.00206985        0.00079144
      48         -0.561749        1.000000        0.00005211        0.02034233        0.00954200        0.00293080
      49         -0.561486        1.000000        0.00002711        0.02567362        0.00841110        0.00426274
      50         -0.561442        1.000000        0.00009510        0.02123152        0.02410113        0.01563345
      51         -0.560782        1.000000        0.00002260        0.00592993        0.06209294        0.00477868
      52         -0.560328        1.000000        0.00002029        0.03151423        0.00630317        0.00254754
      53         -0.559146        1.000000        0.00002273        0.00244125        0.00047118        0.00134654
      54         -0.558824        1.000000        0.00005923        0.01208486        0.00196837        0.00356750
      55         -0.554710        1.000000        0.00000940        0.00375590        0.00008358        0.00008479
      56         -0.553254        1.000000        0.00001311        0.00254682        0.00018775        0.00010014
      57         -0.552929        1.000000        0.00000551        0.00034565        0.00012516        0.00002205
      58         -0.552351        1.000000        0.00000601        0.00065693        0.00032493        0.00018231
      59         -0.550538        1.000000        0.00005591        0.26305773        0.10399255        0.06802954
      60         -0.549767        1.000000        0.00042622        0.29335382        0.00934784        0.01236161
      61         -0.547900        1.000000        0.00014462        0.07352821        0.00268159        0.01682445
      62         -0.547778        1.000000        0.00000368        0.00217751        0.00010801        0.00040520
      63         -0.543947        1.000000        0.00003016        0.16867858        0.24876335        0.03831557
      64         -0.540568        1.000000        0.00007027        0.00535160        0.18030476        0.22256233
      65         -0.501461        1.000000        0.01054488        0.01686813        0.29159696        0.10984802
      66         -0.495461        1.000000        0.00628492        0.00345372        0.04675200        0.38452007
      67         -0.484019        1.000000        0.00773905        0.01450908        0.00041402        0.41479594
      68         -0.480937        1.000000        0.00855962        0.00275042        0.01183205        0.41740211
      69         -0.477591        1.000000        0.00967044        0.00049830        0.15996115        0.27725740
      70         -0.461474        1.000000        0.00902077        0.01812157        0.21888988        0.19011983
      71         -0.460684        1.000000        0.00792276        0.00934241        0.09929169        0.32445453
      72         -0.456976        1.000000        0.00004432        0.00013218        0.00221396        0.00261364
      73         -0.453492        1.000000        0.00002778        0.00151680        0.00206083        0.00176855
      74         -0.450241        1.000000        0.00000720        0.00008287        0.00050501        0.00058298
      75         -0.448203        1.000000        0.00001183        0.00093050        0.00231702        0.00537538
      76         -0.445858        1.000000        0.00000165        0.00011044        0.00013294        0.00021895
      77         -0.445301        1.000000        0.00000248        0.00015145        0.00086600        0.00191563
      78         -0.444665        1.000000        0.00000335        0.00005795        0.00034263        0.00038453
      79         -0.441144        1.000000        0.00001445        0.00022096        0.00031197        0.00061311
      80         -0.424340        1.000000        0.00000767        0.02044861        0.00807601        0.00263752
      81         -0.423481        1.000000        0.00008568        0.02061676        0.01628672        0.00055705
      82         -0.422615        1.000000        0.00000794        0.01247483        0.00676798        0.02159081
      83         -0.420389        1.000000        0.00014396        0.02120707        0.01287260        0.00425886
      84         -0.413098        1.000000        0.00004542        0.03297454        0.00059918        0.00048178
      85         -0.412585        1.000000        0.00000347        0.00148888        0.02249893        0.01133597
      86         -0.411632        1.000000        0.00000098        0.03538393        0.00097246        0.00009594
      87         -0.411069        1.000000        0.00000038        0.01765205        0.02062029        0.00019638
      88         -0.410057        1.000000        0.00010579        0.00164299        0.03519177        0.00004397
      89         -0.408259        1.000000        0.00006277        0.02032089        0.01746695        0.00057229
      90         -0.399540        1.000000        0.00000016        0.03871922        0.00009175        0.00185875
      91         -0.398172        1.000000        0.00001787        0.04063622        0.00000485        0.00016460
      92         -0.397836        1.000000        0.00000030        0.00031280        0.03404280        0.00910468
      93         -0.396657        1.000000        0.00000071        0.00032894        0.02052636        0.02276700
      94         -0.308234        1.000000        0.00000458        0.00000134        0.00002560        0.00005002
      95         -0.300781        1.000000        0.00013619        0.00030260        0.00007719        0.00034108
      96         -0.293678        1.000000        0.00025768        0.00133693        0.00039836        0.00009008
      97         -0.272984        1.000000        0.00005944        0.00031921        0.00026733        0.00011145
      98         -0.269165        1.000000        0.00011609        0.00095688        0.00013455        0.00017608
      99         -0.264977        1.000000        0.00033063        0.00101966        0.00021369        0.00015732
     100         -0.264276        1.000000        0.00068206        0.00078513        0.00024995        0.00043047
     101         -0.261858        1.000000        0.00045592        0.00086927        0.00016755        0.00052765
     102         -0.261142        1.000000        0.00048743        0.00044342        0.00033934        0.00073379
     103         -0.259599        1.000000        0.00013878        0.00099503        0.00005671        0.00013437
     104         -0.257257        1.000000        0.00012842        0.00080382        0.00018116        0.00005566
     105         -0.256398        1.000000        0.00010576        0.00025801        0.00006113        0.00015603
     106         -0.253213        1.000000        0.00014044        0.00052894        0.00003016        0.00011683
     107         -0.252850        1.000000        0.00016991        0.00019239        0.00029485        0.00005677
     108         -0.252175        1.000000        0.00017081        0.00038130        0.00027166        0.00027745
     109         -0.248703        1.000000        0.00055985        0.00050502        0.00037906        0.00048986
     110         -0.246589        1.000000        0.00056009        0.00086088        0.00023000        0.00034599
     111         -0.244037        1.000000        0.00146849        0.00029387        0.00059000        0.00073070
     112         -0.242090        1.000000        0.00082023        0.00085794        0.00110687        0.00022011
     113         -0.240160        1.000000        0.00128536        0.00032416        0.00093380        0.00027184
     114         -0.238506        1.000000        0.00013960        0.00007267        0.00012340        0.00006606
     115         -0.237819        1.000000        0.00040820        0.00065957        0.00040110        0.00046627
     116         -0.237483        1.000000        0.00040909        0.00077430        0.00046234        0.00015990
     117         -0.236262        1.000000        0.00078545        0.00009085        0.00110210        0.00023328
     118         -0.234982        1.000000        0.00048406        0.00179241        0.00002979        0.00024780
     119         -0.233871        1.000000        0.00144605        0.00125138        0.00091074        0.00182525
     120         -0.232284        1.000000        0.00139049        0.00078424        0.00190707        0.00045057
     121         -0.230458        1.000000        0.00080846        0.00191254        0.00075262        0.00060996
     122         -0.228950        1.000000        0.00026599        0.00043844        0.00028768        0.00016572
     123         -0.226920        1.000000        0.00158112        0.00165744        0.00170011        0.00110322
     124         -0.226476        1.000000        0.00031359        0.00154367        0.00046174        0.00025862
     125         -0.223699        1.000000        0.00067963        0.00119700        0.00055513        0.00066949
     126         -0.222375        1.000000        0.00187735        0.00110722        0.00144705        0.00048003
     127         -0.220923        1.000000        0.00121189        0.00062922        0.00259522        0.00057385
     128         -0.219375        1.000000        0.00045072        0.00252652        0.00131600        0.00158419
     129         -0.217145        1.000000        0.00206518        0.00349042        0.00227870        0.00179120
     130         -0.216159        1.000000        0.00073619        0.00258915        0.00098477        0.00063200
     131         -0.214007        1.000000        0.00062175        0.00046040        0.00114463        0.00034243
     132         -0.212321        1.000000        0.00067651        0.00096258        0.00112116        0.00034528
     133         -0.211805        1.000000        0.00068085        0.00526914        0.00112758        0.00029191
     134         -0.211347        1.000000        0.00089161        0.00072643        0.00098471        0.00052549
     135         -0.210605        1.000000        0.00059355        0.00103027        0.00144929        0.00022985
     136         -0.209369        1.000000        0.00047819        0.00401655        0.00037030        0.00040296
     137         -0.208243        1.000000        0.00023909        0.00166918        0.00065411        0.00072883
     138         -0.207679        1.000000        0.00014296        0.00062650        0.00010793        0.00010793
     139         -0.207227        1.000000        0.00027126        0.00156496        0.00080807        0.00008702
     140         -0.205547        1.000000        0.00013476        0.00105054        0.00161681        0.00022182
     141         -0.205101        1.000000        0.00004840        0.00081295        0.00027223        0.00017207
     142         -0.204601        1.000000        0.00009835        0.00052935        0.00009622        0.00003001
     143         -0.203603        1.000000        0.00014603        0.00041952        0.00012830        0.00003755
     144         -0.202811        1.000000        0.00018066        0.00056156        0.00022521        0.00003476
     145         -0.201065        1.000000        0.00034177        0.00154198        0.00024891        0.00023535
     146         -0.200685        1.000000        0.00012179        0.00010264        0.00047244        0.00010685
     147         -0.199606        1.000000        0.00072768        0.00197166        0.00035011        0.00051108
     148         -0.198311        1.000000        0.00041701        0.00023788        0.00155964        0.00020235
     149         -0.197081        1.000000        0.00043344        0.00018287        0.00057175        0.00018356
     150         -0.196660        1.000000        0.00006121        0.00014638        0.00128810        0.00060206
     151         -0.194964        1.000000        0.00012439        0.00088697        0.00014686        0.00022815
     152         -0.194309        1.000000        0.00025258        0.00023936        0.00085168        0.00018307
     153         -0.193320        1.000000        0.00048181        0.00063766        0.00030600        0.00105063
     154         -0.192991        1.000000        0.00009396        0.00016711        0.00029463        0.00036241
     155         -0.192281        1.000000        0.00036157        0.00037447        0.00067370        0.00105991
     156         -0.191928        1.000000        0.00020561        0.00019718        0.00066020        0.00036457
     157         -0.191065        1.000000        0.00065813        0.00091681        0.00109827        0.00293401
     158         -0.190682        1.000000        0.00008650        0.00005179        0.00033830        0.00028960
     159         -0.190390        1.000000        0.00019643        0.00036472        0.00086440        0.00127561
     160         -0.190057        1.000000        0.00012695        0.00007238        0.00035298        0.00027742
     161         -0.188855        1.000000        0.00014392        0.00015849        0.00007798        0.00006170
     162         -0.188692        1.000000        0.00010641        0.00020886        0.00017116        0.00018525
     163         -0.188556        1.000000        0.00004929        0.00008468        0.00031948        0.00006766
     164         -0.188016        1.000000        0.00007558        0.00016796        0.00015144        0.00022687
     165         -0.187688        1.000000        0.00007580        0.00008686        0.00041243        0.00007471
     166         -0.186948        1.000000        0.00013535        0.00010039        0.00032220        0.00034485
     167         -0.186640        1.000000        0.00021265        0.00034375        0.00028827        0.00040703
     168         -0.186318        1.000000        0.00019411        0.00013717        0.00043234        0.00002341
     169         -0.185766        1.000000        0.00004699        0.00005594        0.00006125        0.00004170
     170         -0.185430        1.000000        0.00005350        0.00006930        0.00012706        0.00010215
     171         -0.184880        1.000000        0.00007122        0.00006124        0.00013271        0.00002388
     172         -0.183864        1.000000        0.00004859        0.00020920        0.00022051        0.00024584
     173         -0.183227        1.000000        0.00006101        0.00012096        0.00019819        0.00009202
     174         -0.182323        1.000000        0.00020588        0.00014168        0.00027055        0.00064073
     175         -0.181915        1.000000        0.00005204        0.00002267        0.00011288        0.00006235
     176         -0.181471        1.000000        0.00002283        0.00003845        0.00018389        0.00009094
     177         -0.180838        1.000000        0.00003655        0.00007564        0.00005281        0.00006054
     178         -0.180405        1.000000        0.00003315        0.00003346        0.00002886        0.00001851
     179         -0.179804        1.000000        0.00003235        0.00002487        0.00018236        0.00006618
     180         -0.179565        1.000000        0.00003042        0.00001885        0.00005433        0.00008539
     181         -0.179186        1.000000        0.00001955        0.00004270        0.00004448        0.00005340
     182         -0.179015        1.000000        0.00006010        0.00022798        0.00009435        0.00004895
     183         -0.178319        1.000000        0.00005499        0.00017064        0.00004612        0.00000637
     184         -0.178109        1.000000        0.00009294        0.00006559        0.00025760        0.00001241
     185         -0.177627        1.000000        0.00004635        0.00002787        0.00006383        0.00003636
     186         -0.177513        1.000000        0.00004568        0.00002892        0.00012612        0.00016391
     187         -0.177342        1.000000        0.00003039        0.00002542        0.00010528        0.00013763
     188         -0.176702        1.000000        0.00001366        0.00004613        0.00003673        0.00004698
     189         -0.176331        1.000000        0.00004748        0.00003839        0.00002146        0.00005468
     190         -0.176227        1.000000        0.00002785        0.00001206        0.00005920        0.00002993
     191         -0.176169        1.000000        0.00002156        0.00004659        0.00003254        0.00006715
     192         -0.175613        1.000000        0.00002904        0.00004027        0.00005371        0.00003988
     193         -0.175353        1.000000        0.00002101        0.00000990        0.00004222        0.00001925
     194         -0.175330        1.000000        0.00004686        0.00004227        0.00004806        0.00008584
     195         -0.175308        0.000000        0.00000268        0.00001492        0.00002413        0.00001111
     196         -0.174953        0.000000        0.00001801        0.00007769        0.00005491        0.00003563
     197         -0.174434        0.000000        0.00003067        0.00001766        0.00003536        0.00003459
     198         -0.174173        0.000000        0.00002467        0.00002355        0.00003376        0.00003093
     199         -0.173933        0.000000        0.00002962        0.00006226        0.00002679        0.00002487
     200         -0.172705        0.000000        0.00001312        0.00001753        0.00001674        0.00001094
     201         -0.170466        0.000000        0.00001317        0.00002344        0.00001528        0.00000414
     202         -0.065818        0.000000        0.00016469        0.00026305        0.00002575        0.00003309
     203         -0.061048        0.000000        0.00013895        0.00014316        0.00012705        0.00018410
     204         -0.058898        0.000000        0.00002846        0.00024005        0.00003219        0.00003686
     205         -0.057250        0.000000        0.00006610        0.00018998        0.00005143        0.00002309
     206         -0.055887        0.000000        0.00051151        0.00018797        0.00039428        0.00028669
     207         -0.052880        0.000000        0.00003206        0.00042205        0.00009111        0.00001936
     208         -0.046609        0.000000        0.00006580        0.00008037        0.00004337        0.00002765
     209         -0.045069        0.000000        0.00008587        0.00006464        0.00001289        0.00003321
     210         -0.042918        0.000000        0.00021340        0.00000802        0.00001810        0.00005662
     211         -0.041024        0.000000        0.00005903        0.00005714        0.00001565        0.00003711
     212         -0.038543        0.000000        0.00003300        0.00005325        0.00003822        0.00001685
     213         -0.036404        0.000000        0.00002850        0.00003623        0.00003909        0.00000774
     214         -0.035349        0.000000        0.00001383        0.00005756        0.00000470        0.00002522
     215         -0.031780        0.000000        0.00004107        0.00020677        0.00007734        0.00001220
     216         -0.030262        0.000000        0.00005627        0.00005795        0.00004464        0.00000166
     217         -0.027506        0.000000        0.00002609        0.00001573        0.00001509        0.00000636
     218         -0.026640        0.000000        0.00009190        0.00009477        0.00001403        0.00003961
     219         -0.025229        0.000000        0.00008351        0.00003221        0.00007499        0.00001057
     220         -0.022191        0.000000        0.00003277        0.00001860        0.00003566        0.00001761
     221         -0.021505        0.000000        0.00005820        0.00003471        0.00003727        0.00000381
     222         -0.011862        0.000000        0.00006014        0.00001555        0.00004152        0.00000593
     223         -0.010747        0.000000        0.00005598        0.00035806        0.00009176        0.00004861
     224         -0.010148        0.000000        0.00004836        0.00006917        0.00001436        0.00002149
     225         -0.005273        0.000000        0.00003670        0.00002481        0.00007169        0.00002193
     226          0.079600        0.000000        0.12839134        0.00394013        0.16170098        0.06012829
     227          0.083709        0.000000        0.12550936        0.02237762        0.02657252        0.18024932
     228          0.086471        0.000000        0.10287407        0.00098266        0.09014591        0.16342407
     229          0.090474        0.000000        0.11886840        0.00080503        0.00305258        0.23150608
     230          0.092418        0.000000        0.12002076        0.00571492        0.01805377        0.21493199
     231          0.107052        0.000000        0.10035813        0.00708389        0.05396198        0.20518978
     232          0.109592        0.000000        0.10563568        0.01232275        0.13892313        0.10929986
     233          0.131515        0.000000        0.04295009        0.18173698        0.00748786        0.09747295
     234          0.149515        0.000000        0.04543371        0.13305782        0.12044425        0.03419377
     235          0.180594        0.000000        0.01791949        0.18009895        0.05321500        0.08082857
     236          0.203142        0.000000        0.03840442        0.05856588        0.14103614        0.09996175
     237          0.238545        0.000000        0.06532274        0.07244225        0.00458972        0.19608336
     238          0.269291        0.000000        0.00003213        0.00127589        0.29223138        0.03625036
     239          0.273775        0.000000        0.00052434        0.30793973        0.00649943        0.00911598
     240          0.281833        0.000000        0.00048629        0.17356073        0.14581485        0.00754771
     241          0.282475        0.000000        0.00024145        0.02050722        0.20126965        0.10300553
     242          0.284959        0.000000        0.00182568        0.23392736        0.07641422        0.00565062
     243          0.288105        0.000000        0.13569596        0.07694593        0.12233877        0.00124424
     244          0.293953        0.000000        0.17568110        0.12765273        0.00811457        0.03419663
     245          0.300542        0.000000        0.00438732        0.02430413        0.10434953        0.17724899
     246          0.304491        0.000000        0.00115408        0.06596451        0.21668043        0.02882993
     247          0.306594        0.000000        0.00784763        0.26055530        0.04614795        0.00608625
     248          0.308967        0.000000        0.16689595        0.03972365        0.05711262        0.07889435
     249          0.310131        0.000000        0.00126336        0.23481125        0.03909049        0.04086786
     250          0.317975        0.000000        0.24426401        0.00217938        0.03488402        0.06839749
     251          0.324199        0.000000        0.18652355        0.01612902        0.08855547        0.04586675
     252          0.349150        0.000000        0.24487546        0.00519630        0.01566246        0.07788062
     253          0.352051        0.000000        0.24042037        0.00641718        0.05566830        0.04364085
     254          0.440488        0.000000        0.00015587        0.01873444        0.00209756        0.00000039
     255          0.441900        0.000000        0.00000290        0.00002201        0.00547675        0.01360395
     256          0.445113        0.000000        0.00040901        0.00840939        0.00901775        0.00103156
     257          0.446999        0.000000        0.00024171        0.00748123        0.01057948        0.00144360
     258          0.450481        0.000000        0.00067987        0.00117954        0.02050231        0.00008831
     259          0.451506        0.000000        0.00001225        0.01495094        0.00755729        0.00059203