# Projected DOS for atomic kind Pb at iteration step i = 0, E(Fermi) =    -0.175828 a.u.
#     MO Eigenvalue [a.u.]      Occupation                 s                py                pz                px
       1         -0.977121        1.000000        0.00000001        0.00000028        0.00000034        0.00000039
       2         -0.974076        1.000000        0.00000015        0.00000420        0.00000352        0.00000124
       3         -0.965082        1.000000        0.00000006        0.00000071        0.00000104        0.00000059
       4         -0.956286        1.000000        0.00000010        0.00000161        0.00000134        0.00000078
       5         -0.954375        1.000000        0.00000009        0.00000354        0.00000190        0.00000067
       6         -0.932555        1.000000        0.00000115        0.00001116        0.00000988        0.00001642
       7         -0.931891        1.000000        0.00000023        0.00000137        0.00000320        0.00000191
       8         -0.714704        1.000000        0.00000246        0.00000647        0.00000284        0.00000702
       9         -0.710246        1.000000        0.00003299        0.00007474        0.00008127        0.00001821
      10         -0.699866        1.000000        0.00002349        0.00002827        0.00003880        0.00001756
      11         -0.696672        1.000000        0.00000868        0.00001239        0.00000627        0.00000358
      12         -0.696504        1.000000        0.00001036        0.00001316        0.00001882        0.00000754
      13         -0.681838        1.000000        0.00003802        0.00003723        0.00002345        0.00003587
      14         -0.681012        1.000000        0.00001481        0.00000734        0.00001698        0.00000872
      15         -0.630979        1.000000        0.00098730        0.00000265        0.00046494        0.00150831
      16         -0.624069        1.000000        0.00631638        0.00027535        0.00872740        0.00005707
      17         -0.616768        1.000000        0.00480043        0.00022886        0.00122561        0.00483301
      18         -0.605171        1.000000        0.00067300        0.00002613        0.00013278        0.00035374
      19         -0.602576        1.000000        0.00039631        0.00012203        0.00001052        0.00008900
      20         -0.595900        1.000000        0.00215747        0.00011062        0.00027766        0.00047749
      21         -0.591883        1.000000        0.05022763        0.00389372        0.00802531        0.00201643
      22         -0.591048        1.000000        0.04763964        0.00123962        0.01584710        0.00068066
      23         -0.590207        1.000000        0.05300112        0.00784225        0.00739486        0.00155456
      24         -0.587640        1.000000        0.08954696        0.00587695        0.00158327        0.00225287
      25         -0.587095        1.000000        0.06043717        0.00224305        0.00274984        0.00705599
      26         -0.586128        1.000000        0.00407827        0.00066216        0.00183427        0.00196015
      27         -0.585014        1.000000        0.04503859        0.00568886        0.00300125        0.00197532
      28         -0.584420        1.000000        0.03650835        0.00206530        0.00954824        0.00282628
      29         -0.583102        1.000000        0.00300877        0.00021115        0.00092331        0.00012856
      30         -0.582716        1.000000        0.00220720        0.00057848        0.00107846        0.00022750
      31         -0.581291        1.000000        0.00738722        0.00010893        0.00275465        0.00217027
      32         -0.580841        1.000000        0.00298753        0.00144796        0.00185807        0.00014867
      33         -0.578238        1.000000        0.04904111        0.00353474        0.00614415        0.00631424
      34         -0.577304        1.000000        0.02756869        0.00093849        0.00907737        0.00945004
      35         -0.575888        1.000000        0.02606741        0.00104068        0.00738926        0.00967940
      36         -0.575399        1.000000        0.03562331        0.01133482        0.00094809        0.00219024
      37         -0.573143        1.000000        0.01047719        0.00050018        0.00489027        0.01068143
      38         -0.570766        1.000000        0.01684623        0.01442983        0.00355358        0.00504110
      39         -0.570103        1.000000        0.04414486        0.00303611        0.00159825        0.00350091
      40         -0.569696        1.000000        0.04936504        0.00678021        0.00298736        0.00687955
      41         -0.568961        1.000000        0.02715820        0.00885784        0.01186931        0.00367340
      42         -0.568415        1.000000        0.03805493        0.00241740        0.00309405        0.00383707
      43         -0.567407        1.000000        0.01334511        0.00193303        0.01124412        0.00706098
      44         -0.567017        1.000000        0.01009238        0.00481024        0.01005190        0.00724413
      45         -0.566104        1.000000        0.02948429        0.00393539        0.00789254        0.02003066
      46         -0.564141        1.000000        0.04448764        0.00255838        0.00546749        0.01986345
      47         -0.562838        1.000000        0.03289875        0.00116305        0.00149795        0.02557121
      48         -0.562533        1.000000        0.00787012        0.02231833        0.00233525        0.01179792
      49         -0.562162        1.000000        0.00855921        0.01178513        0.00358329        0.01673371
      50         -0.561186        1.000000        0.01603042        0.01246827        0.00664395        0.00459735
      51         -0.561090        1.000000        0.01802031        0.01131534        0.00837569        0.00842737
      52         -0.560867        1.000000        0.00952838        0.00382815        0.01196401        0.00114136
      53         -0.559532        1.000000        0.00406558        0.00024899        0.00138495        0.01800906
      54         -0.558840        1.000000        0.02023033        0.02880428        0.00241862        0.00130602
      55         -0.556062        1.000000        0.00255126        0.01861021        0.00684199        0.00003679
      56         -0.554409        1.000000        0.00315300        0.02254326        0.00065868        0.00713017
      57         -0.553642        1.000000        0.00055669        0.00170353        0.01427017        0.01545062
      58         -0.553317        1.000000        0.00563197        0.02711962        0.00516727        0.00087513
      59         -0.550709        1.000000        0.00306889        0.00291146        0.00195233        0.00349230
      60         -0.550557        1.000000        0.00632315        0.00842241        0.00269282        0.00206733
      61         -0.548968        1.000000        0.00092116        0.00477839        0.00172397        0.00209671
      62         -0.548807        1.000000        0.00023217        0.00015214        0.00366811        0.00016333
      63         -0.544137        1.000000        0.00493681        0.00089404        0.00510130        0.00108645
      64         -0.540792        1.000000        0.00393016        0.00032653        0.00527315        0.00204739
      65         -0.501676        1.000000        0.00022947        0.00002651        0.00000146        0.00001646
      66         -0.495648        1.000000        0.00033309        0.00007637        0.00006115        0.00002071
      67         -0.484189        1.000000        0.00028008        0.00001466        0.00002333        0.00002696
      68         -0.481147        1.000000        0.00060094        0.00001474        0.00001886        0.00000595
      69         -0.477766        1.000000        0.00171320        0.00004759        0.00004432        0.00001284
      70         -0.461665        1.000000        0.01561322        0.00002568        0.00001236        0.00014160
      71         -0.460858        1.000000        0.01816696        0.00002111        0.00011488        0.00002148
      72         -0.457272        1.000000        0.68734731        0.00150683        0.00142048        0.00088669
      73         -0.453636        1.000000        0.74066648        0.00163480        0.00033858        0.00087288
      74         -0.450670        1.000000        0.75494062        0.00113679        0.00106427        0.00156243
      75         -0.448410        1.000000        0.73914483        0.00019006        0.00060513        0.00073477
      76         -0.446196        1.000000        0.76234369        0.00083058        0.00053531        0.00055394
      77         -0.445652        1.000000        0.75567990        0.00032907        0.00042638        0.00053196
      78         -0.445066        1.000000        0.75966215        0.00019921        0.00073077        0.00042986
      79         -0.441475        1.000000        0.77295940        0.00006906        0.00010502        0.00017356
      80         -0.424556        1.000000        0.00073151        0.00002250        0.00000802        0.00002156
      81         -0.423678        1.000000        0.00852473        0.00036348        0.00045340        0.00004107
      82         -0.422838        1.000000        0.00045968        0.00005438        0.00001148        0.00010224
      83         -0.420574        1.000000        0.00138569        0.00023571        0.00018494        0.00004958
      84         -0.413265        1.000000        0.00024465        0.00010646        0.00005290        0.00009857
      85         -0.412757        1.000000        0.00107664        0.00008364        0.00004965        0.00000831
      86         -0.411811        1.000000        0.00056226        0.00004829        0.00006846        0.00002268
      87         -0.411293        1.000000        0.00014992        0.00002001        0.00002675        0.00000736
      88         -0.410233        1.000000        0.00065178        0.00007476        0.00020108        0.00010795
      89         -0.408484        1.000000        0.00012261        0.00000950        0.00002732        0.00000236
      90         -0.399726        1.000000        0.00049911        0.00001392        0.00002050        0.00010023
      91         -0.398342        1.000000        0.00074196        0.00000964        0.00016075        0.00001935
      92         -0.398003        1.000000        0.00054856        0.00001379        0.00010913        0.00004725
      93         -0.396863        1.000000        0.00032372        0.00001313        0.00003058        0.00012479
      94         -0.308401        1.000000        0.00002795        0.00016468        0.00049274        0.00059220
      95         -0.300988        1.000000        0.00522332        0.00415268        0.03375536        0.00117757
      96         -0.295563        1.000000        0.00233467        0.00168028        0.00490313        0.03111491
      97         -0.273354        1.000000        0.00344607        0.02845319        0.09518885        0.10420565
      98         -0.269403        1.000000        0.00365642        0.16300185        0.07931119        0.00758966
      99         -0.265779        1.000000        0.00831267        0.09007992        0.03941976        0.12106103
     100         -0.264649        1.000000        0.00226656        0.01539544        0.07104815        0.11032845
     101         -0.262319        1.000000        0.00187907        0.08206193        0.05618679        0.08159393
     102         -0.261483        1.000000        0.00498718        0.06605532        0.10619170        0.05540848
     103         -0.260523        1.000000        0.00387266        0.07643207        0.07279069        0.07237338
     104         -0.257648        1.000000        0.00082591        0.05457094        0.07049031        0.12480441
     105         -0.256624        1.000000        0.00248988        0.13997941        0.06547518        0.05469614
     106         -0.254718        1.000000        0.00268300        0.05713434        0.09488493        0.06096617
     107         -0.253439        1.000000        0.00346880        0.14238519        0.08371382        0.01777025
     108         -0.252760        1.000000        0.00022159        0.04436157        0.04231010        0.09970926
     109         -0.249092        1.000000        0.00221703        0.05200855        0.08725530        0.03659762
     110         -0.246851        1.000000        0.00037895        0.01579368        0.07874993        0.07587614
     111         -0.244371        1.000000        0.00080162        0.04183310        0.03396481        0.09809342
     112         -0.242607        1.000000        0.00138205        0.02903070        0.08946764        0.06215348
     113         -0.240387        1.000000        0.00147189        0.02669312        0.02524128        0.02782876
     114         -0.238783        1.000000        0.00176763        0.06125892        0.03692130        0.03092138
     115         -0.238221        1.000000        0.00101289        0.06999542        0.07103503        0.03333100
     116         -0.237971        1.000000        0.00181290        0.06692508        0.05946774        0.07179571
     117         -0.236505        1.000000        0.00387973        0.04564084        0.06065068        0.07047277
     118         -0.235614        1.000000        0.00136537        0.12211360        0.02254118        0.06749721
     119         -0.234433        1.000000        0.00707648        0.10550967        0.01912606        0.04223495
     120         -0.232637        1.000000        0.00392501        0.02085042        0.07455054        0.02784580
     121         -0.231089        1.000000        0.00805434        0.10862722        0.01583443        0.03200562
     122         -0.229646        1.000000        0.00404090        0.10449931        0.05721779        0.02273202
     123         -0.227140        1.000000        0.00917787        0.02540272        0.02855155        0.07813588
     124         -0.227080        1.000000        0.00926553        0.04259312        0.04379708        0.06098007
     125         -0.223773        1.000000        0.00193369        0.00437773        0.01150402        0.03007570
     126         -0.223267        1.000000        0.00388008        0.01413206        0.01723174        0.03202806
     127         -0.221421        1.000000        0.00546382        0.01039215        0.03459699        0.03226602
     128         -0.219864        1.000000        0.00181633        0.01987165        0.01934883        0.00635991
     129         -0.217546        1.000000        0.00155821        0.00931099        0.01371371        0.01573050
     130         -0.217116        1.000000        0.00329920        0.00253659        0.00865918        0.01171975
     131         -0.214727        1.000000        0.00780383        0.00191372        0.01634316        0.03386931
     132         -0.212670        1.000000        0.00747269        0.00831900        0.00970310        0.02143566
     133         -0.212248        1.000000        0.00579374        0.00847191        0.01137768        0.00739911
     134         -0.211613        1.000000        0.00303875        0.00605336        0.00842481        0.00564991
     135         -0.210981        1.000000        0.00438694        0.00611700        0.01776474        0.00546629
     136         -0.209821        1.000000        0.00452440        0.00738193        0.00847353        0.00463869
     137         -0.208710        1.000000        0.00106483        0.00265527        0.00420155        0.00077162
     138         -0.208130        1.000000        0.00413002        0.00978135        0.00412049        0.00556075
     139         -0.207684        1.000000        0.00107870        0.00360243        0.00411129        0.00247651
     140         -0.206114        1.000000        0.00506161        0.00734328        0.01078572        0.00699450
     141         -0.205299        1.000000        0.00240819        0.00284282        0.00718695        0.00047256
     142         -0.204793        1.000000        0.00231983        0.00223746        0.00353034        0.00145379
     143         -0.203991        1.000000        0.00206138        0.00395007        0.00348398        0.00268415
     144         -0.203209        1.000000        0.00557074        0.00638371        0.00328936        0.00411940
     145         -0.201605        1.000000        0.00760359        0.00565161        0.00751497        0.00375734
     146         -0.201050        1.000000        0.00484567        0.00366522        0.00639950        0.00261478
     147         -0.199838        1.000000        0.01692185        0.01726427        0.00729699        0.00634940
     148         -0.198559        1.000000        0.00622307        0.00316899        0.00458125        0.00332064
     149         -0.197645        1.000000        0.00658569        0.00295246        0.01090442        0.00300568
     150         -0.196499        1.000000        0.00734752        0.00596655        0.01013635        0.00299793
     151         -0.195352        1.000000        0.01314424        0.00723843        0.00801791        0.00688540
     152         -0.194963        1.000000        0.00728697        0.00217814        0.00344804        0.00358731
     153         -0.193904        1.000000        0.00730963        0.00428305        0.00723989        0.00513762
     154         -0.193505        1.000000        0.01485533        0.00540469        0.00634009        0.00604726
     155         -0.192667        1.000000        0.01049746        0.00271820        0.00361532        0.00359753
     156         -0.192341        1.000000        0.01459716        0.00238026        0.00511280        0.00447023
     157         -0.191817        1.000000        0.00705459        0.00126406        0.00083144        0.00278762
     158         -0.191047        1.000000        0.00198471        0.00045365        0.00154036        0.00083730
     159         -0.190852        1.000000        0.00077480        0.00020502        0.00059238        0.00061832
     160         -0.190357        1.000000        0.00061407        0.00053311        0.00066420        0.00087506
     161         -0.189872        1.000000        0.00171429        0.00109692        0.00074847        0.00043750
     162         -0.189500        1.000000        0.00590538        0.00272987        0.00153175        0.00198863
     163         -0.189011        1.000000        0.00340380        0.00254072        0.00798415        0.00280726
     164         -0.188623        1.000000        0.00396698        0.00198498        0.00214112        0.00228889
     165         -0.188248        1.000000        0.00638216        0.00175180        0.00210052        0.00132084
     166         -0.187735        1.000000        0.00371739        0.00144951        0.00202642        0.00112808
     167         -0.186981        1.000000        0.00901206        0.00359967        0.00530742        0.00133228
     168         -0.186510        1.000000        0.00122251        0.00194179        0.00101679        0.00120548
     169         -0.186057        1.000000        0.00250981        0.00039838        0.00084212        0.00121052
     170         -0.185975        1.000000        0.00246798        0.00177357        0.00053909        0.00088357
     171         -0.185285        1.000000        0.00539650        0.00100671        0.00175354        0.00222145
     172         -0.184526        1.000000        0.01411179        0.00241231        0.00260003        0.00404161
     173         -0.184273        1.000000        0.00280532        0.00016579        0.00134683        0.00021975
     174         -0.183052        1.000000        0.02512348        0.00364358        0.00365092        0.00741101
     175         -0.182615        1.000000        0.01435242        0.00077721        0.00399563        0.00239465
     176         -0.181676        1.000000        0.00064609        0.00032049        0.00090322        0.00017002
     177         -0.181576        1.000000        0.02379855        0.00110972        0.00565250        0.00477452
     178         -0.180854        1.000000        0.01246452        0.00178463        0.00099007        0.00259306
     179         -0.180762        1.000000        0.01951663        0.00160885        0.00237608        0.00471276
     180         -0.180092        1.000000        0.01632938        0.00147491        0.00181282        0.00105818
     181         -0.179880        1.000000        0.00731776        0.00048789        0.00166649        0.00071328
     182         -0.179642        1.000000        0.00773149        0.00071938        0.00032764        0.00147036
     183         -0.179356        1.000000        0.00903748        0.00146718        0.00127886        0.00168618
     184         -0.178613        1.000000        0.00985717        0.00083253        0.00222119        0.00248050
     185         -0.178321        1.000000        0.03652959        0.00316932        0.00376180        0.00460133
     186         -0.178002        1.000000        0.01424676        0.00119262        0.00163378        0.00164623
     187         -0.177816        1.000000        0.00255542        0.00014081        0.00077285        0.00072175
     188         -0.177681        1.000000        0.01876238        0.00145872        0.00188352        0.00318445
     189         -0.177243        1.000000        0.02634610        0.00218169        0.00319137        0.00146890
     190         -0.176859        1.000000        0.00413340        0.00026458        0.00040534        0.00031305
     191         -0.176770        1.000000        0.00388164        0.00031685        0.00023931        0.00049477
     192         -0.176562        1.000000        0.00392038        0.00027232        0.00042376        0.00012270
     193         -0.176399        1.000000        0.00963906        0.00025195        0.00097730        0.00069665
     194         -0.175979        1.000000        0.01225173        0.00021122        0.00094195        0.00168028
     195         -0.175828        1.000000        0.01298827        0.00033119        0.00078395        0.00134334
     196         -0.175747        0.000000        0.01436129        0.00055366        0.00095355        0.00186274
     197         -0.175596        0.000000        0.01251661        0.00097754        0.00161945        0.00130176
     198         -0.174759        0.000000        0.01768547        0.00011797        0.00013747        0.00110578
     199         -0.174597        0.000000        0.02503564        0.00019503        0.00053710        0.00093777
     200         -0.173998        0.000000        0.05222811        0.00037146        0.00120979        0.00148097
     201         -0.171771        0.000000        0.12461567        0.00120688        0.00831631        0.00030944
     202         -0.066111        0.000000        0.00975056        0.22490355        0.42117561        0.08632444
     203         -0.061283        0.000000        0.00746733        0.02269014        0.09311809        0.61114466
     204         -0.059245        0.000000        0.00772981        0.28976211        0.30224445        0.12552680
     205         -0.057491        0.000000        0.00396459        0.16265686        0.42575163        0.13106549
     206         -0.056074        0.000000        0.00857540        0.14897944        0.55223603        0.00729477
     207         -0.053115        0.000000        0.00461195        0.06704503        0.59420681        0.05068473
     208         -0.046884        0.000000        0.00479888        0.17540033        0.36879068        0.16196481
     209         -0.045496        0.000000        0.00495457        0.41641275        0.09399788        0.19855222
     210         -0.043190        0.000000        0.00712302        0.35722978        0.24267884        0.09497849
     211         -0.041443        0.000000        0.00162788        0.27854995        0.03861836        0.38370913
     212         -0.038830        0.000000        0.00199220        0.39660150        0.12918656        0.17469113
     213         -0.036666        0.000000        0.00426290        0.23786666        0.16726643        0.28876414
     214         -0.035663        0.000000        0.00175617        0.10202324        0.10362444        0.49036924
     215         -0.032041        0.000000        0.00271942        0.11082414        0.39460748        0.18503240
     216         -0.030481        0.000000        0.00100090        0.05533430        0.30343793        0.33365521
     217         -0.027964        0.000000        0.00071413        0.08886756        0.10523624        0.50062032
     218         -0.027007        0.000000        0.00151466        0.13736690        0.43957248        0.12027208
     219         -0.025486        0.000000        0.00221419        0.03910017        0.28656059        0.36552539
     220         -0.022585        0.000000        0.00033189        0.27043229        0.20002244        0.21937307
     221         -0.021889        0.000000        0.00144802        0.21743939        0.04343517        0.43036318
     222         -0.012117        0.000000        0.00036335        0.22478443        0.13217578        0.32714651
     223         -0.010793        0.000000        0.00017299        0.62357400        0.02812304        0.01779156
     224         -0.010750        0.000000        0.00069735        0.41449973        0.11371759        0.16069788
     225         -0.005552        0.000000        0.00038577        0.49162773        0.06573696        0.11433776
     226          0.079401        0.000000        0.00000198        0.00015108        0.00001822        0.00003385
     227          0.083528        0.000000        0.00000075        0.00027203        0.00018817        0.00014596
     228          0.086314        0.000000        0.00000482        0.00016986        0.00006060        0.00002652
     229          0.090321        0.000000        0.00000116        0.00005416        0.00005755        0.00003557
     230          0.092227        0.000000        0.00000143        0.00001773        0.00004545        0.00000220
     231          0.106895        0.000000        0.00000794        0.00001374        0.00013592        0.00001126
     232          0.109410        0.000000        0.00000306        0.00007468        0.00004702        0.00011713
     233          0.131303        0.000000        0.00000076        0.00008523        0.00014888        0.00013674
     234          0.149306        0.000000        0.00000118        0.00000798        0.00000201        0.00002910
     235          0.180346        0.000000        0.00000016        0.00000969        0.00000064        0.00000608
     236          0.202905        0.000000        0.00000120        0.00000072        0.00000131        0.00000025
     237          0.238302        0.000000        0.00000030        0.00000668        0.00000835        0.00000382
     238          0.269088        0.000000        0.00000406        0.00002238        0.00001044        0.00004543
     239          0.273602        0.000000        0.00000260        0.00008235        0.00012117        0.00000450
     240          0.281643        0.000000        0.00000113        0.00001858        0.00002909        0.00003464
     241          0.282270        0.000000        0.00000387        0.00005862        0.00002984        0.00001319
     242          0.284778        0.000000        0.00000308        0.00006513        0.00006899        0.00000317
     243          0.287949        0.000000        0.00000323        0.00000241        0.00003144        0.00008419
     244          0.293742        0.000000        0.00000459        0.00001682        0.00000716        0.00008244
     245          0.300337        0.000000        0.00001075        0.00006084        0.00005756        0.00010097
     246          0.304308        0.000000        0.00003614        0.00008650        0.00028736        0.00006750
     247          0.306430        0.000000        0.00000266        0.00001549        0.00002096        0.00002385
     248          0.308776        0.000000        0.00000102        0.00002481        0.00004829        0.00003314
     249          0.309933        0.000000        0.00002212        0.00003238        0.00024742        0.00005785
     250          0.317782        0.000000        0.00000846        0.00008870        0.00006040        0.00000832
     251          0.323989        0.000000        0.00000216        0.00005880        0.00001227        0.00000669
     252          0.348953        0.000000        0.00003659        0.00004671        0.00033270        0.00007251
     253          0.351867        0.000000        0.00000504        0.00002625        0.00002875        0.00007939
     254          0.440301        0.000000        0.00000024        0.00001978        0.00001346        0.00006088
     255          0.441705        0.000000        0.00000017        0.00000099        0.00000399        0.00000435
     256          0.444965        0.000000        0.00000081        0.00008002        0.00007233        0.00004508
     257          0.446826        0.000000        0.00000196        0.00030045        0.00025211        0.00002776
     258          0.450285        0.000000        0.00000016        0.00000395        0.00000280        0.00000299
     259          0.451355        0.000000        0.00000007        0.00004522        0.00002567        0.00001841