# Projected DOS for atomic kind C at iteration step i = 0, E(Fermi) =    -0.175330 a.u.
#     MO Eigenvalue [a.u.]      Occupation                 s                py                pz                px
       1         -0.976908        1.000000        0.05968316        0.00185946        0.02943209        0.01425163
       2         -0.973884        1.000000        0.06292912        0.00125212        0.00543638        0.04049168
       3         -0.964903        1.000000        0.06038922        0.00091842        0.00000635        0.04513564
       4         -0.956105        1.000000        0.05724312        0.00010023        0.01502172        0.02773898
       5         -0.954159        1.000000        0.06214109        0.00035834        0.00090840        0.04427804
       6         -0.932365        1.000000        0.06262824        0.00193104        0.02289016        0.01932970
       7         -0.931716        1.000000        0.06290772        0.00101700        0.00943626        0.03368907
       8         -0.714480        1.000000        0.43120053        0.00000003        0.00013642        0.00019801
       9         -0.710048        1.000000        0.42950368        0.00032489        0.00001024        0.00077386
      10         -0.699686        1.000000        0.43037277        0.00011939        0.00013081        0.00049093
      11         -0.696452        1.000000        0.43662092        0.00000173        0.00012794        0.00100080
      12         -0.696322        1.000000        0.44217089        0.00000257        0.00030431        0.00059659
      13         -0.681640        1.000000        0.43978210        0.00001409        0.00099670        0.00073016
      14         -0.680835        1.000000        0.44189182        0.00000194        0.00055639        0.00174677
      15         -0.630845        1.000000        0.00003102        0.00001285        0.00002337        0.00000169
      16         -0.623875        1.000000        0.00117816        0.00042847        0.00003339        0.00025843
      17         -0.615518        1.000000        0.00003383        0.00161078        0.00011858        0.00001920
      18         -0.604903        1.000000        0.00013834        0.03338770        0.01272122        0.00686252
      19         -0.602357        1.000000        0.00004430        0.00059223        0.04961467        0.00538950
      20         -0.595697        1.000000        0.00002950        0.02442221        0.02071609        0.00065966
      21         -0.591489        1.000000        0.00017398        0.00373959        0.00848883        0.00399362
      22         -0.590905        1.000000        0.00006617        0.00584014        0.00084529        0.00060631
      23         -0.589886        1.000000        0.00048667        0.00497572        0.00601082        0.00230291
      24         -0.587420        1.000000        0.00029793        0.00347150        0.00480439        0.00085051
      25         -0.586856        1.000000        0.00039634        0.00387886        0.00284702        0.00251690
      26         -0.585978        1.000000        0.00008618        0.00101043        0.00096896        0.00059728
      27         -0.584596        1.000000        0.00021681        0.01148680        0.00811790        0.00667098
      28         -0.582936        1.000000        0.00063904        0.02831285        0.00802349        0.02083822
      29         -0.582644        1.000000        0.00121429        0.04302611        0.00146408        0.00625264
      30         -0.582280        1.000000        0.00063442        0.02416458        0.00313640        0.00816064
      31         -0.580598        1.000000        0.00054872        0.00976829        0.00564251        0.00345599
      32         -0.580072        1.000000        0.00004203        0.00207657        0.00085351        0.00057172
      33         -0.577708        1.000000        0.00021058        0.00498119        0.00504198        0.00140226
      34         -0.576418        1.000000        0.00020604        0.00587772        0.00383446        0.00062704
      35         -0.575559        1.000000        0.00060876        0.01098045        0.01543247        0.00134823
      36         -0.574645        1.000000        0.00029940        0.00429387        0.01099118        0.00394963
      37         -0.572879        1.000000        0.00097897        0.01572096        0.01833531        0.00069929
      38         -0.570237        1.000000        0.00012920        0.01606539        0.00175162        0.00071644
      39         -0.569623        1.000000        0.00002434        0.02445956        0.00368448        0.00126905
      40         -0.569084        1.000000        0.00003950        0.01197444        0.00265646        0.00041217
      41         -0.568567        1.000000        0.00007187        0.00782126        0.01347235        0.00079270
      42         -0.568041        1.000000        0.00004015        0.00864681        0.02713530        0.00135060
      43         -0.567128        1.000000        0.00010120        0.00293202        0.00476351        0.00205501
      44         -0.566704        1.000000        0.00007101        0.00658501        0.00668468        0.00247786
      45         -0.565159        1.000000        0.00002972        0.00083315        0.00049080        0.00005431
      46         -0.562741        1.000000        0.00003108        0.00400005        0.00056821        0.00025909
      47         -0.562477        1.000000        0.00004837        0.00059189        0.00027658        0.00014123
      48         -0.561749        1.000000        0.00000819        0.00263555        0.00104740        0.00045430
      49         -0.561486        1.000000        0.00002448        0.00266659        0.00078658        0.00057828
      50         -0.561442        1.000000        0.00009042        0.00183594        0.00311422        0.00094208
      51         -0.560782        1.000000        0.00008475        0.00060822        0.00769019        0.00012081
      52         -0.560328        1.000000        0.00001434        0.00399234        0.00095887        0.00031158
      53         -0.559146        1.000000        0.00000619        0.00027892        0.00008335        0.00012166
      54         -0.558824        1.000000        0.00001409        0.00107054        0.00023584        0.00066074
      55         -0.554710        1.000000        0.00000249        0.00051846        0.00001515        0.00000178
      56         -0.553254        1.000000        0.00000057        0.00023664        0.00002478        0.00001083
      57         -0.552929        1.000000        0.00000366        0.00004852        0.00001325        0.00000923
      58         -0.552351        1.000000        0.00001074        0.00007842        0.00008468        0.00002565
      59         -0.550538        1.000000        0.00006075        0.02932886        0.01293404        0.00687297
      60         -0.549767        1.000000        0.00026412        0.03543452        0.00063926        0.00070852
      61         -0.547900        1.000000        0.00009975        0.00919088        0.00063185        0.00134066
      62         -0.547778        1.000000        0.00000342        0.00029961        0.00002883        0.00003913
      63         -0.543947        1.000000        0.00010020        0.02098257        0.02923711        0.00607338
      64         -0.540568        1.000000        0.00000673        0.00071580        0.02342136        0.02911826
      65         -0.501461        1.000000        0.03369729        0.01483659        0.20172895        0.12109043
      66         -0.495461        1.000000        0.02907614        0.01311218        0.03286922        0.28944777
      67         -0.484019        1.000000        0.03133480        0.00293534        0.00052354        0.33025838
      68         -0.480937        1.000000        0.02708302        0.00115922        0.00590249        0.33403667
      69         -0.477591        1.000000        0.02629637        0.00101645        0.11610707        0.22235613
      70         -0.461474        1.000000        0.02203244        0.01234139        0.17151883        0.15502556
      71         -0.460684        1.000000        0.02022053        0.00449923        0.07970417        0.25457031
      72         -0.456976        1.000000        0.00020919        0.00032759        0.00047176        0.00323227
      73         -0.453492        1.000000        0.00015624        0.00068571        0.00109303        0.00307464
      74         -0.450241        1.000000        0.00002728        0.00029180        0.00124847        0.00051390
      75         -0.448203        1.000000        0.00023495        0.00014433        0.00301459        0.00375838
      76         -0.445858        1.000000        0.00003699        0.00049583        0.00062348        0.00030069
      77         -0.445301        1.000000        0.00014438        0.00053504        0.00145387        0.00124440
      78         -0.444665        1.000000        0.00002560        0.00016852        0.00028665        0.00028780
      79         -0.441144        1.000000        0.00005215        0.00140251        0.00178507        0.00054909
      80         -0.424340        1.000000        0.00000083        0.36545709        0.11936914        0.06404814
      81         -0.423481        1.000000        0.00004667        0.25256187        0.26073915        0.01449973
      82         -0.422615        1.000000        0.00000121        0.15798347        0.08869491        0.28802300
      83         -0.420389        1.000000        0.00002621        0.25506838        0.22028304        0.06133093
      84         -0.413098        1.000000        0.00003793        0.51046798        0.01800280        0.01181584
      85         -0.412585        1.000000        0.00000531        0.02271404        0.32845683        0.18346877
      86         -0.411632        1.000000        0.00001794        0.52061448        0.01401845        0.00114387
      87         -0.411069        1.000000        0.00005669        0.24639872        0.28731092        0.00213633
      88         -0.410057        1.000000        0.00004422        0.01081662        0.52682089        0.00016671
      89         -0.408259        1.000000        0.00000038        0.28948882        0.23965079        0.00939613
      90         -0.399540        1.000000        0.00002204        0.50173639        0.00313804        0.02385755
      91         -0.398172        1.000000        0.00009097        0.51856622        0.00008788        0.01088637
      92         -0.397836        1.000000        0.00000247        0.00254443        0.41194761        0.11370732
      93         -0.396657        1.000000        0.00001162        0.00652365        0.25094989        0.26829131
      94         -0.308234        1.000000        0.00007442        0.00030692        0.00012444        0.00000466
      95         -0.300781        1.000000        0.00013364        0.00090347        0.00002244        0.00034724
      96         -0.293678        1.000000        0.00007766        0.00022897        0.00010701        0.00008068
      97         -0.272984        1.000000        0.00001965        0.00012683        0.00003884        0.00008995
      98         -0.269165        1.000000        0.00003099        0.00028673        0.00009716        0.00008375
      99         -0.264977        1.000000        0.00014686        0.00018218        0.00047547        0.00011319
     100         -0.264276        1.000000        0.00022187        0.00030716        0.00016991        0.00066534
     101         -0.261858        1.000000        0.00004680        0.00012401        0.00024016        0.00039397
     102         -0.261142        1.000000        0.00006010        0.00013052        0.00049509        0.00030741
     103         -0.259599        1.000000        0.00001805        0.00021383        0.00029364        0.00002615
     104         -0.257257        1.000000        0.00006673        0.00012652        0.00060101        0.00009088
     105         -0.256398        1.000000        0.00003552        0.00025027        0.00015695        0.00013437
     106         -0.253213        1.000000        0.00005664        0.00018111        0.00012967        0.00008058
     107         -0.252850        1.000000        0.00004762        0.00023570        0.00021135        0.00014809
     108         -0.252175        1.000000        0.00055968        0.00063133        0.00008678        0.00010759
     109         -0.248703        1.000000        0.00014078        0.00066351        0.00022332        0.00032743
     110         -0.246589        1.000000        0.00009262        0.00011134        0.00011170        0.00043456
     111         -0.244037        1.000000        0.00009260        0.00026121        0.00049380        0.00043766
     112         -0.242090        1.000000        0.00032864        0.00035360        0.00049667        0.00024380
     113         -0.240160        1.000000        0.00012299        0.00015918        0.00045952        0.00066469
     114         -0.238506        1.000000        0.00006048        0.00006861        0.00004318        0.00009952
     115         -0.237819        1.000000        0.00001340        0.00008205        0.00009423        0.00020806
     116         -0.237483        1.000000        0.00009944        0.00004776        0.00017185        0.00015006
     117         -0.236262        1.000000        0.00030393        0.00018567        0.00035135        0.00018579
     118         -0.234982        1.000000        0.00029872        0.00015625        0.00013095        0.00017527
     119         -0.233871        1.000000        0.00034040        0.00038875        0.00074663        0.00041432
     120         -0.232284        1.000000        0.00016038        0.00018489        0.00071857        0.00058491
     121         -0.230458        1.000000        0.00039219        0.00037152        0.00046942        0.00081465
     122         -0.228950        1.000000        0.00016948        0.00017019        0.00023081        0.00010466
     123         -0.226920        1.000000        0.00020744        0.00046370        0.00050123        0.00042318
     124         -0.226476        1.000000        0.00013123        0.00034357        0.00038246        0.00015480
     125         -0.223699        1.000000        0.00061481        0.00056164        0.00019267        0.00043726
     126         -0.222375        1.000000        0.00008018        0.00027682        0.00048691        0.00030392
     127         -0.220923        1.000000        0.00015163        0.00030306        0.00025275        0.00047508
     128         -0.219375        1.000000        0.00020109        0.00025726        0.00055519        0.00006718
     129         -0.217145        1.000000        0.00030842        0.00008448        0.00069399        0.00085064
     130         -0.216159        1.000000        0.00020236        0.00037443        0.00078537        0.00032419
     131         -0.214007        1.000000        0.00043588        0.00018773        0.00022294        0.00022787
     132         -0.212321        1.000000        0.00020474        0.00029504        0.00065546        0.00047969
     133         -0.211805        1.000000        0.00015978        0.00048839        0.00049715        0.00018519
     134         -0.211347        1.000000        0.00006754        0.00041645        0.00032041        0.00046395
     135         -0.210605        1.000000        0.00017539        0.00030649        0.00022978        0.00026924
     136         -0.209369        1.000000        0.00021115        0.00039811        0.00028017        0.00027687
     137         -0.208243        1.000000        0.00009544        0.00030857        0.00068490        0.00011297
     138         -0.207679        1.000000        0.00013254        0.00011320        0.00028493        0.00039891
     139         -0.207227        1.000000        0.00011674        0.00034546        0.00035250        0.00021671
     140         -0.205547        1.000000        0.00009526        0.00011221        0.00023249        0.00020691
     141         -0.205101        1.000000        0.00005927        0.00002455        0.00009711        0.00009704
     142         -0.204601        1.000000        0.00008692        0.00007595        0.00010892        0.00012540
     143         -0.203603        1.000000        0.00005919        0.00009028        0.00018561        0.00005508
     144         -0.202811        1.000000        0.00006765        0.00015945        0.00030636        0.00006152
     145         -0.201065        1.000000        0.00022414        0.00020749        0.00025835        0.00013350
     146         -0.200685        1.000000        0.00001091        0.00009826        0.00012895        0.00004408
     147         -0.199606        1.000000        0.00017460        0.00025456        0.00006047        0.00014500
     148         -0.198311        1.000000        0.00007761        0.00036419        0.00010952        0.00004280
     149         -0.197081        1.000000        0.00012196        0.00015793        0.00007291        0.00013438
     150         -0.196660        1.000000        0.00013792        0.00012795        0.00025173        0.00008207
     151         -0.194964        1.000000        0.00011752        0.00038738        0.00024372        0.00003875
     152         -0.194309        1.000000        0.00010780        0.00018235        0.00018437        0.00006828
     153         -0.193320        1.000000        0.00015620        0.00030572        0.00019180        0.00011709
     154         -0.192991        1.000000        0.00016836        0.00011306        0.00016865        0.00037378
     155         -0.192281        1.000000        0.00010623        0.00013541        0.00028750        0.00005728
     156         -0.191928        1.000000        0.00004057        0.00010818        0.00012009        0.00003758
     157         -0.191065        1.000000        0.00003852        0.00006462        0.00001645        0.00027258
     158         -0.190682        1.000000        0.00012398        0.00015784        0.00013119        0.00033780
     159         -0.190390        1.000000        0.00002366        0.00006415        0.00003761        0.00019966
     160         -0.190057        1.000000        0.00003054        0.00005066        0.00000182        0.00005675
     161         -0.188855        1.000000        0.00003462        0.00009897        0.00004480        0.00010142
     162         -0.188692        1.000000        0.00006166        0.00010041        0.00017875        0.00002427
     163         -0.188556        1.000000        0.00010276        0.00010500        0.00025116        0.00008910
     164         -0.188016        1.000000        0.00021138        0.00025391        0.00083176        0.00005852
     165         -0.187688        1.000000        0.00007333        0.00024886        0.00006042        0.00005508
     166         -0.186948        1.000000        0.00008452        0.00006397        0.00010541        0.00006409
     167         -0.186640        1.000000        0.00003314        0.00005668        0.00014001        0.00015877
     168         -0.186318        1.000000        0.00003147        0.00006884        0.00008413        0.00004275
     169         -0.185766        1.000000        0.00002673        0.00003158        0.00013203        0.00003359
     170         -0.185430        1.000000        0.00017058        0.00010279        0.00027095        0.00004589
     171         -0.184880        1.000000        0.00001579        0.00002867        0.00006287        0.00004240
     172         -0.183864        1.000000        0.00019131        0.00001274        0.00042452        0.00002287
     173         -0.183227        1.000000        0.00002315        0.00003182        0.00007190        0.00001259
     174         -0.182323        1.000000        0.00001245        0.00001862        0.00003026        0.00006483
     175         -0.181915        1.000000        0.00002708        0.00001312        0.00003638        0.00004285
     176         -0.181471        1.000000        0.00003458        0.00002537        0.00003218        0.00001946
     177         -0.180838        1.000000        0.00004674        0.00005111        0.00012980        0.00001519
     178         -0.180405        1.000000        0.00002307        0.00005414        0.00004195        0.00003312
     179         -0.179804        1.000000        0.00009432        0.00004637        0.00006968        0.00003638
     180         -0.179565        1.000000        0.00009380        0.00011220        0.00003212        0.00000611
     181         -0.179186        1.000000        0.00003622        0.00003969        0.00004107        0.00005350
     182         -0.179015        1.000000        0.00005657        0.00002688        0.00013278        0.00001647
     183         -0.178319        1.000000        0.00000229        0.00000579        0.00000790        0.00000915
     184         -0.178109        1.000000        0.00000509        0.00001787        0.00002123        0.00000671
     185         -0.177627        1.000000        0.00005849        0.00004138        0.00005731        0.00001452
     186         -0.177513        1.000000        0.00004289        0.00005077        0.00006990        0.00005020
     187         -0.177342        1.000000        0.00001273        0.00001806        0.00002718        0.00007018
     188         -0.176702        1.000000        0.00003266        0.00001953        0.00003179        0.00002142
     189         -0.176331        1.000000        0.00001453        0.00006198        0.00014943        0.00001278
     190         -0.176227        1.000000        0.00006875        0.00002245        0.00003975        0.00001817
     191         -0.176169        1.000000        0.00002479        0.00002149        0.00002870        0.00001126
     192         -0.175613        1.000000        0.00001339        0.00001506        0.00000891        0.00001377
     193         -0.175353        1.000000        0.00002233        0.00001118        0.00008115        0.00001940
     194         -0.175330        1.000000        0.00002066        0.00004698        0.00004437        0.00003245
     195         -0.175308        0.000000        0.00003217        0.00001094        0.00005321        0.00000718
     196         -0.174953        0.000000        0.00002832        0.00003813        0.00003519        0.00002974
     197         -0.174434        0.000000        0.00003176        0.00016105        0.00004282        0.00008415
     198         -0.174173        0.000000        0.00007346        0.00015031        0.00004555        0.00003484
     199         -0.173933        0.000000        0.00000220        0.00001948        0.00003806        0.00001307
     200         -0.172705        0.000000        0.00002637        0.00003137        0.00007111        0.00003173
     201         -0.170466        0.000000        0.00000694        0.00004103        0.00000799        0.00002085
     202         -0.065818        0.000000        0.00008927        0.00010530        0.00013368        0.00011736
     203         -0.061048        0.000000        0.00006929        0.00001012        0.00007548        0.00005361
     204         -0.058898        0.000000        0.00004303        0.00003963        0.00012916        0.00007794
     205         -0.057250        0.000000        0.00011281        0.00015985        0.00022999        0.00026750
     206         -0.055887        0.000000        0.00003326        0.00002448        0.00005416        0.00017093
     207         -0.052880        0.000000        0.00001889        0.00001921        0.00001218        0.00002638
     208         -0.046609        0.000000        0.00001122        0.00000804        0.00002957        0.00001919
     209         -0.045069        0.000000        0.00002760        0.00001640        0.00005839        0.00013823
     210         -0.042918        0.000000        0.00001822        0.00001630        0.00001735        0.00004376
     211         -0.041024        0.000000        0.00005279        0.00004323        0.00003663        0.00002327
     212         -0.038543        0.000000        0.00000665        0.00000327        0.00001864        0.00001872
     213         -0.036404        0.000000        0.00001840        0.00000859        0.00002257        0.00004118
     214         -0.035349        0.000000        0.00003899        0.00002029        0.00003074        0.00001789
     215         -0.031780        0.000000        0.00001155        0.00001471        0.00000926        0.00002802
     216         -0.030262        0.000000        0.00001592        0.00002319        0.00003780        0.00002538
     217         -0.027506        0.000000        0.00001951        0.00003221        0.00000975        0.00004786
     218         -0.026640        0.000000        0.00007027        0.00001464        0.00007866        0.00002223
     219         -0.025229        0.000000        0.00001344        0.00000283        0.00001755        0.00002870
     220         -0.022191        0.000000        0.00000671        0.00001484        0.00002511        0.00001433
     221         -0.021505        0.000000        0.00001321        0.00002578        0.00002223        0.00004637
     222         -0.011862        0.000000        0.00001226        0.00001212        0.00000752        0.00002556
     223         -0.010747        0.000000        0.00004310        0.00001476        0.00008091        0.00003278
     224         -0.010148        0.000000        0.00000914        0.00000409        0.00006387        0.00000457
     225         -0.005273        0.000000        0.00001741        0.00002927        0.00000358        0.00002856
     226          0.079600        0.000000        0.08492544        0.01950440        0.35042789        0.17738011
     227          0.083709        0.000000        0.07995694        0.01549793        0.06547837        0.45847447
     228          0.086471        0.000000        0.07986230        0.00188766        0.19148843        0.36226777
     229          0.090474        0.000000        0.08058923        0.00899647        0.00032668        0.53725372
     230          0.092418        0.000000        0.08355337        0.00370917        0.01046263        0.52570122
     231          0.107052        0.000000        0.08239649        0.01330634        0.11955067        0.41246754
     232          0.109592        0.000000        0.08090763        0.02312760        0.28226841        0.24058478
     233          0.131515        0.000000        0.00510932        0.00010256        0.00178796        0.01287278
     234          0.149515        0.000000        0.00389495        0.00065323        0.00002010        0.00850629
     235          0.180594        0.000000        0.00064505        0.00097165        0.00074041        0.00003908
     236          0.203142        0.000000        0.00348910        0.00013799        0.00028926        0.00974293
     237          0.238545        0.000000        0.00308533        0.00127533        0.00039432        0.00580728
     238          0.269291        0.000000        0.00000301        0.00000891        0.00455511        0.00056562
     239          0.273775        0.000000        0.00000184        0.00470882        0.00019850        0.00004161
     240          0.281833        0.000000        0.00001154        0.00276632        0.00294980        0.00027443
     241          0.282475        0.000000        0.00000803        0.00058827        0.00326720        0.00196543
     242          0.284959        0.000000        0.00008804        0.00411908        0.00184729        0.00014831
     243          0.288105        0.000000        0.00291873        0.00256313        0.00118433        0.00012947
     244          0.293953        0.000000        0.00351389        0.00280614        0.00000443        0.00010855
     245          0.300542        0.000000        0.00028639        0.00029451        0.00213906        0.00468889
     246          0.304491        0.000000        0.00006115        0.00257520        0.00466977        0.00032534
     247          0.306594        0.000000        0.00021173        0.00742655        0.00117979        0.00007488
     248          0.308967        0.000000        0.00309146        0.00173879        0.00139126        0.00015323
     249          0.310131        0.000000        0.00001750        0.00649548        0.00186751        0.00192947
     250          0.317975        0.000000        0.00475151        0.00007206        0.00013518        0.00007404
     251          0.324199        0.000000        0.00393148        0.00063696        0.00334752        0.00015937
     252          0.349150        0.000000        0.00531409        0.00002904        0.00003179        0.00006039
     253          0.352051        0.000000        0.00539358        0.00005639        0.00021970        0.00004628
     254          0.440488        0.000000        0.00004438        0.37230585        0.01777217        0.00037410
     255          0.441900        0.000000        0.00002033        0.00410397        0.12420991        0.26456939
     256          0.445113        0.000000        0.00012740        0.20613958        0.13259515        0.05139407
     257          0.446999        0.000000        0.00019670        0.17472739        0.21052738        0.00863627
     258          0.450481        0.000000        0.00039105        0.03016358        0.35318262        0.00751891
     259          0.451506        0.000000        0.00153073        0.25441985        0.12787517        0.00794977