     256
 i =      689, E =     -1468.5903552414
  I         9.2348448941       11.8499616187        9.0574424164
  I        19.2594446089       12.4293354058        8.3483797957
  I        11.9511577645       19.3190491595        7.8473004253
  I        17.8100829701       17.7674221245        8.7000534923
  I        12.0226492768        9.0147060838       11.0961793051
  I        19.8532348029        8.5910741626       11.0835298806
  I         7.7199034043       12.9736658817       11.4144024278
  I        11.9310731550       12.3435641599       14.4316094839
  I        11.8841489316       15.3763668197       10.5280066361
  I        15.3456618450       12.0201198605       11.4336349309
  I        19.0695248082       11.3564849198       14.9477009277
  I        18.5405492396       14.8160233654       12.3131097784
  I        22.3101766241       12.4138614538       12.0774040237
  I         9.0768529046       19.1062427810       11.4805671055
  I        12.2484323321       17.9575735212       14.5721895234
  I        12.9988358867       21.5025893421       11.6099272163
  I        15.7575979080       17.8807867461       11.0959913418
  I        18.6041506119       18.2452384266       15.2193969532
  I        19.4858149920       21.3770178975       11.5710345136
  I        22.3757838803       17.9215286070       11.8875281799
  I        12.1716288946        9.4421603560       18.5692230127
  I        19.1769857319        8.5194027454       16.2765584081
  I         9.8700597897       13.1096265014       18.6645639531
  I        13.4290801760       12.3087739086       21.7850237642
  I        13.5232224297       15.4440684205       17.9870117520
  I        15.6361117273       11.8235464771       17.4212100565
  I        18.8016300029       11.2933989068       21.6828147616
  I        18.6391580355       14.9496853509       18.4965366242
  I        22.1004919352       11.8190916322       18.6630885144
  I         9.7761692615       18.3000993830       17.4628746133
  I        12.2490486586       18.6589939157       21.3270278875
  I        12.4482167558       21.9219541389       18.0519062614
  I        16.0862427032       19.2876673628       18.7122989996
  I        19.0412209885       19.0786506656       21.0670428932
  I        21.9664051129       20.9247187229       17.7352956287
  I        22.8664483534       16.7811401715       19.4813047507
 Pb        12.2603780341       12.0473928463       11.4176112606
 Pb        19.3799294952       11.9033974348       11.4937476739
 Pb        12.0902720383       18.5367749581       11.5046312236
 Pb        19.3922452815       18.3448830033       12.1801199803
 Pb        12.9129852396       12.3810083299       18.8525394280
 Pb        19.0356831245       11.9025917815       18.6990576432
 Pb        12.9718108575       18.8479103074       18.4150328243
 Pb        20.4910087267       18.3293835548       18.3491281898
  C        15.4012019096       14.7719995529        8.0583756601
  C        14.5537485603        9.1844623095       14.4461647368
  C         8.7833110465       15.3362206084       14.8873959608
  C        15.2985581805       15.1388439605       14.4746454100
  C        21.4021942200       15.2129714626       14.9898126590
  C        16.0255787761       21.4953446838       14.3721277865
  C        16.3477093602       15.4354454113       22.1636074759
  N        16.4386557053       14.4441815179        9.1837497838
  N        16.0962250476        8.9638475607       14.4520008603
  N        10.1519948669       15.1045491184       15.6162101984
  N        16.5594698080       15.2203361333       15.4099854628
  N        22.8452969243       14.9775231114       15.5108352389
  N        16.9014075395       21.8064025422       15.6177914134
  N        17.8887239554       15.5565367794       21.9516750957
  H        15.8383520199       15.4872314859        7.4052693314
  H        14.5263384945       15.1654782667        8.5215355002
  H        15.1815616809       13.8667462323        7.5460178700
  H        16.7158576783       15.2988822295        9.7007604381
  H        17.3070540986       13.9956429506        8.7971124075
  H        16.0290043989       13.7615552374        9.8777234979
  H        14.2840572626        9.5578586173       13.4916197705
  H        14.2949206741        9.8790380521       15.2050537136
  H        14.0909155609        8.2407758499       14.6107436856
  H        16.5885888736        9.8368099087       14.2192212084
  H        16.3718106606        8.1456457927       13.6917153368
  H        16.4027607672        8.6621187716       15.3842306246
  H         8.9931994492       15.7051124406       13.9127917528
  H         8.2249965960       16.0413534799       15.4546612424
  H         8.2703777637       14.4064270226       14.8287442807
  H        10.7470908945       15.9585823829       15.5663645010
  H        10.6705706533       14.3100340699       15.1585327037
  H        10.0017558884       14.8427454858       16.6168582690
  H        15.6297620301       15.2679729611       13.4728041802
  H        14.6314208593       15.9150631637       14.7620756977
  H        14.8522875791       14.1832581982       14.6139046204
  H        17.0368238865       16.1557138949       15.3406064363
  H        17.2566608337       14.5027173344       15.1320343540
  H        16.2877056126       15.0576720264       16.4026922410
  H        21.4700112621       15.7147364982       14.0573554510
  H        20.8942053462       15.8184994545       15.6959525962
  H        20.9135670927       14.2793604137       14.8703487773
  H        23.3724122175       16.0010653192       15.6656411175
  H        23.3690486482       14.4062294962       14.8348648062
  H        22.8168008626       14.4700404827       16.4067186281
  H        16.1799710026       22.2619646222       13.6537486573
  H        15.0075600974       21.4759682842       14.6741597829
  H        16.3099859808       20.5552846901       13.9698472172
  H        16.6882834991       22.8082723530       16.0156669023
  H        17.9470372798       21.8490691007       15.4127983703
  H        16.7429539268       21.1018254479       16.3519565302
  H        15.8541429858       15.9079564271       21.3478372049
  H        16.0904382141       15.9201026649       23.0734769314
  H        16.0934643380       14.4040231040       22.1983375945
  H        18.1615081535       16.5565551986       21.9174993106
  H        18.1479690731       15.1498226136       21.0304459749
  H        18.4854758134       15.0592133725       22.7424889137
  H         5.4583149101       11.1612511529       17.2412688580
  O         6.2495934552       11.1703011396       16.6224928068
  H         6.9982202043       11.6136795004       17.1290303195
  H         5.5561117377       13.8182512301       13.2546237880
  O         6.3981127223       14.3491076206       13.0873846437
  H         6.2255590392       15.2268129626       12.3949929271
  H         5.9902352881       17.1462095163       11.7748718163
  O         6.1796473303       16.2026230118       11.5022126966
  H         6.9201283569       16.1621576385       10.7302095609
  H         6.2094086959       17.9932679675       17.8666881893
  O         6.3009565591       17.1653065380       18.4745149750
  H         6.8881844626       17.4511500796       19.2465642024
  H         5.8127402570       20.2266146599       16.9378545390
  O         6.3500214574       19.3783114482       16.9284225811
  H         7.3271925527       19.6146260006       16.8350063097
  H         8.3500897817        9.0046838691        8.3887588489
  O         8.9977636189        8.2420505456        8.2835336687
  H         9.6702344551        8.3547017427        9.0256565064
  H         8.2471582278        8.7975164318       16.2126660400
  O         9.0557880874        8.3161095455       16.5681037161
  H         9.6472837133        9.0072544559       16.9994958612
  H         8.6689248601       10.7465936128       21.9678820419
  O         9.5988799312       10.5832958722       21.6289811074
  H         9.7644228432       11.1867626904       20.8366807038
  H         8.6578563026       17.0051492464        9.9834820158
  O         8.0667760834       16.1965251077        9.8127498531
  H         8.6463257182       15.3882817031        9.6480160263
  H         8.7822158248       20.0816556165       19.9967958691
  O         8.6121330710       19.1139513200       20.3602511042
  H         9.4936948773       18.7860085787       20.7411642556
  H         8.9391450360       21.8762248241        9.7674405530
  O         9.8214816893       22.3407446214        9.9204425882
  H        10.2068912401       21.9633273321       10.7782307265
  H         8.9076669317       22.4376878724       19.8908685396
  O         9.1624276315       21.5915302590       19.4173248969
  H        10.0567152239       21.7345929937       18.9524965815
  H        10.7620971040        6.3175300091       16.5079185398
  O        11.5345100206        5.6626425410       16.5014612729
  H        12.2819588532        6.0953324050       15.9795820800
  H        10.4300144162        9.2116260399       21.9109372202
  O        10.9890541605        8.3603630076       22.1375296824
  H        11.9345349522        8.6761153097       22.3046193735
  H        11.2140927591       13.8763384323       25.5544459698
  O        12.0872948731       13.7513445319       25.0726615026
  H        12.0654742956       14.2895776504       24.2215409229
  H        10.9899728670       16.3491646622        5.8688844396
  O        11.8688665742       16.6780200105        5.5040669529
  H        11.7516951859       17.6620570608        5.3255386842
  H        10.8919356285       22.2449009357        8.7894971516
  O        11.7518505890       22.1585448472        8.1646181663
  H        12.5488338650       22.1921774512        8.7970256100
  H        11.4502254192       24.6802785912       12.4074952658
  O        12.3548420905       24.9326471182       12.7701885657
  H        12.5271399142       24.3476805279       13.5719803362
  H        14.0777777084        5.1927094813       13.6496935536
  O        14.4525497066        6.0373979928       14.0340059400
  H        15.2941367537        6.2938425581       13.4958354009
  H        14.5899474039        8.0419757863       10.7120368596
  O        15.5555359152        7.7745348997       10.6573145129
  H        16.0779267986        8.2501994101        9.8035874100
  H        14.5087833314        9.6562901586        6.4293764736
  O        15.3981220848        9.8604461166        6.8319480205
  H        15.9625038344       10.5369711307        6.2795118322
  H        12.9674384838       12.3820623915       25.0290298000
  O        13.5785645847       11.5524601204       24.9030344235
  H        14.5301496164       11.8380177071       25.0593806219
  H        14.4592428588       19.9043289309        7.1424035417
  O        15.4465838716       20.0809088248        7.2855214623
  H        15.6152088743       20.1307791349        8.2765362872
  H        13.8453354953       19.8267834674       25.0381712895
  O        14.5230698749       19.3740629056       24.4535227925
  H        14.7331505952       20.0205185528       23.6767790752
  H        14.2806634769       20.4667630779       21.6297931451
  O        14.9150711601       20.9405316258       22.2588501139
  H        15.8126987043       20.9821060686       21.8032219143
  H        13.7121014191       24.9936367356       11.7497344914
  O        14.5289557389       24.9651231835       11.1281577985
  H        14.3758255756       25.6360934751       10.3985503754
  H        14.2785959248       23.5751395407       18.5019005448
  O        15.0029565976       24.2874460787       18.5813930656
  H        14.9752817469       24.6818912994       19.5020385962
  H        16.1077530015        7.4107251791       11.7270980619
  O        16.5632590824        7.1248549720       12.7687774032
  H        17.4823883512        6.7385649447       12.6848728017
  H        17.5315768841        6.0971483100       19.9582534686
  O        18.4338627491        6.3713002565       19.6269875269
  H        19.0665425658        7.0738918849       20.2813362039
  H        16.0885754171        9.2473472325        7.9429209011
  O        16.6612788498        8.8525511409        8.7547186042
  H        17.6232757914        9.1147710750        8.7364128283
  H        17.3923967186       11.6162362938        4.8124291414
  O        17.0555099870       11.5113933302        5.7518235466
  H        17.8076707417       11.7252105130        6.4055848801
  H        16.6502643533       19.8218237700        6.4210911142
  O        17.5511850810       19.6516362090        5.9002412507
  H        17.7182058457       20.3471502489        5.2046053189
  H        15.9772745699       24.3549010397       17.4071419908
  O        16.5635756499       24.1851234530       16.5624289707
  H        17.2674226041       24.8806735529       16.4204527457
  H        18.6526009067        6.3483766677       18.4529203591
  O        18.9347342101        6.3328325577       17.2470272516
  H        19.8078291831        5.8635714578       17.0476311555
  H        19.4911805619        8.7163888969       21.3271807838
  O        19.8667946153        7.8839142358       20.8918262771
  H        20.8127441976        8.0720016510       20.4448194580
  H        19.1663392736       14.0671738907       24.6163541431
  O        19.4285505198       14.4671543366       23.7388780553
  H        20.3609591726       14.0978921993       23.4434772331
  H        18.4198577846       18.6040616955        6.2120735280
  O        19.0747343720       17.8203147879        6.6486203855
  H        20.0300351738       18.3158690196        6.9316040847
  H        19.8485807679       21.4092690752        9.0931343994
  O        20.2016133389       21.3758275289        8.1317390722
  H        20.4684050359       22.2986203670        7.8442154881
  H        19.5977756072       23.4577533721       15.3344645485
  O        19.5360103484       22.4580547015       15.5126575850
  H        20.2286474156       22.1756333210       16.1886375570
  H        18.7134551011       25.0931109650       13.8920465047
  O        19.2046774686       25.1543102007       14.7699151816
  H        19.8151474153       25.9515733909       14.7182863360
  H        22.8123550753        8.9333440616       11.5739936538
  O        22.8449749465        8.5409948864       10.6408248267
  H        22.7687861673        9.3486728292        9.9510680374
  H        22.1518008631        9.3441886762       19.2893794621
  O        22.0791155432        8.4254661771       19.7315355344
  H        22.9972264829        8.0498615835       19.8851769648
  H        21.8148610243       10.8525654535        8.5004525762
  O        22.6267074839       10.6814356722        9.0752293131
  H        22.7699128284       11.5006605583        9.6527460955
  H        21.5949365302       12.6940028009       22.2952885114
  O        21.7422287620       13.4947025615       22.8931794601
  H        22.4621338981       14.0688472450       22.4844727692
  H        20.7897606650       20.0709632635        7.6229123245
  O        21.0898007278       19.1114600940        7.2887166470
  H        21.8188942778       18.7358858872        7.8644158801
  H        22.6800628043       20.7906217013       13.1539740339
  O        23.2773878655       21.0490796059       13.9287493268
  H        22.6893841979       21.4004143448       14.6715125661
  H        22.3348440301       21.3168973392       22.2942861037
  O        22.8058225239       22.1829012812       22.1001404342
  H        22.9931311654       22.1781222662       21.1116751605
  H        25.3391370715       10.8819870901       12.6893905895
  O        25.7198826292       11.6686954142       13.1835376871
  H        25.7415330001       12.4534152439       12.5228746048
  H        24.5638138608       14.1939987874       11.3341521381
  O        25.4962907270       13.8199206264       11.3959567483
  H        26.1183888263       14.4414240287       10.9141465312
  H        24.6919120282       14.4075373241       19.3580373911
  O        25.5458571838       13.8728153640       19.3700706977
  H        26.2978765712       14.5294893918       19.2611701427
  H        23.9075143730       17.4393510630       16.9108565751
  O        23.9546631671       17.1699752615       15.9457813968
  H        24.3416593954       17.9793060960       15.3440449022
  H        24.2279156819       19.9071965951       14.3590565796
  O        24.8393215423       19.1123216983       14.6652750183
  H        25.7876016283       19.2606847736       14.3943863126
