# Projected DOS for atomic kind N at iteration step i = 0, E(Fermi) =    -0.140463 a.u.
#     MO Eigenvalue [a.u.]      Occupation                 s                py                pz                px
       1         -0.918269        1.000000        0.00003962        0.00000331        0.00000000        0.00000474
       2         -0.918157        1.000000        0.00001703        0.00000015        0.00000019        0.00000001
       3         -0.917318        1.000000        0.00000001        0.00000000        0.00000000        0.00000000
       4         -0.916432        1.000000        0.00000000        0.00000000        0.00000000        0.00000000
       5         -0.914802        1.000000        0.00000039        0.00000001        0.00000000        0.00000000
       6         -0.914002        1.000000        0.00000125        0.00000000        0.00000001        0.00000004
       7         -0.912278        1.000000        0.00000001        0.00000000        0.00000000        0.00000000
       8         -0.910079        1.000000        0.00090053        0.00000724        0.00001809        0.00002240
       9         -0.909540        1.000000        0.00004076        0.00000136        0.00000007        0.00000041
      10         -0.909443        1.000000        0.00002100        0.00000001        0.00000000        0.00000001
      11         -0.909377        1.000000        0.61612660        0.00006243        0.00004056        0.00020084
      12         -0.903173        1.000000        0.00034427        0.00003499        0.00000984        0.00000143
      13         -0.903132        1.000000        0.00000006        0.00000000        0.00000000        0.00000000
      14         -0.902169        1.000000        0.61056089        0.00001589        0.00002928        0.00002716
      15         -0.900055        1.000000        0.00000019        0.00000000        0.00000002        0.00000004
      16         -0.893720        1.000000        0.00000208        0.00000000        0.00000000        0.00000000
      17         -0.892677        1.000000        0.00000005        0.00000000        0.00000002        0.00000001
      18         -0.891877        1.000000        0.61108653        0.00000066        0.00000468        0.00004984
      19         -0.890806        1.000000        0.00000012        0.00000000        0.00000000        0.00000000
      20         -0.889779        1.000000        0.00117744        0.00000001        0.00000024        0.00000101
      21         -0.889494        1.000000        0.00000644        0.00000008        0.00000001        0.00000001
      22         -0.887732        1.000000        0.00000092        0.00000001        0.00000000        0.00000000
      23         -0.884232        1.000000        0.00000029        0.00000000        0.00000000        0.00000000
      24         -0.878448        1.000000        0.09111546        0.00001823        0.00009021        0.00018345
      25         -0.877974        1.000000        0.00000197        0.00000000        0.00000008        0.00000016
      26         -0.877723        1.000000        0.00000009        0.00000000        0.00000000        0.00000000
      27         -0.876671        1.000000        0.00023238        0.00000222        0.00000222        0.00000029
      28         -0.876469        1.000000        0.00000126        0.00000005        0.00000000        0.00000001
      29         -0.874404        1.000000        0.00000001        0.00000000        0.00000000        0.00000000
      30         -0.873060        1.000000        0.02032877        0.00012591        0.00001217        0.00003917
      31         -0.865516        1.000000        0.00000000        0.00000000        0.00000000        0.00000000
      32         -0.860833        1.000000        0.00000001        0.00000000        0.00000000        0.00000000
      33         -0.860658        1.000000        0.03938313        0.00006808        0.00004609        0.00002129
      34         -0.859959        1.000000        0.05586485        0.00057680        0.00015042        0.00001588
      35         -0.856833        1.000000        0.00001230        0.00000000        0.00000062        0.00000183
      36         -0.854383        1.000000        0.50939089        0.00096437        0.00188749        0.00070470
      37         -0.854297        1.000000        0.00237497        0.00010513        0.00004213        0.00066026
      38         -0.852987        1.000000        0.20180992        0.00005103        0.00000484        0.00000801
      39         -0.852686        1.000000        0.00000112        0.00000000        0.00000000        0.00000000
      40         -0.850514        1.000000        0.00016548        0.00000003        0.00000087        0.00000079
      41         -0.850084        1.000000        0.00000007        0.00000000        0.00000000        0.00000000
      42         -0.847806        1.000000        0.14443364        0.00000586        0.00003065        0.00001867
      43         -0.847271        1.000000        0.00000343        0.00000000        0.00000007        0.00000004
      44         -0.844563        1.000000        0.00000001        0.00000002        0.00000001        0.00000000
      45         -0.837239        1.000000        0.00000000        0.00000000        0.00000000        0.00000000
      46         -0.835184        1.000000        0.00000303        0.00000093        0.00000004        0.00000014
      47         -0.832556        1.000000        0.31061345        0.00142662        0.00151930        0.00000412
      48         -0.831734        1.000000        0.00000011        0.00000000        0.00000000        0.00000000
      49         -0.831299        1.000000        0.00088777        0.00001574        0.00000051        0.00000325
      50         -0.830717        1.000000        0.37130402        0.00589051        0.00014955        0.00159488
      51         -0.829306        1.000000        0.00000003        0.00000000        0.00000000        0.00000000
      52         -0.828541        1.000000        0.00000055        0.00000000        0.00000000        0.00000000
      53         -0.826784        1.000000        0.00023986        0.00000245        0.00000130        0.00000010
      54         -0.825285        1.000000        0.00000003        0.00000000        0.00000000        0.00000002
      55         -0.824417        1.000000        0.00000009        0.00000000        0.00000000        0.00000000
      56         -0.822296        1.000000        0.05249795        0.00074762        0.00047104        0.00000067
      57         -0.820841        1.000000        0.53887211        0.00164151        0.00002628        0.00030484
      58         -0.817303        1.000000        0.00000000        0.00000000        0.00000000        0.00000000
      59         -0.811001        1.000000        0.05173083        0.00125438        0.00131500        0.00014261
      60         -0.652758        1.000000        0.01811816        0.00713184        0.09736851        0.08360391
      61         -0.649971        1.000000        0.01489972        0.00036471        0.06735554        0.12968271
      62         -0.637582        1.000000        0.01731861        0.00425726        0.04181984        0.14457009
      63         -0.623461        1.000000        0.02515308        0.00290223        0.00769523        0.15504774
      64         -0.606991        1.000000        0.02870776        0.01573498        0.01706435        0.12768616
      65         -0.599688        1.000000        0.00405941        0.00009705        0.00171923        0.05746899
      66         -0.599347        1.000000        0.02901858        0.00301893        0.10474392        0.05115518
      67         -0.597850        1.000000        0.00032318        0.00637545        0.00043121        0.00068292
      68         -0.592421        1.000000        0.01867337        0.00019533        0.00105445        0.11437500
      69         -0.586031        1.000000        0.00000093        0.00001028        0.00000035        0.00003267
      70         -0.558691        1.000000        0.00007943        0.00057833        0.00223342        0.00083380
      71         -0.554687        1.000000        0.00020959        0.02548931        0.00137121        0.00194403
      72         -0.554190        1.000000        0.00017159        0.00308224        0.00202465        0.00170399
      73         -0.548734        1.000000        0.00055703        0.02674879        0.01556765        0.02128884
      74         -0.547747        1.000000        0.00014906        0.00687696        0.00392485        0.00499944
      75         -0.547066        1.000000        0.00027174        0.02141147        0.03656370        0.01938149
      76         -0.545352        1.000000        0.00061620        0.04187073        0.00654991        0.00258451
      77         -0.544826        1.000000        0.00042721        0.01244381        0.02371086        0.01438314
      78         -0.543194        1.000000        0.00004732        0.01993095        0.00197634        0.00380434
      79         -0.542053        1.000000        0.00024314        0.00812623        0.00464122        0.00145594
      80         -0.541511        1.000000        0.00015094        0.01118729        0.00912153        0.00514732
      81         -0.540678        1.000000        0.00006575        0.04805476        0.01384484        0.00799517
      82         -0.540163        1.000000        0.00013839        0.02657142        0.02656152        0.01164180
      83         -0.538635        1.000000        0.00018319        0.01089689        0.01342517        0.00921429
      84         -0.538134        1.000000        0.00045894        0.02826691        0.02185876        0.01572038
      85         -0.537983        1.000000        0.00022445        0.02854849        0.02217868        0.00996220
      86         -0.537559        1.000000        0.00019237        0.03007343        0.05699815        0.03301788
      87         -0.536472        1.000000        0.00010535        0.00265109        0.01495854        0.01031244
      88         -0.535224        1.000000        0.00000764        0.00173463        0.00041150        0.00035642
      89         -0.534509        1.000000        0.00011864        0.02192454        0.00771930        0.00733658
      90         -0.532481        1.000000        0.00009448        0.00100302        0.00073892        0.00032879
      91         -0.531673        1.000000        0.00009502        0.01460848        0.01702108        0.00650595
      92         -0.531451        1.000000        0.00002230        0.02035418        0.00126354        0.00054340
      93         -0.531317        1.000000        0.00010643        0.02061699        0.00743752        0.00362994
      94         -0.530385        1.000000        0.00005178        0.00777747        0.00768644        0.00403121
      95         -0.530160        1.000000        0.00002367        0.00098108        0.00632308        0.00245891
      96         -0.529032        1.000000        0.00003160        0.00016886        0.00307845        0.00143161
      97         -0.528850        1.000000        0.00005514        0.00281000        0.00056071        0.00051946
      98         -0.527353        1.000000        0.00010168        0.05261345        0.05705793        0.03340215
      99         -0.526757        1.000000        0.00017982        0.02423107        0.11413688        0.06458377
     100         -0.524044        1.000000        0.00001264        0.00053449        0.00025133        0.00005910
     101         -0.523732        1.000000        0.00005615        0.07882125        0.00634175        0.00922766
     102         -0.521915        1.000000        0.00011776        0.20684687        0.01498855        0.00468890
     103         -0.521331        1.000000        0.00010307        0.14263217        0.01796611        0.00613280
     104         -0.520021        1.000000        0.00001931        0.01527616        0.00224820        0.00066011
     105         -0.519774        1.000000        0.00039386        0.28367399        0.05722999        0.00876427
     106         -0.512851        1.000000        0.00002381        0.29089371        0.13461609        0.08694868
     107         -0.511241        1.000000        0.00006372        0.02997984        0.16132893        0.24751658
     108         -0.505146        1.000000        0.00004433        0.19195528        0.26087958        0.03832822
     109         -0.484800        1.000000        0.00003897        0.40739516        0.15131416        0.00010828
     110         -0.482290        1.000000        0.00001409        0.00002337        0.00049609        0.00026443
     111         -0.480614        1.000000        0.00110385        0.13201453        0.34088080        0.02186437
     112         -0.478497        1.000000        0.00000040        0.00298287        0.00106131        0.00104766
     113         -0.478252        1.000000        0.00000162        0.00004455        0.00756737        0.00077065
     114         -0.476290        1.000000        0.00002470        0.01803804        0.48164035        0.04853575
     115         -0.475619        1.000000        0.00000115        0.00033172        0.00227992        0.00021905
     116         -0.475360        1.000000        0.00000049        0.00004617        0.00022601        0.00003876
     117         -0.473721        1.000000        0.00000005        0.00000019        0.00000806        0.00000106
     118         -0.471448        1.000000        0.00000268        0.30891109        0.23830974        0.00786227
     119         -0.471418        1.000000        0.00000008        0.01112082        0.00856499        0.00028054
     120         -0.471117        1.000000        0.00000159        0.00020299        0.00008998        0.00000841
     121         -0.470814        1.000000        0.00000009        0.00000573        0.00000438        0.00000123
     122         -0.469804        1.000000        0.00001418        0.00652387        0.00400239        0.00461928
     123         -0.469009        1.000000        0.00000024        0.00000388        0.00088007        0.00009501
     124         -0.466799        1.000000        0.00000018        0.00000431        0.00007053        0.00005143
     125         -0.466335        1.000000        0.00142288        0.35287501        0.01597140        0.02382313
     126         -0.465564        1.000000        0.00001837        0.00533828        0.00057657        0.00045865
     127         -0.464955        1.000000        0.00001923        0.00513099        0.00033264        0.00047151
     128         -0.464137        1.000000        0.00000223        0.00334248        0.00085281        0.00069966
     129         -0.463453        1.000000        0.00018467        0.34936837        0.08380134        0.06033839
     130         -0.461970        1.000000        0.00001305        0.00120688        0.00030332        0.00003447
     131         -0.461082        1.000000        0.00000004        0.00007081        0.00005378        0.00003498
     132         -0.460238        1.000000        0.00008097        0.00599515        0.00871420        0.00010467
     133         -0.459325        1.000000        0.00212790        0.15705255        0.23854486        0.00271766
     134         -0.457852        1.000000        0.00000032        0.00000932        0.00000075        0.00000173
     135         -0.456720        1.000000        0.00000102        0.00002742        0.00000712        0.00000182
     136         -0.456091        1.000000        0.00000145        0.00001595        0.00014157        0.00001103
     137         -0.453784        1.000000        0.00000510        0.00004006        0.00030579        0.00043193
     138         -0.452347        1.000000        0.00024614        0.00228094        0.00086327        0.00101821
     139         -0.450072        1.000000        0.00000025        0.00185434        0.00002765        0.00050364
     140         -0.448678        1.000000        0.00001890        0.00001435        0.00033503        0.00000437
     141         -0.448069        1.000000        0.00004169        0.00275485        0.00004366        0.00006447
     142         -0.446532        1.000000        0.00000733        0.00001044        0.00002936        0.00010093
     143         -0.445898        1.000000        0.00000265        0.07939496        0.02827769        0.12288763
     144         -0.441709        1.000000        0.00000081        0.00004561        0.00005686        0.00018878
     145         -0.441222        1.000000        0.00001824        0.03713941        0.05125721        0.16924839
     146         -0.440055        1.000000        0.00001706        0.00060460        0.00191254        0.00001134
     147         -0.436759        1.000000        0.00000008        0.00000165        0.00000787        0.00002333
     148         -0.434223        1.000000        0.00108370        0.03691324        0.00259614        0.00044461
     149         -0.432973        1.000000        0.00022071        0.00645141        0.01398755        0.00011035
     150         -0.432200        1.000000        0.00003606        0.00006772        0.00083031        0.00086371
     151         -0.432020        1.000000        0.00822453        0.01854064        0.21859270        0.17191391
     152         -0.431792        1.000000        0.00050091        0.00113430        0.01322425        0.01044454
     153         -0.431310        1.000000        0.00961342        0.00053612        0.15798750        0.27706800
     154         -0.428266        1.000000        0.00011458        0.00168286        0.00406070        0.00581948
     155         -0.426121        1.000000        0.00006429        0.00005355        0.00053016        0.00151831
     156         -0.422657        1.000000        0.00000184        0.00002467        0.00004706        0.00003510
     157         -0.422312        1.000000        0.00011571        0.00207121        0.00491557        0.00132220
     158         -0.419809        1.000000        0.00006847        0.00010881        0.00099306        0.00220258
     159         -0.419368        1.000000        0.00000373        0.00000238        0.00006864        0.00022139
     160         -0.419078        1.000000        0.00001089        0.00032897        0.00030407        0.00041916
     161         -0.418296        1.000000        0.00649201        0.00843942        0.06988901        0.23764094
     162         -0.417748        1.000000        0.00165677        0.00165998        0.01872698        0.06811786
     163         -0.415166        1.000000        0.00002984        0.00012271        0.00098287        0.00151810
     164         -0.412470        1.000000        0.00003758        0.00052866        0.00079440        0.00411355
     165         -0.411946        1.000000        0.00000451        0.00007084        0.00004451        0.00019646
     166         -0.410851        1.000000        0.00011468        0.00140042        0.00334279        0.01456886
     167         -0.410602        1.000000        0.00011088        0.00047161        0.00097051        0.00566461
     168         -0.408346        1.000000        0.00005665        0.00008810        0.00021628        0.00191563
     169         -0.405340        1.000000        0.00027597        0.00017227        0.00037400        0.00864535
     170         -0.401954        1.000000        0.00838780        0.00691987        0.02294348        0.38112762
     171         -0.401116        1.000000        0.00000006        0.00000140        0.00000735        0.00000654
     172         -0.399279        1.000000        0.00000133        0.00000001        0.00001284        0.00001424
     173         -0.395178        1.000000        0.00000002        0.00000027        0.00000006        0.00000119
     174         -0.394409        1.000000        0.00158704        0.01657624        0.00647214        0.00887144
     175         -0.393405        1.000000        0.00000037        0.00000353        0.00001775        0.00001031
     176         -0.393253        1.000000        0.00018537        0.00174082        0.00065503        0.00118006
     177         -0.392962        1.000000        0.00000095        0.00000566        0.00000052        0.00003479
     178         -0.388707        1.000000        0.00000007        0.00000058        0.00000370        0.00000149
     179         -0.386226        1.000000        0.00000046        0.00000165        0.00000171        0.00002778
     180         -0.384477        1.000000        0.00779998        0.02552770        0.04410943        0.34004850
     181         -0.383792        1.000000        0.00014845        0.00043210        0.00018410        0.00282688
     182         -0.377931        1.000000        0.00992067        0.00582670        0.28397673        0.12190895
     183         -0.372862        1.000000        0.00850480        0.00933528        0.00042596        0.39370165
     184         -0.371486        1.000000        0.00003877        0.03959220        0.00001093        0.00461340
     185         -0.369170        1.000000        0.00000119        0.00075775        0.00043071        0.00017906
     186         -0.368123        1.000000        0.00000252        0.00046114        0.02065608        0.02271015
     187         -0.366394        1.000000        0.00000633        0.00143521        0.02270532        0.01168185
     188         -0.365382        1.000000        0.00000211        0.03526639        0.00141592        0.00026094
     189         -0.359675        1.000000        0.00001182        0.00003377        0.00000929        0.00091434
     190         -0.356031        1.000000        0.00001138        0.00317126        0.02884828        0.00913297
     191         -0.354374        1.000000        0.00000889        0.03252588        0.00155183        0.00144538
     192         -0.351292        1.000000        0.00050276        0.00184070        0.00769094        0.00743051
     193         -0.344841        1.000000        0.00000232        0.04006401        0.01407749        0.00007888
     194         -0.343469        1.000000        0.00102511        0.00080938        0.00058191        0.02219078
     195         -0.339012        1.000000        0.00007449        0.00123421        0.00132310        0.00071985
     196         -0.331568        1.000000        0.00080984        0.00104767        0.00068800        0.00856296
     197         -0.331046        1.000000        0.00047269        0.00095118        0.00341529        0.00780338
     198         -0.330942        1.000000        0.00008038        0.00013153        0.00007363        0.00171290
     199         -0.329775        1.000000        0.00001896        0.00033721        0.04907169        0.00275904
     200         -0.323787        1.000000        0.00003786        0.00660434        0.02709444        0.00957679
     201         -0.323668        1.000000        0.00005685        0.00040234        0.00277810        0.00142454
     202         -0.317185        1.000000        0.00000038        0.00000437        0.00000190        0.00000607
     203         -0.315738        1.000000        0.00001381        0.00056673        0.00002121        0.00012833
     204         -0.315517        1.000000        0.00003595        0.01322419        0.02604693        0.00140012
     205         -0.315077        1.000000        0.00049273        0.02114346        0.00030764        0.00451564
     206         -0.309991        1.000000        0.00270127        0.01370140        0.03337466        0.01729728
     207         -0.308336        1.000000        0.00007198        0.00067597        0.00012590        0.00003308
     208         -0.306734        1.000000        0.00088184        0.02291214        0.00071931        0.00050710
     209         -0.305037        1.000000        0.00000022        0.00000257        0.00000135        0.00000009
     210         -0.303059        1.000000        0.00001409        0.00008549        0.00012045        0.00015133
     211         -0.300356        1.000000        0.00117037        0.02339995        0.01496484        0.00082377
     212         -0.299319        1.000000        0.00004199        0.00226581        0.00205102        0.00021247
     213         -0.298110        1.000000        0.00017469        0.01906159        0.00612537        0.01236678
     214         -0.291742        1.000000        0.00001307        0.00005102        0.00003238        0.00006628
     215         -0.289684        1.000000        0.00013668        0.00078733        0.00020040        0.00006582
     216         -0.289463        1.000000        0.00000234        0.00008868        0.00001166        0.00001787
     217         -0.289058        1.000000        0.00000023        0.00000299        0.00000182        0.00000182
     218         -0.281854        1.000000        0.00000053        0.00000805        0.00000112        0.00000086
     219         -0.280522        1.000000        0.00000010        0.00000399        0.00000071        0.00000054
     220         -0.277272        1.000000        0.00001196        0.00000970        0.00006413        0.00000146
     221         -0.276905        1.000000        0.00002831        0.00000022        0.00006288        0.00018224
     222         -0.276109        1.000000        0.00569398        0.07677059        0.00107291        0.02170380
     223         -0.270065        1.000000        0.00270884        0.02396623        0.01877641        0.00213265
     224         -0.269165        1.000000        0.00000353        0.00000211        0.00001357        0.00000116
     225         -0.267331        1.000000        0.00001354        0.00120328        0.00185674        0.00022424
     226         -0.261564        1.000000        0.00000603        0.00001488        0.00001191        0.00001024
     227         -0.258850        1.000000        0.01066663        0.02288480        0.05868682        0.02954138
     228         -0.252610        1.000000        0.00004177        0.00006282        0.00001830        0.00011818
     229         -0.249277        1.000000        0.00000439        0.00000717        0.00000263        0.00000567
     230         -0.247858        1.000000        0.00597629        0.00806962        0.00012956        0.02982128
     231         -0.244117        1.000000        0.00027306        0.00192443        0.00135882        0.00025544
     232         -0.244007        1.000000        0.00002875        0.00007198        0.00008249        0.00012845
     233         -0.242677        1.000000        0.00028218        0.00136946        0.00091791        0.00030271
     234         -0.241027        1.000000        0.00005384        0.00033607        0.00006279        0.00027745
     235         -0.240149        1.000000        0.00014279        0.00034549        0.00014559        0.00018510
     236         -0.240096        1.000000        0.00011146        0.00032349        0.00009833        0.00013781
     237         -0.238732        1.000000        0.00020325        0.00016377        0.00004023        0.00043796
     238         -0.237975        1.000000        0.00044590        0.00118595        0.00026018        0.00026476
     239         -0.237606        1.000000        0.00084105        0.00556223        0.00086135        0.00038747
     240         -0.237094        1.000000        0.00014168        0.00033463        0.00005788        0.00003427
     241         -0.236081        1.000000        0.00575939        0.04504141        0.00595248        0.00036551
     242         -0.235433        1.000000        0.00181059        0.01348303        0.00154565        0.00010039
     243         -0.234400        1.000000        0.00096781        0.00693849        0.00035031        0.00110634
     244         -0.234307        1.000000        0.00435705        0.03623187        0.00091858        0.00984192
     245         -0.233472        1.000000        0.00042700        0.00197723        0.00126417        0.00036507
     246         -0.233320        1.000000        0.00150986        0.00788863        0.00520007        0.00083404
     247         -0.231894        1.000000        0.00010040        0.00106791        0.00099993        0.00022881
     248         -0.230969        1.000000        0.00019750        0.00072447        0.00042315        0.00039906
     249         -0.230841        1.000000        0.00118290        0.00200463        0.00413494        0.00223245
     250         -0.230586        1.000000        0.00021398        0.00022921        0.00025835        0.00050199
     251         -0.230114        1.000000        0.00008799        0.00007917        0.00007470        0.00023317
     252         -0.229105        1.000000        0.00018035        0.00215045        0.00059222        0.00330353
     253         -0.228691        1.000000        0.00006875        0.00857593        0.00428884        0.01966150
     254         -0.227675        1.000000        0.00039341        0.00220491        0.00094229        0.00093036
     255         -0.226987        1.000000        0.00060969        0.01927138        0.00585628        0.01200486
     256         -0.226320        1.000000        0.00019845        0.00627956        0.00177458        0.00436634
     257         -0.225338        1.000000        0.00005923        0.00550176        0.00167464        0.00596859
     258         -0.224360        1.000000        0.00013570        0.00072963        0.00026932        0.00104484
     259         -0.222231        1.000000        0.00007726        0.00041880        0.00035363        0.00013780