# Projected DOS for atomic kind Pb at iteration step i = 0, E(Fermi) =    -0.140463 a.u.
#     MO Eigenvalue [a.u.]      Occupation                 s                py                pz                px
       1         -0.918269        1.000000        0.00000000        0.00000002        0.00000001        0.00000000
       2         -0.918157        1.000000        0.00000011        0.00000001        0.00000062        0.00000000
       3         -0.917318        1.000000        0.00000104        0.00001518        0.00000245        0.00000715
       4         -0.916432        1.000000        0.00000073        0.00001288        0.00000253        0.00000402
       5         -0.914802        1.000000        0.00000030        0.00000187        0.00000326        0.00000006
       6         -0.914002        1.000000        0.00000028        0.00000074        0.00000047        0.00000502
       7         -0.912278        1.000000        0.00000013        0.00000000        0.00000040        0.00000003
       8         -0.910079        1.000000        0.00000006        0.00000013        0.00000163        0.00000029
       9         -0.909540        1.000000        0.00000011        0.00000084        0.00000046        0.00000296
      10         -0.909443        1.000000        0.00000004        0.00000008        0.00000048        0.00000016
      11         -0.909377        1.000000        0.00000011        0.00000160        0.00000130        0.00000076
      12         -0.903173        1.000000        0.00000010        0.00000078        0.00000001        0.00000001
      13         -0.903132        1.000000        0.00000013        0.00000039        0.00000000        0.00000008
      14         -0.902169        1.000000        0.00000111        0.00001085        0.00001000        0.00001591
      15         -0.900055        1.000000        0.00000009        0.00000310        0.00000058        0.00000060
      16         -0.893720        1.000000        0.00000008        0.00000001        0.00000003        0.00000036
      17         -0.892677        1.000000        0.00000031        0.00000001        0.00000003        0.00000107
      18         -0.891877        1.000000        0.00000026        0.00000139        0.00000331        0.00000204
      19         -0.890806        1.000000        0.00000587        0.00001001        0.00003328        0.00007017
      20         -0.889779        1.000000        0.00000005        0.00000033        0.00000014        0.00000122
      21         -0.889494        1.000000        0.00000008        0.00000041        0.00000241        0.00000007
      22         -0.887732        1.000000        0.00000074        0.00000485        0.00000061        0.00000933
      23         -0.884232        1.000000        0.00000071        0.00000235        0.00000538        0.00000863
      24         -0.878448        1.000000        0.00000009        0.00000055        0.00000067        0.00000023
      25         -0.877974        1.000000        0.00000004        0.00000190        0.00000553        0.00000000
      26         -0.877723        1.000000        0.00000069        0.00000218        0.00001118        0.00000186
      27         -0.876671        1.000000        0.00000003        0.00000085        0.00000028        0.00000061
      28         -0.876469        1.000000        0.00000011        0.00000002        0.00000035        0.00000034
      29         -0.874404        1.000000        0.00000002        0.00000001        0.00000015        0.00000000
      30         -0.873060        1.000000        0.00000100        0.00000249        0.00000666        0.00001373
      31         -0.865516        1.000000        0.00000030        0.00000191        0.00000442        0.00000022
      32         -0.860833        1.000000        0.00000000        0.00000000        0.00000000        0.00000001
      33         -0.860658        1.000000        0.00000019        0.00000225        0.00000021        0.00000112
      34         -0.859959        1.000000        0.00000008        0.00000090        0.00000045        0.00000007
      35         -0.856833        1.000000        0.00000005        0.00000006        0.00000002        0.00000065
      36         -0.854383        1.000000        0.00000023        0.00000463        0.00000199        0.00000085
      37         -0.854297        1.000000        0.00000038        0.00000381        0.00000158        0.00000000
      38         -0.852987        1.000000        0.00000187        0.00000735        0.00001300        0.00002150
      39         -0.852686        1.000000        0.00000003        0.00000490        0.00000108        0.00000005
      40         -0.850514        1.000000        0.00000055        0.00000437        0.00000064        0.00000003
      41         -0.850084        1.000000        0.00000141        0.00000000        0.00000412        0.00000016
      42         -0.847806        1.000000        0.00000007        0.00000050        0.00000247        0.00000038
      43         -0.847271        1.000000        0.00000009        0.00000005        0.00000005        0.00000022
      44         -0.844563        1.000000        0.00000081        0.00000016        0.00000253        0.00001226
      45         -0.837239        1.000000        0.00000000        0.00000007        0.00000004        0.00000002
      46         -0.835184        1.000000        0.00000125        0.00000027        0.00000767        0.00000316
      47         -0.832556        1.000000        0.00000014        0.00000108        0.00000073        0.00000123
      48         -0.831734        1.000000        0.00000006        0.00000033        0.00000000        0.00000003
      49         -0.831299        1.000000        0.00000025        0.00000006        0.00000003        0.00000072
      50         -0.830717        1.000000        0.00000084        0.00000142        0.00000179        0.00001137
      51         -0.829306        1.000000        0.00000003        0.00000009        0.00000007        0.00000010
      52         -0.828541        1.000000        0.00000008        0.00000024        0.00000000        0.00000002
      53         -0.826784        1.000000        0.00000001        0.00000001        0.00000000        0.00000000
      54         -0.825285        1.000000        0.00000002        0.00000000        0.00000007        0.00000004
      55         -0.824417        1.000000        0.00000000        0.00000011        0.00000003        0.00000019
      56         -0.822296        1.000000        0.00000006        0.00000052        0.00000048        0.00000017
      57         -0.820841        1.000000        0.00000006        0.00000043        0.00000047        0.00000091
      58         -0.817303        1.000000        0.00000000        0.00000032        0.00000000        0.00000003
      59         -0.811001        1.000000        0.00000015        0.00000112        0.00000042        0.00000025
      60         -0.652758        1.000000        0.00003361        0.00003302        0.00002519        0.00003151
      61         -0.649971        1.000000        0.00001424        0.00001671        0.00001971        0.00000808
      62         -0.637582        1.000000        0.00001980        0.00000831        0.00001909        0.00001075
      63         -0.623461        1.000000        0.00002521        0.00002079        0.00001640        0.00000563
      64         -0.606991        1.000000        0.00018823        0.00014067        0.00016662        0.00003261
      65         -0.599688        1.000000        0.00108593        0.00051049        0.00168009        0.00001575
      66         -0.599347        1.000000        0.00004353        0.00001372        0.00000261        0.00003331
      67         -0.597850        1.000000        0.00174907        0.00008975        0.00211591        0.00134069
      68         -0.592421        1.000000        0.00067114        0.00025090        0.00070572        0.00004148
      69         -0.586031        1.000000        0.00066448        0.00000451        0.00017765        0.00100474
      70         -0.558691        1.000000        0.14309890        0.00095616        0.00756735        0.00072729
      71         -0.554687        1.000000        0.06421372        0.00039555        0.01059647        0.00212234
      72         -0.554190        1.000000        0.03711570        0.00075400        0.00678295        0.00074177
      73         -0.548734        1.000000        0.08063969        0.00055543        0.00455212        0.00893405
      74         -0.547747        1.000000        0.09235260        0.00194102        0.01236498        0.00254664
      75         -0.547066        1.000000        0.06269587        0.00548601        0.00896925        0.00275202
      76         -0.545352        1.000000        0.06551363        0.00353457        0.00723051        0.00327115
      77         -0.544826        1.000000        0.05089240        0.00564040        0.01161719        0.00354521
      78         -0.543194        1.000000        0.03343633        0.00369890        0.01056914        0.00635434
      79         -0.542053        1.000000        0.03053775        0.00182377        0.01947940        0.00299028
      80         -0.541511        1.000000        0.03190595        0.00534129        0.01487701        0.00363930
      81         -0.540678        1.000000        0.01295749        0.00250778        0.00872120        0.00540109
      82         -0.540163        1.000000        0.01144810        0.00077018        0.01095490        0.00627191
      83         -0.538635        1.000000        0.01306131        0.00100023        0.00928562        0.01074451
      84         -0.538134        1.000000        0.00879691        0.00247400        0.00355050        0.02427139
      85         -0.537983        1.000000        0.00267574        0.00188869        0.00610346        0.01134191
      86         -0.537559        1.000000        0.00424042        0.01251079        0.00292287        0.01571491
      87         -0.536472        1.000000        0.00723246        0.00301444        0.00287600        0.01523007
      88         -0.535224        1.000000        0.00154028        0.00065180        0.00234212        0.00156149
      89         -0.534509        1.000000        0.00188459        0.03354275        0.00126676        0.00602972
      90         -0.532481        1.000000        0.01864928        0.00632054        0.00866970        0.01367402
      91         -0.531673        1.000000        0.02783568        0.01336303        0.00773905        0.00757243
      92         -0.531451        1.000000        0.01043395        0.01146123        0.00109221        0.00372705
      93         -0.531317        1.000000        0.04397224        0.01131315        0.00634677        0.01171560
      94         -0.530385        1.000000        0.00271927        0.01854623        0.00088302        0.00621283
      95         -0.530160        1.000000        0.00153656        0.02532884        0.00047385        0.00280621
      96         -0.529032        1.000000        0.01562262        0.01001277        0.00193346        0.00917376
      97         -0.528850        1.000000        0.00824587        0.00733634        0.00238075        0.00404156
      98         -0.527353        1.000000        0.01778514        0.00544848        0.00144069        0.01445738
      99         -0.526757        1.000000        0.00930856        0.00605238        0.00118592        0.00897148
     100         -0.524044        1.000000        0.00017235        0.00020164        0.01214205        0.01696353
     101         -0.523732        1.000000        0.02712520        0.02418539        0.00140157        0.00011290
     102         -0.521915        1.000000        0.00251791        0.00909653        0.00515418        0.00388880
     103         -0.521331        1.000000        0.00069610        0.00572702        0.00344728        0.01678446
     104         -0.520021        1.000000        0.00038627        0.02448464        0.00363731        0.00190465
     105         -0.519774        1.000000        0.00080589        0.00309991        0.00367157        0.00316631
     106         -0.512851        1.000000        0.00297592        0.00064763        0.00159053        0.00197526
     107         -0.511241        1.000000        0.00391263        0.00083416        0.00137338        0.00502042
     108         -0.505146        1.000000        0.00480549        0.00048922        0.00503292        0.00078670
     109         -0.484800        1.000000        0.00196652        0.00049934        0.00022364        0.00003945
     110         -0.482290        1.000000        0.00298475        0.00002103        0.00108910        0.00001299
     111         -0.480614        1.000000        0.00093037        0.00028201        0.00006540        0.00004985
     112         -0.478497        1.000000        0.00007225        0.00001396        0.00000186        0.00000366
     113         -0.478252        1.000000        0.00161174        0.00002405        0.00004851        0.00071429
     114         -0.476290        1.000000        0.00043068        0.00001098        0.00008281        0.00005318
     115         -0.475619        1.000000        0.00031639        0.00001263        0.00017692        0.00004502
     116         -0.475360        1.000000        0.00291781        0.00096616        0.00001286        0.00001941
     117         -0.473721        1.000000        0.00042415        0.00000076        0.00006939        0.00000424
     118         -0.471448        1.000000        0.00022819        0.00000927        0.00001694        0.00003097
     119         -0.471418        1.000000        0.00148501        0.00006890        0.00000318        0.00048196
     120         -0.471117        1.000000        0.00019691        0.00000445        0.00008223        0.00001323
     121         -0.470814        1.000000        0.00090693        0.00009464        0.00001454        0.00004686
     122         -0.469804        1.000000        0.00286352        0.00054211        0.00002667        0.00001819
     123         -0.469009        1.000000        0.00039446        0.00003364        0.00006763        0.00001855
     124         -0.466799        1.000000        0.00055322        0.00000784        0.00000238        0.00007397
     125         -0.466335        1.000000        0.00012378        0.00000278        0.00001891        0.00000543
     126         -0.465564        1.000000        0.00324209        0.00000239        0.00007049        0.00017535
     127         -0.464955        1.000000        0.00121668        0.00012429        0.00001782        0.00005862
     128         -0.464137        1.000000        0.00185565        0.00027024        0.00000689        0.00000275
     129         -0.463453        1.000000        0.00011688        0.00005545        0.00003355        0.00008035
     130         -0.461970        1.000000        0.00079292        0.00000191        0.00009529        0.00000042
     131         -0.461082        1.000000        0.00003542        0.00000328        0.00000003        0.00000150
     132         -0.460238        1.000000        0.00164387        0.00000410        0.00015603        0.00000150
     133         -0.459325        1.000000        0.00030856        0.00000999        0.00003289        0.00002424
     134         -0.457852        1.000000        0.00000160        0.00000528        0.00001286        0.00000151
     135         -0.456720        1.000000        0.00106228        0.00001039        0.00003070        0.00014194
     136         -0.456091        1.000000        0.00368761        0.00000527        0.00001758        0.00027362
     137         -0.453784        1.000000        0.00037444        0.00000660        0.00000254        0.00002144
     138         -0.452347        1.000000        0.00001131        0.00000015        0.00000040        0.00000032
     139         -0.450072        1.000000        0.00272545        0.00018412        0.00004767        0.00000882
     140         -0.448678        1.000000        0.00276513        0.00000728        0.00014227        0.00033583
     141         -0.448069        1.000000        0.00017213        0.00000297        0.00000033        0.00001581
     142         -0.446532        1.000000        0.00073891        0.00003132        0.00008167        0.00000563
     143         -0.445898        1.000000        0.00289865        0.00017502        0.00002291        0.00000539
     144         -0.441709        1.000000        0.00009459        0.00001554        0.00002247        0.00000507
     145         -0.441222        1.000000        0.00341220        0.00010648        0.00000705        0.00000660
     146         -0.440055        1.000000        0.00007538        0.00000070        0.00002629        0.00001762
     147         -0.436759        1.000000        0.00313500        0.00008616        0.00003472        0.00012041
     148         -0.434223        1.000000        0.00141772        0.00003077        0.00007294        0.00000367
     149         -0.432973        1.000000        0.00084724        0.00001768        0.00000301        0.00000496
     150         -0.432200        1.000000        0.00618390        0.00002550        0.00000276        0.00000083
     151         -0.432020        1.000000        0.00494934        0.00001515        0.00000590        0.00012454
     152         -0.431792        1.000000        0.00146689        0.00000288        0.00001819        0.00000764
     153         -0.431310        1.000000        0.00429205        0.00004137        0.00003988        0.00001261
     154         -0.428266        1.000000        0.01306299        0.00012364        0.00001131        0.00008281
     155         -0.426121        1.000000        0.66182271        0.00111360        0.00044463        0.00053086
     156         -0.422657        1.000000        0.02296126        0.00003988        0.00006480        0.00001771
     157         -0.422312        1.000000        0.04492631        0.00005847        0.00002937        0.00004221
     158         -0.419809        1.000000        0.37769014        0.00054961        0.00011988        0.00034876
     159         -0.419368        1.000000        0.00965880        0.00001424        0.00000680        0.00001586
     160         -0.419078        1.000000        0.43296991        0.00074758        0.00021875        0.00019110
     161         -0.418296        1.000000        0.17020069        0.00007710        0.00018498        0.00010869
     162         -0.417748        1.000000        0.51953721        0.00055473        0.00018878        0.00035264
     163         -0.415166        1.000000        0.59929751        0.00030215        0.00014239        0.00007459
     164         -0.412470        1.000000        0.70480991        0.00041378        0.00037326        0.00076381
     165         -0.411946        1.000000        0.18550333        0.00016265        0.00021085        0.00003713
     166         -0.410851        1.000000        0.69531542        0.00033580        0.00019643        0.00021204
     167         -0.410602        1.000000        0.71536640        0.00028267        0.00027895        0.00025351
     168         -0.408346        1.000000        0.38856825        0.00014141        0.00013776        0.00009146
     169         -0.405340        1.000000        0.40244841        0.00008937        0.00014269        0.00016183
     170         -0.401954        1.000000        0.01947309        0.00003553        0.00001746        0.00000068
     171         -0.401116        1.000000        0.00198033        0.00003013        0.00000059        0.00000189
     172         -0.399279        1.000000        0.00002787        0.00000020        0.00000007        0.00000065
     173         -0.395178        1.000000        0.00018485        0.00000272        0.00000035        0.00000207
     174         -0.394409        1.000000        0.00056053        0.00001416        0.00000195        0.00000165
     175         -0.393405        1.000000        0.00007445        0.00000037        0.00000105        0.00000554
     176         -0.393253        1.000000        0.00139424        0.00012538        0.00000057        0.00000347
     177         -0.392962        1.000000        0.00010621        0.00000808        0.00001162        0.00000283
     178         -0.388707        1.000000        0.00001009        0.00000123        0.00000003        0.00000172
     179         -0.386226        1.000000        0.00033843        0.00003856        0.00000471        0.00000740
     180         -0.384477        1.000000        0.00040350        0.00009564        0.00006601        0.00004255
     181         -0.383792        1.000000        0.00003403        0.00000325        0.00000023        0.00000020
     182         -0.377931        1.000000        0.00019843        0.00002653        0.00000763        0.00002116
     183         -0.372862        1.000000        0.00017515        0.00006328        0.00005951        0.00006521
     184         -0.371486        1.000000        0.00083330        0.00001383        0.00002917        0.00010821
     185         -0.369170        1.000000        0.00014507        0.00003276        0.00005122        0.00003435
     186         -0.368123        1.000000        0.00035832        0.00001954        0.00002848        0.00013361
     187         -0.366394        1.000000        0.00051973        0.00010137        0.00005552        0.00000941
     188         -0.365382        1.000000        0.00030630        0.00004275        0.00007626        0.00002983
     189         -0.359675        1.000000        0.00059387        0.00016300        0.00029633        0.00003095
     190         -0.356031        1.000000        0.00060194        0.00001270        0.00012666        0.00004788
     191         -0.354374        1.000000        0.00043162        0.00001755        0.00012986        0.00001705
     192         -0.351292        1.000000        0.00003229        0.00000690        0.00002637        0.00000289
     193         -0.344841        1.000000        0.00004783        0.00004141        0.00006290        0.00001490
     194         -0.343469        1.000000        0.00058563        0.00043718        0.00072805        0.00015126
     195         -0.339012        1.000000        0.00003324        0.00000517        0.00007519        0.00006624
     196         -0.331568        1.000000        0.00030725        0.00005163        0.00004631        0.00009022
     197         -0.331046        1.000000        0.00017826        0.00009954        0.00006714        0.00015751
     198         -0.330942        1.000000        0.00019679        0.00002420        0.00042695        0.00012854
     199         -0.329775        1.000000        0.00055614        0.00078391        0.00067018        0.00008342
     200         -0.323787        1.000000        0.00003702        0.00001061        0.00001125        0.00005205
     201         -0.323668        1.000000        0.00020872        0.00003995        0.00022475        0.00005990
     202         -0.317185        1.000000        0.00000826        0.00026571        0.00009529        0.00001598
     203         -0.315738        1.000000        0.00027229        0.00025755        0.00007083        0.00002834
     204         -0.315517        1.000000        0.00039730        0.00043460        0.00045404        0.00040678
     205         -0.315077        1.000000        0.00004174        0.00011010        0.00005679        0.00004012
     206         -0.309991        1.000000        0.00000732        0.00000489        0.00008204        0.00000881
     207         -0.308336        1.000000        0.00140937        0.00003806        0.00120863        0.00190478
     208         -0.306734        1.000000        0.00020160        0.00015173        0.00001338        0.00009150
     209         -0.305037        1.000000        0.00000712        0.00000047        0.00001141        0.00000424
     210         -0.303059        1.000000        0.00006159        0.00011492        0.00011050        0.00010181
     211         -0.300356        1.000000        0.00042361        0.00019622        0.00008399        0.00003845
     212         -0.299319        1.000000        0.00079701        0.00062885        0.00299347        0.00013096
     213         -0.298110        1.000000        0.00013657        0.00019429        0.00003619        0.00012515
     214         -0.291742        1.000000        0.00001556        0.00005045        0.00052644        0.00012719
     215         -0.289684        1.000000        0.00048823        0.00057926        0.00103451        0.00256258
     216         -0.289463        1.000000        0.00007224        0.00033686        0.00012766        0.00032660
     217         -0.289058        1.000000        0.00008652        0.00020110        0.00000730        0.00004928
     218         -0.281854        1.000000        0.00010178        0.00002460        0.00001956        0.00018280
     219         -0.280522        1.000000        0.00000465        0.00000848        0.00000205        0.00001514
     220         -0.277272        1.000000        0.00000193        0.00000561        0.00007009        0.00000364
     221         -0.276905        1.000000        0.00001254        0.00009838        0.00018535        0.00049741
     222         -0.276109        1.000000        0.00006823        0.00012020        0.00022335        0.00039769
     223         -0.270065        1.000000        0.00008421        0.00018457        0.00251412        0.00013500
     224         -0.269165        1.000000        0.00015208        0.00071240        0.00129457        0.00041201
     225         -0.267331        1.000000        0.00046727        0.00119250        0.00353839        0.00023404
     226         -0.261564        1.000000        0.00003134        0.00128432        0.00462567        0.00031030
     227         -0.258850        1.000000        0.00002116        0.00023669        0.00004399        0.00004414
     228         -0.252610        1.000000        0.00006299        0.00069666        0.00557023        0.00063421
     229         -0.249277        1.000000        0.00001637        0.00097559        0.00114405        0.00002301
     230         -0.247858        1.000000        0.00016779        0.00100072        0.00009339        0.00057463
     231         -0.244117        1.000000        0.00013959        0.00492766        0.00673341        0.00535135
     232         -0.244007        1.000000        0.00005651        0.00268541        0.00032621        0.00039192
     233         -0.242677        1.000000        0.00028776        0.01497521        0.01813397        0.01606170
     234         -0.241027        1.000000        0.00065556        0.03282514        0.05640706        0.02329320
     235         -0.240149        1.000000        0.00031656        0.03050619        0.04205718        0.01883586
     236         -0.240096        1.000000        0.00035852        0.02145612        0.03576996        0.01361602
     237         -0.238732        1.000000        0.00006914        0.00424718        0.00062068        0.00100067
     238         -0.237975        1.000000        0.00041475        0.01073956        0.01501777        0.00784481
     239         -0.237606        1.000000        0.00113559        0.00651720        0.04197053        0.03102803
     240         -0.237094        1.000000        0.00009901        0.00064037        0.00942884        0.00454217
     241         -0.236081        1.000000        0.00032398        0.03920672        0.02126959        0.01958605
     242         -0.235433        1.000000        0.00080852        0.01371259        0.02273278        0.04202853
     243         -0.234400        1.000000        0.00055008        0.05431634        0.01759612        0.01161308
     244         -0.234307        1.000000        0.00012693        0.00791854        0.00220555        0.00124650
     245         -0.233472        1.000000        0.00008339        0.00338122        0.01582767        0.00106471
     246         -0.233320        1.000000        0.00007141        0.00426777        0.01074989        0.00276839
     247         -0.231894        1.000000        0.00096993        0.00716032        0.06442246        0.00866929
     248         -0.230969        1.000000        0.00012376        0.00622979        0.01050422        0.00518012
     249         -0.230841        1.000000        0.00005872        0.00028841        0.00106005        0.00032430
     250         -0.230586        1.000000        0.00073495        0.02638492        0.01651548        0.04751379
     251         -0.230114        1.000000        0.00062330        0.03516384        0.01300705        0.04080509
     252         -0.229105        1.000000        0.00064128        0.03836147        0.04756525        0.02088515
     253         -0.228691        1.000000        0.00068915        0.03169379        0.02489119        0.02589470
     254         -0.227675        1.000000        0.00216792        0.04871125        0.01516805        0.08314833
     255         -0.226987        1.000000        0.00116676        0.02105845        0.00425015        0.05767680
     256         -0.226320        1.000000        0.00156237        0.03801049        0.04651398        0.06590629
     257         -0.225338        1.000000        0.00079357        0.01223040        0.05111442        0.06763341
     258         -0.224360        1.000000        0.00049975        0.05181414        0.03850558        0.07417629
     259         -0.222231        1.000000        0.00052004        0.06396308        0.01961363        0.02185677