# Projected DOS for atomic kind O at iteration step i = 0, E(Fermi) =    -0.140801 a.u.
#     MO Eigenvalue [a.u.]      Occupation                 s                py                pz                px
       1         -0.918289        1.000000        0.70423450        0.01552253        0.02616617        0.00073456
       2         -0.918184        1.000000        0.71280441        0.00172444        0.00372969        0.02633124
       3         -0.917336        1.000000        0.71428174        0.00692476        0.00112057        0.01507716
       4         -0.916464        1.000000        0.70724177        0.02214218        0.01157832        0.00408982
       5         -0.914818        1.000000        0.71204900        0.01730585        0.01023558        0.00032271
       6         -0.914021        1.000000        0.70844843        0.00235031        0.00210795        0.02251293
       7         -0.912293        1.000000        0.70810890        0.01106077        0.00439836        0.02245313
       8         -0.910096        1.000000        0.70831651        0.00168458        0.02706049        0.00609452
       9         -0.909562        1.000000        0.70915248        0.00201843        0.00054545        0.03251812
      10         -0.909462        1.000000        0.71285386        0.00244206        0.01417533        0.01128483
      11         -0.909395        1.000000        0.00004254        0.00000013        0.00000050        0.00000124
      12         -0.903188        1.000000        0.71311971        0.00240595        0.01764802        0.00998374
      13         -0.903125        1.000000        0.70347682        0.02314148        0.00432269        0.01477698
      14         -0.902194        1.000000        0.00003646        0.00000035        0.00000108        0.00000131
      15         -0.900076        1.000000        0.72552730        0.00438731        0.00294845        0.01059945
      16         -0.893753        1.000000        0.70551834        0.03445882        0.00008213        0.00541353
      17         -0.892704        1.000000        0.70354459        0.02956724        0.00893077        0.00269871
      18         -0.891893        1.000000        0.00144781        0.00001237        0.00000258        0.00002809
      19         -0.890781        1.000000        0.70606496        0.02369562        0.00044493        0.01344841
      20         -0.889801        1.000000        0.72688850        0.00679518        0.00317234        0.01877281
      21         -0.889520        1.000000        0.72399780        0.01330147        0.01568627        0.00230720
      22         -0.887757        1.000000        0.70845160        0.02578960        0.00046545        0.01071878
      23         -0.884247        1.000000        0.70747029        0.01492575        0.00553086        0.01751041
      24         -0.878472        1.000000        0.61617985        0.00919229        0.00931398        0.00397934
      25         -0.877991        1.000000        0.74775802        0.01374921        0.00277838        0.01286068
      26         -0.877738        1.000000        0.70323561        0.00895240        0.03018239        0.00237154
      27         -0.876708        1.000000        0.71820017        0.00399022        0.01226505        0.00634993
      28         -0.876491        1.000000        0.73359110        0.01258398        0.00903814        0.00811170
      29         -0.874507        1.000000        0.69597700        0.01447021        0.00114685        0.03396632
      30         -0.873102        1.000000        0.69599689        0.00832480        0.00271071        0.00781404
      31         -0.865978        1.000000        0.72794471        0.00115549        0.04230680        0.00287717
      32         -0.860847        1.000000        0.69220777        0.00636822        0.04397057        0.00006873
      33         -0.860690        1.000000        0.66779514        0.00308321        0.00680041        0.00486493
      34         -0.859985        1.000000        0.65313423        0.01060022        0.00944508        0.00567840
      35         -0.856852        1.000000        0.75586593        0.01308671        0.00332968        0.02438363
      36         -0.854409        1.000000        0.11568456        0.00405064        0.00468338        0.00240194
      37         -0.854327        1.000000        0.71457490        0.01450977        0.00964305        0.01174953
      38         -0.853025        1.000000        0.48695478        0.00709497        0.00706107        0.00473434
      39         -0.850734        1.000000        0.72496108        0.03937697        0.00638006        0.00152437
      40         -0.850517        1.000000        0.77385691        0.00367902        0.00410515        0.02874801
      41         -0.850068        1.000000        0.71050124        0.03727834        0.00226615        0.00956242
      42         -0.847880        1.000000        0.55507858        0.00374676        0.00862008        0.00771450
      43         -0.847295        1.000000        0.69195026        0.04963407        0.00050302        0.00024739
      44         -0.844903        1.000000        0.72159156        0.01106197        0.00019824        0.03406598
      45         -0.837256        1.000000        0.69209219        0.02623214        0.02135686        0.00274651
      46         -0.836957        1.000000        0.70518646        0.00202633        0.04205417        0.00471659
      47         -0.835204        1.000000        0.77597060        0.02764957        0.00635128        0.00766518
      48         -0.832598        1.000000        0.36157284        0.00386496        0.00706400        0.00618373
      49         -0.831729        1.000000        0.69594577        0.04601815        0.00040557        0.00142789
      50         -0.830752        1.000000        0.28584309        0.00997572        0.00577374        0.00155455
      51         -0.828972        1.000000        0.69368254        0.02601834        0.02379358        0.00000620
      52         -0.828492        1.000000        0.70224518        0.01816015        0.00222733        0.02844272
      53         -0.827727        1.000000        0.71193236        0.03723433        0.00215678        0.00859270
      54         -0.826564        1.000000        0.70078062        0.03907265        0.00926117        0.00014966
      55         -0.824342        1.000000        0.70669538        0.03559237        0.00329965        0.00928582
      56         -0.823512        1.000000        0.66158538        0.01256495        0.02021256        0.00623697
      57         -0.820872        1.000000        0.07586628        0.00638286        0.00225363        0.00297643
      58         -0.817522        1.000000        0.71416723        0.03857640        0.00032261        0.00944007
      59         -0.811417        1.000000        0.69070202        0.00783446        0.00904808        0.01873132
      60         -0.652791        1.000000        0.00000102        0.00000314        0.00000110        0.00000389
      61         -0.650005        1.000000        0.00000001        0.00000003        0.00000003        0.00000003
      62         -0.637610        1.000000        0.00003049        0.00005329        0.00013648        0.00045584
      63         -0.623485        1.000000        0.00013150        0.00054671        0.00127699        0.00026370
      64         -0.607032        1.000000        0.00025342        0.00175105        0.00006202        0.00006230
      65         -0.599724        1.000000        0.00192842        0.01202366        0.00281663        0.00040875
      66         -0.599381        1.000000        0.00034714        0.00206723        0.00022011        0.00140227
      67         -0.597916        1.000000        0.00577670        0.00173240        0.01133809        0.00690828
      68         -0.592449        1.000000        0.00105142        0.00623604        0.00171530        0.00016833
      69         -0.586069        1.000000        0.00123736        0.00287471        0.00363872        0.00610196
      70         -0.558703        1.000000        0.00011774        0.00012023        0.00085805        0.00032319
      71         -0.555014        1.000000        0.00026274        0.00064438        0.00036214        0.00060043
      72         -0.554545        1.000000        0.00066645        0.00493575        0.00152313        0.00039099
      73         -0.549407        1.000000        0.00013671        0.00043952        0.00015217        0.00020637
      74         -0.548070        1.000000        0.00062018        0.00103699        0.00068316        0.00142686
      75         -0.547842        1.000000        0.00044404        0.00089491        0.00172316        0.00063281
      76         -0.545876        1.000000        0.00048077        0.00053885        0.00244709        0.00082454
      77         -0.545141        1.000000        0.00038692        0.00109398        0.00212880        0.00076041
      78         -0.543479        1.000000        0.00070942        0.00286569        0.00096469        0.00182141
      79         -0.542315        1.000000        0.00028901        0.00033949        0.00126194        0.00081729
      80         -0.541760        1.000000        0.00031502        0.00108492        0.00123727        0.00102927
      81         -0.541152        1.000000        0.00049436        0.00122667        0.00245041        0.00129003
      82         -0.540562        1.000000        0.00043506        0.00142827        0.00094490        0.00149886
      83         -0.539253        1.000000        0.00026955        0.00095329        0.00085128        0.00159115
      84         -0.538577        1.000000        0.00062553        0.00076171        0.00667183        0.00244498
      85         -0.538348        1.000000        0.00046035        0.00228420        0.00098933        0.00118350
      86         -0.538060        1.000000        0.00024094        0.00038073        0.00073509        0.00071411
      87         -0.536763        1.000000        0.00054117        0.00414636        0.00103577        0.00124004
      88         -0.535289        1.000000        0.00076847        0.00123850        0.00267413        0.00470998
      89         -0.535211        1.000000        0.00019173        0.00036465        0.00041059        0.00064320
      90         -0.533158        1.000000        0.00054995        0.00046881        0.00086876        0.00331371
      91         -0.532794        1.000000        0.00034430        0.00126284        0.00137284        0.00151054
      92         -0.532483        1.000000        0.00040454        0.00195211        0.00648605        0.00133414
      93         -0.531614        1.000000        0.00051067        0.00604743        0.00195247        0.00176031
      94         -0.531517        1.000000        0.00022246        0.00039771        0.00054984        0.00089230
      95         -0.530431        1.000000        0.00017010        0.00096617        0.00049736        0.00071119
      96         -0.529584        1.000000        0.00038292        0.00327249        0.00160324        0.00281179
      97         -0.529163        1.000000        0.00093214        0.00448733        0.00384535        0.00453809
      98         -0.527843        1.000000        0.00020108        0.00052997        0.00087058        0.00051958
      99         -0.527153        1.000000        0.00033650        0.00113348        0.00137675        0.00112403
     100         -0.525919        1.000000        0.00038603        0.00010802        0.00031346        0.00131799
     101         -0.524078        1.000000        0.00057501        0.00998502        0.00238358        0.00487479
     102         -0.522929        1.000000        0.00031620        0.00257242        0.00799511        0.00166438
     103         -0.521803        1.000000        0.00004263        0.00024663        0.00046185        0.00007636
     104         -0.520318        1.000000        0.00018177        0.00012353        0.00428213        0.00080993
     105         -0.520271        1.000000        0.00052325        0.00119524        0.00240094        0.00090758
     106         -0.512899        1.000000        0.00002977        0.00007661        0.00022948        0.00012884
     107         -0.511506        1.000000        0.00006792        0.00003785        0.00351541        0.00056870
     108         -0.505322        1.000000        0.00001758        0.00004434        0.00010587        0.00017611
     109         -0.484836        1.000000        0.00000189        0.00068884        0.00098787        0.00073051
     110         -0.482346        1.000000        0.00111608        0.01300003        0.55259099        0.05282080
     111         -0.480651        1.000000        0.00087907        0.02185654        0.04835955        0.02567118
     112         -0.478529        1.000000        0.00022465        0.19448700        0.15244991        0.28577368
     113         -0.478278        1.000000        0.00242848        0.27896667        0.04603446        0.29160555
     114         -0.476330        1.000000        0.00009962        0.01344874        0.00569518        0.00986238
     115         -0.475655        1.000000        0.00238245        0.21840136        0.10146029        0.32590296
     116         -0.475433        1.000000        0.00231636        0.29814063        0.23855548        0.08475207
     117         -0.473746        1.000000        0.00020046        0.03454785        0.41882261        0.18547729
     118         -0.471489        1.000000        0.00004365        0.00956672        0.00441063        0.00209027
     119         -0.471446        1.000000        0.00067898        0.48834434        0.08397375        0.04988029
     120         -0.471147        1.000000        0.00032262        0.02051466        0.20748314        0.40974799
     121         -0.470836        1.000000        0.00043986        0.01259855        0.22332487        0.40210512
     122         -0.469831        1.000000        0.00176995        0.20963822        0.30937209        0.09394952
     123         -0.469036        1.000000        0.00016917        0.40136545        0.01645615        0.22154450
     124         -0.466834        1.000000        0.00255460        0.42484624        0.07734850        0.14042403
     125         -0.466386        1.000000        0.00065482        0.14970941        0.01419429        0.04699088
     126         -0.465598        1.000000        0.00227975        0.13244613        0.15533302        0.35931666
     127         -0.464988        1.000000        0.00004741        0.09349860        0.53747956        0.00272820
     128         -0.464187        1.000000        0.00265436        0.26434235        0.14462809        0.23038453
     129         -0.463494        1.000000        0.00013715        0.04018061        0.02288742        0.02779051
     130         -0.462003        1.000000        0.00165892        0.09600866        0.43561849        0.11898728
     131         -0.461100        1.000000        0.00003404        0.02565525        0.31944116        0.29358770
     132         -0.460282        1.000000        0.00267374        0.12967143        0.03864672        0.45374263
     133         -0.459378        1.000000        0.00045124        0.07526889        0.03473689        0.09145722
     134         -0.457882        1.000000        0.00355187        0.07243736        0.42736691        0.14592018
     135         -0.456740        1.000000        0.00064405        0.10567972        0.00446736        0.51944381
     136         -0.456085        1.000000        0.00021278        0.02067442        0.04685532        0.55987656
     137         -0.453820        1.000000        0.00203183        0.25178250        0.26128728        0.14100638
     138         -0.452381        1.000000        0.00191012        0.05910264        0.28922097        0.29466399
     139         -0.450098        1.000000        0.00086914        0.12491094        0.19969403        0.29834237
     140         -0.448763        1.000000        0.00031361        0.07960375        0.32604405        0.22185313
     141         -0.448105        1.000000        0.00172119        0.09474810        0.01272200        0.53769948
     142         -0.446555        1.000000        0.00015644        0.04463624        0.30189133        0.28812269
     143         -0.445935        1.000000        0.00170005        0.13901102        0.04457153        0.19547290
     144         -0.441753        1.000000        0.00753220        0.13594505        0.09746408        0.42357752
     145         -0.441261        1.000000        0.00304846        0.03396957        0.12320825        0.19191326
     146         -0.440104        1.000000        0.00459348        0.04818852        0.16630211        0.43225279
     147         -0.436784        1.000000        0.00034963        0.06732902        0.00944331        0.55270813
     148         -0.434260        1.000000        0.00450482        0.12435036        0.43992427        0.03134923
     149         -0.433029        1.000000        0.00349965        0.09361889        0.41062347        0.13379154
     150         -0.432327        1.000000        0.00318054        0.01232689        0.08346885        0.54865751
     151         -0.432059        1.000000        0.00001798        0.02846100        0.00555028        0.01130680
     152         -0.431849        1.000000        0.00004754        0.38185533        0.06634823        0.13743524
     153         -0.431342        1.000000        0.00000630        0.00026259        0.00030533        0.00084450
     154         -0.428307        1.000000        0.00232944        0.35735091        0.16841267        0.08158614
     155         -0.426133        1.000000        0.00019827        0.00621250        0.00195708        0.02029157
     156         -0.422677        1.000000        0.00551088        0.12948248        0.00700366        0.48364187
     157         -0.422386        1.000000        0.00296086        0.03720103        0.07397002        0.47473356
     158         -0.420223        1.000000        0.00084997        0.02173562        0.09651938        0.02373843
     159         -0.419391        1.000000        0.00005433        0.04885180        0.00852777        0.56427361
     160         -0.419029        1.000000        0.00157628        0.06583034        0.26797234        0.01724724
     161         -0.418408        1.000000        0.00066310        0.02583992        0.10005705        0.00326903
     162         -0.418094        1.000000        0.00049674        0.01759923        0.06162077        0.00740712
     163         -0.415328        1.000000        0.00117046        0.08268252        0.02262823        0.02460192
     164         -0.412855        1.000000        0.00030823        0.01606682        0.00648390        0.01540362
     165         -0.412112        1.000000        0.00261343        0.28826633        0.08860755        0.08981026
     166         -0.411326        1.000000        0.00029273        0.02162112        0.00860020        0.01767743
     167         -0.410864        1.000000        0.00011142        0.00190555        0.00117608        0.00957317
     168         -0.408553        1.000000        0.00010341        0.00310888        0.00198156        0.29557035
     169         -0.405448        1.000000        0.00016433        0.00361849        0.00203837        0.30215399
     170         -0.401980        1.000000        0.00174480        0.00759128        0.00601911        0.01629379
     171         -0.401102        1.000000        0.00436193        0.09109677        0.41555796        0.12940526
     172         -0.401065        1.000000        0.00431808        0.56658905        0.02363994        0.04828929
     173         -0.395207        1.000000        0.00000410        0.18215972        0.34147053        0.10612763
     174         -0.394875        1.000000        0.00188918        0.23741577        0.03843911        0.32171695
     175         -0.394027        1.000000        0.00596384        0.12270142        0.40311309        0.11976894
     176         -0.393307        1.000000        0.00016089        0.02139029        0.13785151        0.46477195
     177         -0.393005        1.000000        0.00135364        0.00905168        0.45324428        0.17664205
     178         -0.388781        1.000000        0.00859814        0.13920582        0.03571225        0.47054001
     179         -0.386142        1.000000        0.00002672        0.10422367        0.09839154        0.42627999
     180         -0.384513        1.000000        0.00258842        0.02647560        0.01962147        0.00103769
     181         -0.383795        1.000000        0.00023520        0.02002466        0.07058448        0.53989337
     182         -0.377963        1.000000        0.00215889        0.02633053        0.00336364        0.01129453
     183         -0.372901        1.000000        0.00063650        0.02453731        0.00655186        0.01366222
     184         -0.371535        1.000000        0.00117383        0.00370101        0.00154171        0.00204595
     185         -0.369205        1.000000        0.12453313        0.31029856        0.14839725        0.19823399
     186         -0.368154        1.000000        0.00164391        0.00399994        0.00223873        0.00274918
     187         -0.366427        1.000000        0.00029063        0.00066346        0.00030582        0.00044593
     188         -0.365427        1.000000        0.00026062        0.00055925        0.00026079        0.00040132
     189         -0.359692        1.000000        0.10294613        0.25089618        0.07125630        0.30969740
     190         -0.356057        1.000000        0.00292484        0.00608061        0.00083259        0.01182398
     191         -0.354411        1.000000        0.00447431        0.00598592        0.00124153        0.02422312
     192         -0.351317        1.000000        0.01785558        0.03297858        0.06141486        0.03739467
     193         -0.344866        1.000000        0.00007234        0.00016380        0.00030188        0.00016916
     194         -0.343513        1.000000        0.02508424        0.08033384        0.07220752        0.02151787
     195         -0.339040        1.000000        0.12260145        0.25372642        0.03580362        0.34872144
     196         -0.331607        1.000000        0.07304462        0.09356645        0.05877383        0.24746750
     197         -0.331082        1.000000        0.02938266        0.10723487        0.04139259        0.04002464
     198         -0.330962        1.000000        0.10309829        0.28563609        0.12104975        0.25800197
     199         -0.329819        1.000000        0.00127972        0.00216310        0.00226374        0.00224669
     200         -0.323823        1.000000        0.00721819        0.01518798        0.00959166        0.02701032
     201         -0.323707        1.000000        0.10227324        0.04658285        0.09908589        0.38694914
     202         -0.317290        1.000000        0.14301779        0.14037410        0.37100743        0.21623965
     203         -0.315769        1.000000        0.13166605        0.25966896        0.27679310        0.20661290
     204         -0.315544        1.000000        0.00523565        0.00663863        0.00764770        0.02055664
     205         -0.315110        1.000000        0.12443520        0.07682250        0.10823874        0.44413844
     206         -0.310015        1.000000        0.12412318        0.07125929        0.37660380        0.16897438
     207         -0.308372        1.000000        0.06470080        0.17210297        0.28655699        0.13993032
     208         -0.306761        1.000000        0.13319735        0.16642271        0.35551527        0.13716602
     209         -0.305054        1.000000        0.14882905        0.23656907        0.05433407        0.45545761
     210         -0.303092        1.000000        0.06992343        0.08577482        0.07172715        0.47554966
     211         -0.300400        1.000000        0.10340181        0.09480350        0.10980908        0.36133843
     212         -0.299339        1.000000        0.07227464        0.13019195        0.14086591        0.33224364
     213         -0.298135        1.000000        0.12705963        0.17924721        0.30747974        0.16452122
     214         -0.291594        1.000000        0.14866078        0.50589087        0.13470576        0.08520533
     215         -0.289727        1.000000        0.07246345        0.15620346        0.21145943        0.18628184
     216         -0.289555        1.000000        0.14894890        0.41700486        0.03206038        0.27332007
     217         -0.289054        1.000000        0.15178980        0.30775703        0.16938322        0.26921852
     218         -0.282399        1.000000        0.15257943        0.51096994        0.16923596        0.06749552
     219         -0.280804        1.000000        0.14551310        0.50350081        0.10689400        0.13796035
     220         -0.277317        1.000000        0.14798583        0.26756380        0.08155388        0.38460550
     221         -0.276937        1.000000        0.06578460        0.18673444        0.13479552        0.22013467
     222         -0.276140        1.000000        0.11149784        0.19458947        0.14385269        0.29033005
     223         -0.270105        1.000000        0.10806256        0.12390300        0.30480948        0.25440694
     224         -0.269191        1.000000        0.15143558        0.07252574        0.59461501        0.06556905
     225         -0.267359        1.000000        0.07582306        0.20183709        0.15495272        0.32257834
     226         -0.261662        1.000000        0.10435242        0.44725246        0.32123780        0.00605828
     227         -0.258873        1.000000        0.09436969        0.17487645        0.29216042        0.21696178
     228         -0.252652        1.000000        0.07169354        0.13963511        0.34906003        0.28365075
     229         -0.249442        1.000000        0.15129471        0.23492460        0.03487828        0.45458452
     230         -0.247890        1.000000        0.07722930        0.19397749        0.19877677        0.40622176
     231         -0.244108        1.000000        0.02925737        0.54371506        0.17009932        0.15081467
     232         -0.244045        1.000000        0.03631131        0.13092909        0.57811256        0.15425690
     233         -0.242700        1.000000        0.06147496        0.34884384        0.12255570        0.18036294
     234         -0.241101        1.000000        0.01230546        0.15610396        0.23193265        0.04624028
     235         -0.240508        1.000000        0.01213217        0.48341655        0.11658821        0.11276875
     236         -0.240175        1.000000        0.00961110        0.16085632        0.22652325        0.02958644
     237         -0.238764        1.000000        0.01550520        0.20234372        0.54652204        0.10010931
     238         -0.238196        1.000000        0.03404090        0.30843781        0.10988484        0.08505275
     239         -0.237951        1.000000        0.03535689        0.34822999        0.09383951        0.09374818
     240         -0.237170        1.000000        0.00407724        0.14237565        0.14389338        0.49602030
     241         -0.236132        1.000000        0.04150308        0.21912270        0.20232088        0.12096494
     242         -0.235482        1.000000        0.03692292        0.25079702        0.21525688        0.13196559
     243         -0.234458        1.000000        0.03372140        0.27647029        0.15193071        0.18050115
     244         -0.234353        1.000000        0.03007362        0.63685676        0.10786585        0.09903143
     245         -0.233503        1.000000        0.12573757        0.13781839        0.53794545        0.03269583
     246         -0.233356        1.000000        0.07676373        0.23078941        0.45491113        0.06961263
     247         -0.232008        1.000000        0.02661685        0.17220815        0.25291751        0.11318868
     248         -0.231077        1.000000        0.01985921        0.41248753        0.07305398        0.28282930
     249         -0.230867        1.000000        0.00178665        0.23154452        0.27430036        0.45794338
     250         -0.230707        1.000000        0.01931565        0.21057311        0.22743204        0.08802043
     251         -0.230283        1.000000        0.02170580        0.24617396        0.19307187        0.09176204
     252         -0.229290        1.000000        0.01667459        0.16409163        0.08715217        0.15084538
     253         -0.228883        1.000000        0.03670211        0.24446774        0.09296270        0.18600632
     254         -0.228512        1.000000        0.02296476        0.23103236        0.09429962        0.14734745
     255         -0.227230        1.000000        0.01711126        0.28487757        0.08151760        0.22478316
     256         -0.226870        1.000000        0.01673201        0.16512556        0.11425609        0.11663196
     257         -0.225601        1.000000        0.03198902        0.17683658        0.12702611        0.06497832
     258         -0.224956        1.000000        0.01325342        0.08645401        0.14015208        0.04505105
     259         -0.223294        1.000000        0.01558419        0.12764707        0.13422663        0.06503690