# Projected DOS for atomic kind H at iteration step i = 0, E(Fermi) =    -0.140463 a.u.
#     MO Eigenvalue [a.u.]      Occupation                 s
       1         -0.918269        1.000000        0.25327248
       2         -0.918157        1.000000        0.25501104
       3         -0.917318        1.000000        0.26218386
       4         -0.916432        1.000000        0.25428081
       5         -0.914802        1.000000        0.25948373
       6         -0.914002        1.000000        0.26343518
       7         -0.912278        1.000000        0.25383523
       8         -0.910079        1.000000        0.25561682
       9         -0.909540        1.000000        0.25552844
      10         -0.909443        1.000000        0.25838968
      11         -0.909377        1.000000        0.28254653
      12         -0.903173        1.000000        0.25599517
      13         -0.903132        1.000000        0.25406888
      14         -0.902169        1.000000        0.28003329
      15         -0.900055        1.000000        0.25501792
      16         -0.893720        1.000000        0.25418929
      17         -0.892677        1.000000        0.25479232
      18         -0.891877        1.000000        0.28088555
      19         -0.890806        1.000000        0.25559325
      20         -0.889779        1.000000        0.23993733
      21         -0.889494        1.000000        0.24156291
      22         -0.887732        1.000000        0.25402726
      23         -0.884232        1.000000        0.25438188
      24         -0.878448        1.000000        0.25334999
      25         -0.877974        1.000000        0.21817699
      26         -0.877723        1.000000        0.25490464
      27         -0.876671        1.000000        0.25883404
      28         -0.876469        1.000000        0.23484655
      29         -0.874404        1.000000        0.25410998
      30         -0.873060        1.000000        0.26075645
      31         -0.865516        1.000000        0.22273784
      32         -0.860833        1.000000        0.25736455
      33         -0.860658        1.000000        0.27054560
      34         -0.859959        1.000000        0.25438216
      35         -0.856833        1.000000        0.19420206
      36         -0.854383        1.000000        0.25572345
      37         -0.854297        1.000000        0.24562601
      38         -0.852987        1.000000        0.25156564
      39         -0.852686        1.000000        0.22434976
      40         -0.850514        1.000000        0.17358543
      41         -0.850084        1.000000        0.23944935
      42         -0.847806        1.000000        0.25405399
      43         -0.847271        1.000000        0.25751799
      44         -0.844563        1.000000        0.23204299
      45         -0.837239        1.000000        0.25755162
      46         -0.835184        1.000000        0.16185334
      47         -0.832556        1.000000        0.24505847
      48         -0.831734        1.000000        0.25608281
      49         -0.831299        1.000000        0.24886752
      50         -0.830717        1.000000        0.23403861
      51         -0.829306        1.000000        0.25599818
      52         -0.828541        1.000000        0.24880588
      53         -0.826784        1.000000        0.24977850
      54         -0.825285        1.000000        0.24142634
      55         -0.824417        1.000000        0.24497382
      56         -0.822296        1.000000        0.24265774
      57         -0.820841        1.000000        0.25402312
      58         -0.817303        1.000000        0.23752112
      59         -0.811001        1.000000        0.20148868
      60         -0.652758        1.000000        0.34995029
      61         -0.649971        1.000000        0.34231551
      62         -0.637582        1.000000        0.34701234
      63         -0.623461        1.000000        0.36488079
      64         -0.606991        1.000000        0.36979605
      65         -0.599688        1.000000        0.10825147
      66         -0.599347        1.000000        0.36998835
      67         -0.597850        1.000000        0.00998378
      68         -0.592421        1.000000        0.25617817
      69         -0.586031        1.000000        0.00192475
      70         -0.558691        1.000000        0.00318056
      71         -0.554687        1.000000        0.02272935
      72         -0.554190        1.000000        0.00676192
      73         -0.548734        1.000000        0.04699243
      74         -0.547747        1.000000        0.01455480
      75         -0.547066        1.000000        0.05043296
      76         -0.545352        1.000000        0.03667885
      77         -0.544826        1.000000        0.03915074
      78         -0.543194        1.000000        0.02200845
      79         -0.542053        1.000000        0.01069287
      80         -0.541511        1.000000        0.01943823
      81         -0.540678        1.000000        0.04624695
      82         -0.540163        1.000000        0.04673554
      83         -0.538635        1.000000        0.02846682
      84         -0.538134        1.000000        0.04248282
      85         -0.537983        1.000000        0.04368913
      86         -0.537559        1.000000        0.07054594
      87         -0.536472        1.000000        0.02024231
      88         -0.535224        1.000000        0.00321887
      89         -0.534509        1.000000        0.02218064
      90         -0.532481        1.000000        0.00608646
      91         -0.531673        1.000000        0.02958864
      92         -0.531451        1.000000        0.01571126
      93         -0.531317        1.000000        0.02771639
      94         -0.530385        1.000000        0.01471431
      95         -0.530160        1.000000        0.00858743
      96         -0.529032        1.000000        0.01537042
      97         -0.528850        1.000000        0.00611295
      98         -0.527353        1.000000        0.08022242
      99         -0.526757        1.000000        0.11079320
     100         -0.524044        1.000000        0.01529648
     101         -0.523732        1.000000        0.05520430
     102         -0.521915        1.000000        0.12251233
     103         -0.521331        1.000000        0.08820124
     104         -0.520021        1.000000        0.01382906
     105         -0.519774        1.000000        0.18724910
     106         -0.512851        1.000000        0.27359394
     107         -0.511241        1.000000        0.22386173
     108         -0.505146        1.000000        0.25371834
     109         -0.484800        1.000000        0.31944380
     110         -0.482290        1.000000        0.33931489
     111         -0.480614        1.000000        0.31799755
     112         -0.478497        1.000000        0.36041934
     113         -0.478252        1.000000        0.33715149
     114         -0.476290        1.000000        0.33920497
     115         -0.475619        1.000000        0.34021764
     116         -0.475360        1.000000        0.33883768
     117         -0.473721        1.000000        0.35851261
     118         -0.471448        1.000000        0.34322631
     119         -0.471418        1.000000        0.34307725
     120         -0.471117        1.000000        0.34386144
     121         -0.470814        1.000000        0.34920792
     122         -0.469804        1.000000        0.34493527
     123         -0.469009        1.000000        0.35434402
     124         -0.466799        1.000000        0.34106899
     125         -0.466335        1.000000        0.32610704
     126         -0.465564        1.000000        0.33056464
     127         -0.464955        1.000000        0.35056541
     128         -0.464137        1.000000        0.34169089
     129         -0.463453        1.000000        0.33484548
     130         -0.461970        1.000000        0.33910278
     131         -0.461082        1.000000        0.36080989
     132         -0.460238        1.000000        0.35009695
     133         -0.459325        1.000000        0.32825469
     134         -0.457852        1.000000        0.34669840
     135         -0.456720        1.000000        0.35859086
     136         -0.456091        1.000000        0.35969863
     137         -0.453784        1.000000        0.33948895
     138         -0.452347        1.000000        0.34753048
     139         -0.450072        1.000000        0.35316179
     140         -0.448678        1.000000        0.34987178
     141         -0.448069        1.000000        0.34863904
     142         -0.446532        1.000000        0.35914668
     143         -0.445898        1.000000        0.33382314
     144         -0.441709        1.000000        0.32763232
     145         -0.441222        1.000000        0.32898656
     146         -0.440055        1.000000        0.34378773
     147         -0.436759        1.000000        0.35709133
     148         -0.434223        1.000000        0.33677351
     149         -0.432973        1.000000        0.33269836
     150         -0.432200        1.000000        0.34047661
     151         -0.432020        1.000000        0.18673072
     152         -0.431792        1.000000        0.35457981
     153         -0.431310        1.000000        0.17821623
     154         -0.428266        1.000000        0.35012030
     155         -0.426121        1.000000        0.01649971
     156         -0.422657        1.000000        0.34050123
     157         -0.422312        1.000000        0.32965358
     158         -0.419809        1.000000        0.17593218
     159         -0.419368        1.000000        0.36498498
     160         -0.419078        1.000000        0.14754609
     161         -0.418296        1.000000        0.14591811
     162         -0.417748        1.000000        0.07455314
     163         -0.415166        1.000000        0.07354764
     164         -0.412470        1.000000        0.02448493
     165         -0.411946        1.000000        0.25958573
     166         -0.410851        1.000000        0.01971380
     167         -0.410602        1.000000        0.01842637
     168         -0.408346        1.000000        0.18383321
     169         -0.405340        1.000000        0.17302619
     170         -0.401954        1.000000        0.17058630
     171         -0.401116        1.000000        0.35630310
     172         -0.399279        1.000000        0.35896512
     173         -0.395178        1.000000        0.36974555
     174         -0.394409        1.000000        0.35611319
     175         -0.393405        1.000000        0.34869101
     176         -0.393253        1.000000        0.36625448
     177         -0.392962        1.000000        0.35924753
     178         -0.388707        1.000000        0.34561953
     179         -0.386226        1.000000        0.36718596
     180         -0.384477        1.000000        0.17655895
     181         -0.383792        1.000000        0.36320597
     182         -0.377931        1.000000        0.17596959
     183         -0.372862        1.000000        0.18307516
     184         -0.371486        1.000000        0.42176846
     185         -0.369170        1.000000        0.17316452
     186         -0.368123        1.000000        0.41909392
     187         -0.366394        1.000000        0.41939389
     188         -0.365382        1.000000        0.42004242
     189         -0.359675        1.000000        0.15434911
     190         -0.356031        1.000000        0.41559458
     191         -0.354374        1.000000        0.40865572
     192         -0.351292        1.000000        0.37025992
     193         -0.344841        1.000000        0.43098395
     194         -0.343469        1.000000        0.34453034
     195         -0.339012        1.000000        0.15988125
     196         -0.331568        1.000000        0.25935604
     197         -0.331046        1.000000        0.35114197
     198         -0.330942        1.000000        0.11411756
     199         -0.329775        1.000000        0.42686020
     200         -0.323787        1.000000        0.41208173
     201         -0.323668        1.000000        0.20554286
     202         -0.317185        1.000000        0.11254010
     203         -0.315738        1.000000        0.11093295
     204         -0.315517        1.000000        0.41218550
     205         -0.315077        1.000000        0.15689652
     206         -0.309991        1.000000        0.13933506
     207         -0.308336        1.000000        0.06016868
     208         -0.306734        1.000000        0.13139676
     209         -0.305037        1.000000        0.10423644
     210         -0.303059        1.000000        0.06294094
     211         -0.300356        1.000000        0.17341996
     212         -0.299319        1.000000        0.06266377
     213         -0.298110        1.000000        0.13375727
     214         -0.291742        1.000000        0.11053791
     215         -0.289684        1.000000        0.03836903
     216         -0.289463        1.000000        0.10841118
     217         -0.289058        1.000000        0.09882850
     218         -0.281854        1.000000        0.09581804
     219         -0.280522        1.000000        0.10284848
     220         -0.277272        1.000000        0.10912776
     221         -0.276905        1.000000        0.03433533
     222         -0.276109        1.000000        0.11322923
     223         -0.270065        1.000000        0.11348808
     224         -0.269165        1.000000        0.09596470
     225         -0.267331        1.000000        0.04738292
     226         -0.261564        1.000000        0.05374892
     227         -0.258850        1.000000        0.07361467
     228         -0.252610        1.000000        0.03798789
     229         -0.249277        1.000000        0.07459757
     230         -0.247858        1.000000        0.05328709
     231         -0.244117        1.000000        0.01860208
     232         -0.244007        1.000000        0.01705798
     233         -0.242677        1.000000        0.03253687
     234         -0.241027        1.000000        0.00648350
     235         -0.240149        1.000000        0.00605075
     236         -0.240096        1.000000        0.00532949
     237         -0.238732        1.000000        0.00764405
     238         -0.237975        1.000000        0.01464317
     239         -0.237606        1.000000        0.02562378
     240         -0.237094        1.000000        0.00285887
     241         -0.236081        1.000000        0.03388152
     242         -0.235433        1.000000        0.02229142
     243         -0.234400        1.000000        0.01958616
     244         -0.234307        1.000000        0.02624618
     245         -0.233472        1.000000        0.06368633
     246         -0.233320        1.000000        0.05415115
     247         -0.231894        1.000000        0.01704114
     248         -0.230969        1.000000        0.01275599
     249         -0.230841        1.000000        0.00232051
     250         -0.230586        1.000000        0.01064100
     251         -0.230114        1.000000        0.01323480
     252         -0.229105        1.000000        0.00897365
     253         -0.228691        1.000000        0.02408624
     254         -0.227675        1.000000        0.00919215
     255         -0.226987        1.000000        0.01858119
     256         -0.226320        1.000000        0.01111640
     257         -0.225338        1.000000        0.01759406
     258         -0.224360        1.000000        0.00812764
     259         -0.222231        1.000000        0.01898283
     260         -0.222099        1.000000        0.01649765
     261         -0.221617        1.000000        0.01238724
     262         -0.221160        1.000000        0.05380901
     263         -0.219749        1.000000        0.00578904
     264         -0.218998        1.000000        0.00555772
     265         -0.218513        1.000000        0.00326214
     266         -0.217660        1.000000        0.00862715
     267         -0.217247        1.000000        0.01617762
     268         -0.216833        1.000000        0.02481415
     269         -0.216685        1.000000        0.01628491
     270         -0.216457        1.000000        0.03789522
     271         -0.215692        1.000000        0.03219724
     272         -0.215372        1.000000        0.01056353
     273         -0.214497        1.000000        0.00752393
     274         -0.213216        1.000000        0.01086332
     275         -0.212332        1.000000        0.01199879
     276         -0.212123        1.000000        0.04063236
     277         -0.212035        1.000000        0.03986029
     278         -0.211711        1.000000        0.00332527
     279         -0.211197        1.000000        0.04458615
     280         -0.210966        1.000000        0.07161912
     281         -0.210807        1.000000        0.03958874
     282         -0.210544        1.000000        0.00518840
     283         -0.209290        1.000000        0.00657126
     284         -0.208216        1.000000        0.00496414
     285         -0.207458        1.000000        0.00270255
     286         -0.206792        1.000000        0.00343098
     287         -0.206591        1.000000        0.00576259
     288         -0.205589        1.000000        0.00676549
     289         -0.205472        1.000000        0.00572681
     290         -0.205267        1.000000        0.02052532
     291         -0.204778        1.000000        0.00820791
     292         -0.203470        1.000000        0.00339903
     293         -0.202335        1.000000        0.03133841
     294         -0.201625        1.000000        0.00891662
     295         -0.201272        1.000000        0.01903444
     296         -0.201131        1.000000        0.00768493
     297         -0.200440        1.000000        0.02383762
     298         -0.200404        1.000000        0.01305111
     299         -0.199745        1.000000        0.01681369
     300         -0.199557        1.000000        0.03892717
     301         -0.198601        1.000000        0.00461408
     302         -0.197854        1.000000        0.00786270
     303         -0.195714        1.000000        0.03032296
     304         -0.194777        1.000000        0.01699864
     305         -0.193953        1.000000        0.00922397
     306         -0.192641        1.000000        0.01037393
     307         -0.192227        1.000000        0.01877946
     308         -0.192190        1.000000        0.00413271
     309         -0.191654        1.000000        0.02422442
     310         -0.190706        1.000000        0.04267608
     311         -0.190289        1.000000        0.00482743
     312         -0.189989        1.000000        0.00273303
     313         -0.189879        1.000000        0.00229576
     314         -0.189361        1.000000        0.00340572
     315         -0.188475        1.000000        0.01370331
     316         -0.186720        1.000000        0.01320231
     317         -0.186492        1.000000        0.00289225
     318         -0.185327        1.000000        0.01085401
     319         -0.184072        1.000000        0.00267968
     320         -0.182495        1.000000        0.00230970
     321         -0.182160        1.000000        0.00158314
     322         -0.181236        1.000000        0.00151258
     323         -0.180692        1.000000        0.00229299
     324         -0.179717        1.000000        0.00278147
     325         -0.179118        1.000000        0.00244368
     326         -0.178642        1.000000        0.00275931
     327         -0.177390        1.000000        0.00685995
     328         -0.176882        1.000000        0.00258788
     329         -0.175678        1.000000        0.00271669
     330         -0.175172        1.000000        0.00153566
     331         -0.174840        1.000000        0.00244171
     332         -0.174691        1.000000        0.00119747
     333         -0.174513        1.000000        0.00035158
     334         -0.174163        1.000000        0.00198688
     335         -0.173515        1.000000        0.00140286
     336         -0.172659        1.000000        0.00155175
     337         -0.172235        1.000000        0.00124494
     338         -0.171938        1.000000        0.00228083
     339         -0.171142        1.000000        0.00169188
     340         -0.170286        1.000000        0.00117086
     341         -0.170013        1.000000        0.00144739
     342         -0.168657        1.000000        0.00160768
     343         -0.168397        1.000000        0.00110077
     344         -0.167860        1.000000        0.00157124
     345         -0.166642        1.000000        0.00119329
     346         -0.166493        1.000000        0.00150359
     347         -0.166349        1.000000        0.00127409
     348         -0.165664        1.000000        0.00239503
     349         -0.165133        1.000000        0.00198933
     350         -0.164599        1.000000        0.00128484
     351         -0.164246        1.000000        0.00113446
     352         -0.163974        1.000000        0.00120281
     353         -0.163672        1.000000        0.00132767
     354         -0.163512        1.000000        0.00131673
     355         -0.162773        1.000000        0.00075853
     356         -0.162328        1.000000        0.00097436
     357         -0.161753        1.000000        0.00175403
     358         -0.161400        1.000000        0.00136736
     359         -0.161145        1.000000        0.00093234
     360         -0.160973        1.000000        0.00075847
     361         -0.160582        1.000000        0.00092362
     362         -0.160520        1.000000        0.00182166
     363         -0.160213        1.000000        0.00101156
     364         -0.159690        1.000000        0.00068014
     365         -0.159326        1.000000        0.00087358
     366         -0.159172        1.000000        0.00090624
     367         -0.158672        1.000000        0.00120234
     368         -0.158573        1.000000        0.00089336
     369         -0.158132        1.000000        0.00078264
     370         -0.157791        1.000000        0.00092518
     371         -0.156596        1.000000        0.00089744
     372         -0.156354        1.000000        0.00071344
     373         -0.156336        1.000000        0.00078940
     374         -0.155672        1.000000        0.00072901
     375         -0.154838        1.000000        0.00089729
     376         -0.154067        1.000000        0.00058560
     377         -0.153883        1.000000        0.00058362
     378         -0.153632        1.000000        0.00051827
     379         -0.152442        1.000000        0.00029492
     380         -0.152152        1.000000        0.00044812
     381         -0.151813        1.000000        0.00048719
     382         -0.150639        1.000000        0.00032189
     383         -0.150232        1.000000        0.00034210
     384         -0.149833        1.000000        0.00052823
     385         -0.149161        1.000000        0.00033340
     386         -0.148828        1.000000        0.00042882
     387         -0.148148        1.000000        0.00025485
     388         -0.147876        1.000000        0.00031013
     389         -0.147652        1.000000        0.00039783
     390         -0.147393        1.000000        0.00025440
     391         -0.146897        1.000000        0.00034048
     392         -0.146715        1.000000        0.00040848
     393         -0.146615        1.000000        0.00088205
     394         -0.145801        1.000000        0.00022134
     395         -0.145412        1.000000        0.00033058
     396         -0.144441        1.000000        0.00044581
     397         -0.144052        1.000000        0.00042394
     398         -0.143214        1.000000        0.00019357
     399         -0.142951        1.000000        0.00025376
     400         -0.142091        1.000000        0.00075686
     401         -0.141520        1.000000        0.00021393
     402         -0.140463        1.000000        0.00082995
     403         -0.140249        0.000000        0.00052323
     404         -0.139674        0.000000        0.00056169
     405         -0.138665        0.000000        0.00031406
     406         -0.136569        0.000000        0.00027489
     407         -0.101507        0.000000        0.00564382
     408         -0.097654        0.000000        0.00251983
     409         -0.090986        0.000000        0.00249847
     410         -0.033352        0.000000        0.00105289
     411         -0.028042        0.000000        0.00113705
     412         -0.025850        0.000000        0.00074161
     413         -0.023757        0.000000        0.00060473
     414         -0.021012        0.000000        0.00037120
     415         -0.018975        0.000000        0.00083972
     416         -0.015055        0.000000        0.00132381
     417         -0.012789        0.000000        0.00052610
     418         -0.011086        0.000000        0.00090054
     419         -0.006705        0.000000        0.00039080
     420         -0.006292        0.000000        0.00062009
     421         -0.003119        0.000000        0.00046527
     422         -0.001235        0.000000        0.00041621
     423          0.001397        0.000000        0.00056031
     424          0.003817        0.000000        0.00058230
     425          0.004678        0.000000        0.00067702
     426          0.005601        0.000000        0.00041920
     427          0.008296        0.000000        0.00106759
     428          0.011154        0.000000        0.00041200
     429          0.012840        0.000000        0.00047741
     430          0.020440        0.000000        0.00029477
     431          0.022163        0.000000        0.00025941
     432          0.024048        0.000000        0.00071024
     433          0.025635        0.000000        0.00059019
     434          0.132769        0.000000        0.00357162
     435          0.138779        0.000000        0.00431725
     436          0.151057        0.000000        0.00441233
     437          0.176630        0.000000        0.00704584
     438          0.202226        0.000000        0.00654192
     439          0.208388        0.000000        0.00553910
     440          0.211064        0.000000        0.00943992
     441          0.289291        0.000000        0.69622705
     442          0.295550        0.000000        0.68811947
     443          0.296158        0.000000        0.68505019
     444          0.299135        0.000000        0.67510149
     445          0.304741        0.000000        0.68913825
     446          0.305893        0.000000        0.68337990
     447          0.307210        0.000000        0.67833073
     448          0.308010        0.000000        0.68817896
     449          0.312144        0.000000        0.68019813
     450          0.313574        0.000000        0.68436023
     451          0.314275        0.000000        0.67653032
     452          0.321105        0.000000        0.66416404
     453          0.322104        0.000000        0.68252716
     454          0.322767        0.000000        0.67267733
     455          0.326320        0.000000        0.67503048
     456          0.326660        0.000000        0.67202960
     457          0.326863        0.000000        0.67278569
     458          0.328649        0.000000        0.66430829
     459          0.330862        0.000000        0.67510488
     460          0.332654        0.000000        0.67587897
     461          0.334296        0.000000        0.67034704
     462          0.337965        0.000000        0.66768957
     463          0.340281        0.000000        0.68353819
     464          0.344037        0.000000        0.66831516
     465          0.345181        0.000000        0.66647553
     466          0.348466        0.000000        0.67983698
     467          0.349860        0.000000        0.66277121
     468          0.351424        0.000000        0.66860102
     469          0.352221        0.000000        0.66895432
     470          0.352242        0.000000        0.66692790
     471          0.356403        0.000000        0.66619239
     472          0.361058        0.000000        0.65753493
     473          0.362071        0.000000        0.66262056
     474          0.364826        0.000000        0.66414710
     475          0.364985        0.000000        0.63629552
     476          0.367249        0.000000        0.66252829
     477          0.369604        0.000000        0.66122487
     478          0.369738        0.000000        0.66283113
     479          0.373935        0.000000        0.65749230
     480          0.377452        0.000000        0.65801755
     481          0.378974        0.000000        0.65007726
     482          0.379222        0.000000        0.64767785
     483          0.380598        0.000000        0.65417391
     484          0.380791        0.000000        0.64619221
     485          0.382706        0.000000        0.66105719
     486          0.383083        0.000000        0.65615164
     487          0.383977        0.000000        0.65697551
     488          0.387126        0.000000        0.64734306
     489          0.387660        0.000000        0.64788162