# Projected DOS for atomic kind I at iteration step i = 0, E(Fermi) =    -0.140801 a.u.
#     MO Eigenvalue [a.u.]      Occupation                 s                py                pz                px
       1         -0.918289        1.000000        0.00000024        0.00000086        0.00000123        0.00000046
       2         -0.918184        1.000000        0.00006826        0.00002071        0.00016647        0.00012132
       3         -0.917336        1.000000        0.00006545        0.00025024        0.00004706        0.00000665
       4         -0.916464        1.000000        0.00008373        0.00027986        0.00009901        0.00013710
       5         -0.914818        1.000000        0.00013114        0.00002270        0.00035459        0.00007892
       6         -0.914021        1.000000        0.00024987        0.00068625        0.00006015        0.00012465
       7         -0.912293        1.000000        0.00001574        0.00000749        0.00010488        0.00000834
       8         -0.910096        1.000000        0.00001157        0.00004411        0.00001862        0.00004416
       9         -0.909562        1.000000        0.00001612        0.00005808        0.00007708        0.00001918
      10         -0.909462        1.000000        0.00019799        0.00015137        0.00023470        0.00023398
      11         -0.909395        1.000000        0.00008395        0.00016861        0.00024945        0.00019088
      12         -0.903188        1.000000        0.00007072        0.00014045        0.00000842        0.00016277
      13         -0.903125        1.000000        0.00002049        0.00015037        0.00001611        0.00000461
      14         -0.902194        1.000000        0.00023580        0.00053162        0.00027989        0.00030056
      15         -0.900076        1.000000        0.00048054        0.00079714        0.00021438        0.00001452
      16         -0.893753        1.000000        0.00003934        0.00001659        0.00000251        0.00019192
      17         -0.892704        1.000000        0.00004482        0.00003480        0.00000922        0.00021951
      18         -0.891893        1.000000        0.00020154        0.00054032        0.00025799        0.00018550
      19         -0.890781        1.000000        0.00013655        0.00014024        0.00031937        0.00021403
      20         -0.889801        1.000000        0.00079965        0.00063933        0.00078409        0.00069692
      21         -0.889520        1.000000        0.00105753        0.00002666        0.00135756        0.00068910
      22         -0.887757        1.000000        0.00008326        0.00006380        0.00010403        0.00024147
      23         -0.884247        1.000000        0.00001738        0.00003778        0.00006268        0.00002680
      24         -0.878472        1.000000        0.00001801        0.00006530        0.00005770        0.00000376
      25         -0.877991        1.000000        0.00172079        0.00238495        0.00051962        0.00002684
      26         -0.877738        1.000000        0.00005322        0.00009486        0.00005145        0.00013462
      27         -0.876708        1.000000        0.00000618        0.00000464        0.00001432        0.00001929
      28         -0.876491        1.000000        0.00060249        0.00006025        0.00101558        0.00013756
      29         -0.874507        1.000000        0.00006006        0.00016573        0.00013868        0.00000055
      30         -0.873102        1.000000        0.00001218        0.00000350        0.00007657        0.00002264
      31         -0.865978        1.000000        0.00078436        0.00227942        0.00018123        0.00001160
      32         -0.860847        1.000000        0.00000061        0.00000104        0.00000129        0.00000356
      33         -0.860690        1.000000        0.00003386        0.00003112        0.00001069        0.00013920
      34         -0.859985        1.000000        0.00001572        0.00002638        0.00002371        0.00002213
      35         -0.856852        1.000000        0.00323966        0.00145918        0.00258190        0.00163918
      36         -0.854409        1.000000        0.00010147        0.00010858        0.00026402        0.00002663
      37         -0.854327        1.000000        0.00005907        0.00005603        0.00010389        0.00009444
      38         -0.853025        1.000000        0.00002054        0.00000917        0.00010412        0.00001372
      39         -0.850734        1.000000        0.00043864        0.00001248        0.00002506        0.00143404
      40         -0.850517        1.000000        0.00672367        0.00765152        0.00137530        0.00004119
      41         -0.850068        1.000000        0.00016543        0.00004006        0.00069653        0.00000426
      42         -0.847880        1.000000        0.00001642        0.00003601        0.00007815        0.00008010
      43         -0.847295        1.000000        0.00001875        0.00005304        0.00000115        0.00006493
      44         -0.844903        1.000000        0.00023493        0.00003824        0.00064223        0.00024565
      45         -0.837256        1.000000        0.00000043        0.00000072        0.00000478        0.00000068
      46         -0.836957        1.000000        0.00002837        0.00001411        0.00001902        0.00014497
      47         -0.835204        1.000000        0.00941064        0.00000274        0.00785123        0.00321252
      48         -0.832598        1.000000        0.00008051        0.00006192        0.00006775        0.00019051
      49         -0.831729        1.000000        0.00001884        0.00000975        0.00002738        0.00006079
      50         -0.830752        1.000000        0.00001732        0.00001904        0.00005177        0.00001360
      51         -0.828972        1.000000        0.00005620        0.00020757        0.00002049        0.00001600
      52         -0.828492        1.000000        0.00000812        0.00005756        0.00000297        0.00001710
      53         -0.827727        1.000000        0.00000943        0.00001853        0.00000390        0.00006979
      54         -0.826564        1.000000        0.00000037        0.00000742        0.00000102        0.00000109
      55         -0.824342        1.000000        0.00000268        0.00000029        0.00003721        0.00000822
      56         -0.823512        1.000000        0.00001961        0.00001268        0.00000937        0.00004446
      57         -0.820872        1.000000        0.00002457        0.00006587        0.00003769        0.00003034
      58         -0.817522        1.000000        0.00000926        0.00000932        0.00005703        0.00000510
      59         -0.811417        1.000000        0.00004276        0.00002818        0.00001034        0.00010092
      60         -0.652791        1.000000        0.00140185        0.00019169        0.00027097        0.00031693
      61         -0.650005        1.000000        0.00111881        0.00027382        0.00032155        0.00033102
      62         -0.637610        1.000000        0.00142633        0.00026756        0.00019876        0.00012425
      63         -0.623485        1.000000        0.00119403        0.00015752        0.00017043        0.00005527
      64         -0.607032        1.000000        0.00288383        0.00023325        0.00028267        0.00033299
      65         -0.599724        1.000000        0.66649486        0.01091361        0.00214715        0.00074473
      66         -0.599381        1.000000        0.00367633        0.00003031        0.00015029        0.00015445
      67         -0.597916        1.000000        0.92986790        0.00049139        0.01042423        0.00744077
      68         -0.592449        1.000000        0.28419523        0.00343069        0.00093058        0.00024141
      69         -0.586069        1.000000        0.95359253        0.00341733        0.01815809        0.00704569
      70         -0.558703        1.000000        0.81942075        0.00659843        0.00754234        0.00496249
      71         -0.555014        1.000000        0.85859777        0.00283331        0.00220194        0.00381496
      72         -0.554545        1.000000        0.90856067        0.00998471        0.00341504        0.00219038
      73         -0.549407        1.000000        0.77799087        0.00449427        0.00354593        0.00253502
      74         -0.548070        1.000000        0.84393907        0.00304636        0.00634287        0.00302726
      75         -0.547842        1.000000        0.79406608        0.00349531        0.00314551        0.00282818
      76         -0.545876        1.000000        0.79708877        0.00336892        0.00287960        0.00293009
      77         -0.545141        1.000000        0.83823059        0.00293008        0.00279581        0.00272340
      78         -0.543479        1.000000        0.88014829        0.00224577        0.00269571        0.00252276
      79         -0.542315        1.000000        0.90280701        0.00208021        0.00302347        0.00229169
      80         -0.541760        1.000000        0.85991273        0.00241149        0.00173107        0.00246274
      81         -0.541152        1.000000        0.84673839        0.00180334        0.00255774        0.00286253
      82         -0.540562        1.000000        0.85377173        0.00210318        0.00192067        0.00170689
      83         -0.539253        1.000000        0.87318271        0.00191556        0.00177779        0.00136521
      84         -0.538577        1.000000        0.88238304        0.00055082        0.00314944        0.00351609
      85         -0.538348        1.000000        0.80086563        0.00116520        0.00175321        0.00188047
      86         -0.538060        1.000000        0.80479683        0.00043801        0.00104716        0.00137109
      87         -0.536763        1.000000        0.93716011        0.00084488        0.00059837        0.00160082
      88         -0.535289        1.000000        0.95907066        0.00340573        0.00910992        0.00434286
      89         -0.535211        1.000000        0.93200947        0.00157997        0.00045715        0.00034718
      90         -0.533158        1.000000        0.95212842        0.00082891        0.00024210        0.00041696
      91         -0.532794        1.000000        0.92183710        0.00120494        0.00085695        0.00294368
      92         -0.532483        1.000000        0.80834353        0.00362485        0.00101885        0.00351135
      93         -0.531614        1.000000        0.89656965        0.00068448        0.00256842        0.00260375
      94         -0.531517        1.000000        0.94868702        0.00056609        0.00041074        0.00041499
      95         -0.530431        1.000000        0.90610285        0.00138394        0.00052428        0.00031329
      96         -0.529584        1.000000        0.95881633        0.00089534        0.00063778        0.00130898
      97         -0.529163        1.000000        0.91467308        0.00075202        0.00079677        0.00105448
      98         -0.527843        1.000000        0.56522966        0.00095004        0.00146295        0.00121938
      99         -0.527153        1.000000        0.76575962        0.00115681        0.00134837        0.00121161
     100         -0.525919        1.000000        0.83752820        0.00400741        0.00100897        0.00178487
     101         -0.524078        1.000000        0.93422286        0.00068420        0.00056433        0.00106211
     102         -0.522929        1.000000        0.85582813        0.00029191        0.00099558        0.00133947
     103         -0.521803        1.000000        0.40995604        0.00085289        0.00056166        0.00115706
     104         -0.520318        1.000000        0.35810712        0.00238727        0.00041399        0.00077429
     105         -0.520271        1.000000        0.89815437        0.00023534        0.00094724        0.00084872
     106         -0.512899        1.000000        0.14422482        0.00255492        0.00216930        0.00127124
     107         -0.511506        1.000000        0.23868652        0.00314515        0.00141172        0.00183393
     108         -0.505322        1.000000        0.16914611        0.00362386        0.00246230        0.00161489
     109         -0.484836        1.000000        0.02804945        0.00139476        0.00346278        0.00051353
     110         -0.482346        1.000000        0.02960285        0.00033672        0.00392851        0.00166801
     111         -0.480651        1.000000        0.01043424        0.00087092        0.00149828        0.00032873
     112         -0.478529        1.000000        0.00055490        0.00005958        0.00004893        0.00003056
     113         -0.478278        1.000000        0.02833777        0.00297826        0.00025242        0.00015026
     114         -0.476330        1.000000        0.00359687        0.00035910        0.00059815        0.00012083
     115         -0.475655        1.000000        0.00645045        0.00106073        0.00026837        0.00006430
     116         -0.475433        1.000000        0.02840815        0.00025757        0.00368835        0.00013524
     117         -0.473746        1.000000        0.00089519        0.00020531        0.00073997        0.00008231
     118         -0.471489        1.000000        0.00404848        0.00058220        0.00042456        0.00172130
     119         -0.471446        1.000000        0.01608934        0.00298284        0.00154870        0.00122367
     120         -0.471147        1.000000        0.01188086        0.00157608        0.00106672        0.00292198
     121         -0.470836        1.000000        0.00897806        0.00036313        0.00026969        0.00159674
     122         -0.469831        1.000000        0.01364612        0.00291470        0.00010752        0.00288612
     123         -0.469036        1.000000        0.00303375        0.00039670        0.00031591        0.00071185
     124         -0.466834        1.000000        0.00730492        0.00466862        0.00044712        0.00043394
     125         -0.466386        1.000000        0.00068875        0.00020404        0.00024911        0.00004520
     126         -0.465598        1.000000        0.00667845        0.00213713        0.00021968        0.00035159
     127         -0.464988        1.000000        0.00481394        0.00096686        0.00108408        0.00039927
     128         -0.464187        1.000000        0.00671048        0.00021880        0.00173099        0.00012575
     129         -0.463494        1.000000        0.00425148        0.00073847        0.00076285        0.00043551
     130         -0.462003        1.000000        0.00289778        0.00150407        0.00063659        0.00084137
     131         -0.461100        1.000000        0.00011537        0.00003025        0.00006501        0.00000993
     132         -0.460282        1.000000        0.00327908        0.00013307        0.00148811        0.00050055
     133         -0.459378        1.000000        0.00165187        0.00045136        0.00044064        0.00085638
     134         -0.457882        1.000000        0.00179540        0.00018863        0.00175863        0.00022754
     135         -0.456740        1.000000        0.00537527        0.00059043        0.00024093        0.00361271
     136         -0.456085        1.000000        0.00316057        0.00133808        0.00013172        0.00373389
     137         -0.453820        1.000000        0.00130068        0.00080186        0.00024524        0.00006579
     138         -0.452381        1.000000        0.00006237        0.00004147        0.00002643        0.00000456
     139         -0.450098        1.000000        0.01077880        0.00030864        0.00050986        0.00560780
     140         -0.448763        1.000000        0.01153185        0.00124745        0.00363211        0.00189857
     141         -0.448105        1.000000        0.00027859        0.00003609        0.00015794        0.00015517
     142         -0.446555        1.000000        0.00249970        0.00087163        0.00130362        0.00028577
     143         -0.445935        1.000000        0.00414086        0.00146937        0.00027409        0.00031052
     144         -0.441753        1.000000        0.00127050        0.00031227        0.00411761        0.00162571
     145         -0.441261        1.000000        0.00276106        0.00150725        0.00022149        0.00054982
     146         -0.440104        1.000000        0.00085277        0.00009279        0.00054575        0.00038482
     147         -0.436784        1.000000        0.00416226        0.00207856        0.00087404        0.00251922
     148         -0.434260        1.000000        0.00338036        0.00011579        0.00180072        0.00069662
     149         -0.433029        1.000000        0.00056903        0.00028064        0.00011274        0.00043962
     150         -0.432327        1.000000        0.00084776        0.00111892        0.00105100        0.00104395
     151         -0.432059        1.000000        0.00378598        0.00169933        0.00164788        0.00206619
     152         -0.431849        1.000000        0.00143993        0.00040108        0.00138994        0.00022796
     153         -0.431342        1.000000        0.00227299        0.00147673        0.00180947        0.00146471
     154         -0.428307        1.000000        0.00499001        0.00309470        0.00256318        0.00154904
     155         -0.426133        1.000000        0.16097107        0.04379275        0.03972773        0.04250165
     156         -0.422677        1.000000        0.00557033        0.00175496        0.00073502        0.00191215
     157         -0.422386        1.000000        0.00743396        0.00537132        0.00235055        0.00429139
     158         -0.420223        1.000000        0.08827859        0.03583290        0.02707919        0.03085779
     159         -0.419391        1.000000        0.00174773        0.00063220        0.00050547        0.00046340
     160         -0.419029        1.000000        0.05771037        0.02145062        0.01647495        0.01690142
     161         -0.418408        1.000000        0.05568278        0.01827395        0.01787462        0.01541609
     162         -0.418094        1.000000        0.04341749        0.01634649        0.01419842        0.01051787
     163         -0.415328        1.000000        0.10438601        0.02649021        0.02716288        0.03262709
     164         -0.412855        1.000000        0.11649372        0.03163520        0.03561203        0.03360757
     165         -0.412112        1.000000        0.04372981        0.00942049        0.01018694        0.01078198
     166         -0.411326        1.000000        0.12439977        0.02778587        0.02934133        0.02938752
     167         -0.410864        1.000000        0.13212182        0.03302498        0.03436114        0.03371175
     168         -0.408553        1.000000        0.06523157        0.01784774        0.01127198        0.02373870
     169         -0.405448        1.000000        0.07031820        0.01241551        0.01243191        0.01524397
     170         -0.401980        1.000000        0.00645760        0.00164886        0.00218660        0.00091754
     171         -0.401102        1.000000        0.00066045        0.00031227        0.00010087        0.00014418
     172         -0.401065        1.000000        0.00002495        0.00005808        0.00000291        0.00000271
     173         -0.395207        1.000000        0.00008087        0.00002781        0.00014532        0.00002896
     174         -0.394875        1.000000        0.00041636        0.00015028        0.00012472        0.00044711
     175         -0.394027        1.000000        0.00011590        0.00002293        0.00005363        0.00009930
     176         -0.393307        1.000000        0.00175839        0.00016890        0.00086461        0.00200992
     177         -0.393005        1.000000        0.00003000        0.00007847        0.00004515        0.00000916
     178         -0.388781        1.000000        0.00007263        0.00007533        0.00012875        0.00006456
     179         -0.386142        1.000000        0.00063742        0.00076072        0.00083318        0.00104956
     180         -0.384513        1.000000        0.00091285        0.00106111        0.00111466        0.00118085
     181         -0.383795        1.000000        0.00006983        0.00001980        0.00005246        0.00007758
     182         -0.377963        1.000000        0.00043605        0.00048821        0.00075114        0.00062191
     183         -0.372901        1.000000        0.00106344        0.00240271        0.00281237        0.00455296
     184         -0.371535        1.000000        0.00110230        0.00110787        0.00287953        0.00085296
     185         -0.369205        1.000000        0.00266001        0.00416438        0.01405319        0.00899212
     186         -0.368154        1.000000        0.00155986        0.00186326        0.00131819        0.00327310
     187         -0.366427        1.000000        0.00147274        0.00178156        0.00202476        0.00373710
     188         -0.365427        1.000000        0.00125548        0.00229896        0.00092535        0.00282040
     189         -0.359692        1.000000        0.00921038        0.06855902        0.02071625        0.00914622
     190         -0.356057        1.000000        0.00135628        0.00326146        0.00314926        0.00092448
     191         -0.354411        1.000000        0.00084435        0.00206452        0.00359738        0.00072722
     192         -0.351317        1.000000        0.00012666        0.00029298        0.00053753        0.00032028
     193         -0.344866        1.000000        0.00057893        0.00140191        0.00200190        0.00112008
     194         -0.343513        1.000000        0.00070071        0.00285965        0.00178630        0.00181125
     195         -0.339040        1.000000        0.00275917        0.01333757        0.01933367        0.00511894
     196         -0.331607        1.000000        0.00094507        0.00774785        0.00377590        0.00169569
     197         -0.331082        1.000000        0.00023922        0.00114905        0.00102578        0.00115745
     198         -0.330962        1.000000        0.00540353        0.07855890        0.01416376        0.00174468
     199         -0.329819        1.000000        0.00073476        0.00244710        0.00235046        0.00192362
     200         -0.323823        1.000000        0.00010966        0.00047177        0.00063557        0.00054447
     201         -0.323707        1.000000        0.00080057        0.00123426        0.00360378        0.00266751
     202         -0.317290        1.000000        0.00057613        0.00888322        0.00475106        0.00199832
     203         -0.315769        1.000000        0.00091198        0.00187331        0.00422055        0.00435376
     204         -0.315544        1.000000        0.00048144        0.00235953        0.00236010        0.00357102
     205         -0.315110        1.000000        0.00044401        0.00129582        0.00178625        0.00087866
     206         -0.310015        1.000000        0.00011730        0.00036982        0.00115128        0.00015077
     207         -0.308372        1.000000        0.00849905        0.00115747        0.16825504        0.09284196
     208         -0.306761        1.000000        0.00057515        0.00212236        0.00187375        0.00272711
     209         -0.305054        1.000000        0.00000506        0.00015743        0.00011875        0.00022964
     210         -0.303092        1.000000        0.00826854        0.04301137        0.12859772        0.04956482
     211         -0.300400        1.000000        0.00125242        0.02334758        0.00387347        0.00493672
     212         -0.299339        1.000000        0.00492321        0.20320374        0.03396059        0.00231974
     213         -0.298135        1.000000        0.00042419        0.00265772        0.00096576        0.00300762
     214         -0.291594        1.000000        0.00058063        0.00217642        0.00613546        0.00527414
     215         -0.289727        1.000000        0.00764952        0.00950813        0.18858483        0.12320605
     216         -0.289555        1.000000        0.00073815        0.00182651        0.00192028        0.01467894
     217         -0.289054        1.000000        0.00007115        0.00190378        0.00052613        0.00009401
     218         -0.282399        1.000000        0.00001159        0.00084910        0.00006497        0.00260999
     219         -0.280804        1.000000        0.00004757        0.00071253        0.00151015        0.00104107
     220         -0.277317        1.000000        0.00015991        0.00325112        0.00481426        0.00074801
     221         -0.276937        1.000000        0.01011927        0.04580178        0.17165707        0.12927909
     222         -0.276140        1.000000        0.00040712        0.00179160        0.00422741        0.00189263
     223         -0.270105        1.000000        0.00024572        0.00705645        0.00934421        0.00474327
     224         -0.269191        1.000000        0.00067793        0.00350579        0.00606382        0.00702833
     225         -0.267359        1.000000        0.00317154        0.11911697        0.03957276        0.02442501
     226         -0.261662        1.000000        0.00150229        0.02566209        0.02692087        0.00693659
     227         -0.258873        1.000000        0.00008872        0.00177327        0.00318557        0.00114462
     228         -0.252652        1.000000        0.00034693        0.01132005        0.03770695        0.06081664
     229         -0.249442        1.000000        0.00014393        0.02849605        0.01775274        0.00170154
     230         -0.247890        1.000000        0.00014555        0.00803116        0.00440208        0.00192571
     231         -0.244108        1.000000        0.00132800        0.03471258        0.01736096        0.01390107
     232         -0.244045        1.000000        0.00120353        0.04172546        0.01581895        0.01804874
     233         -0.242700        1.000000        0.00465726        0.10113935        0.06056200        0.02500592
     234         -0.241101        1.000000        0.00558521        0.12365031        0.20690867        0.09003031
     235         -0.240508        1.000000        0.00273895        0.19510020        0.02162641        0.03067003
     236         -0.240175        1.000000        0.00704757        0.14069794        0.15024565        0.12914666
     237         -0.238764        1.000000        0.00092456        0.02779856        0.06039296        0.03009750
     238         -0.238196        1.000000        0.00361371        0.13928960        0.11249735        0.12091635
     239         -0.237951        1.000000        0.00243177        0.15699047        0.07086508        0.11890847
     240         -0.237170        1.000000        0.00059878        0.09691572        0.04051060        0.05633672
     241         -0.236132        1.000000        0.00356540        0.07240159        0.07314940        0.08657503
     242         -0.235482        1.000000        0.00438312        0.02260392        0.10637690        0.10757817
     243         -0.234458        1.000000        0.00557901        0.13767758        0.07713661        0.01997311
     244         -0.234353        1.000000        0.00068309        0.01873611        0.00928528        0.00362790
     245         -0.233503        1.000000        0.00100253        0.00998122        0.05728984        0.00876357
     246         -0.233356        1.000000        0.00110321        0.01129085        0.03208521        0.03185634
     247         -0.232008        1.000000        0.00481911        0.03475841        0.24686747        0.04531560
     248         -0.231077        1.000000        0.00160242        0.09013016        0.03510561        0.03964778
     249         -0.230867        1.000000        0.00013950        0.00802114        0.00856686        0.00313995
     250         -0.230707        1.000000        0.00442661        0.11570236        0.09005721        0.13723817
     251         -0.230283        1.000000        0.00538843        0.14256162        0.07950854        0.10624258
     252         -0.229290        1.000000        0.00806422        0.17242620        0.18824023        0.06227587
     253         -0.228883        1.000000        0.00454373        0.12077701        0.07889724        0.08519579
     254         -0.228512        1.000000        0.00499518        0.18008235        0.04445163        0.12560589
     255         -0.227230        1.000000        0.00386187        0.05133551        0.06953532        0.13882161
     256         -0.226870        1.000000        0.00758112        0.12067183        0.08560516        0.20378030
     257         -0.225601        1.000000        0.00750919        0.07334567        0.17350962        0.17390708
     258         -0.224956        1.000000        0.00983097        0.11855805        0.18276066        0.22306730
     259         -0.223294        1.000000        0.00774360        0.27014405        0.06828308        0.13381314