# Projected DOS for atomic kind Pb at iteration step i = 0, E(Fermi) =    -0.140801 a.u.
#     MO Eigenvalue [a.u.]      Occupation                 s                py                pz                px
       1         -0.918289        1.000000        0.00000000        0.00000002        0.00000001        0.00000000
       2         -0.918184        1.000000        0.00000011        0.00000001        0.00000062        0.00000000
       3         -0.917336        1.000000        0.00000104        0.00001518        0.00000245        0.00000715
       4         -0.916464        1.000000        0.00000073        0.00001289        0.00000254        0.00000402
       5         -0.914818        1.000000        0.00000030        0.00000188        0.00000326        0.00000006
       6         -0.914021        1.000000        0.00000028        0.00000074        0.00000048        0.00000502
       7         -0.912293        1.000000        0.00000013        0.00000000        0.00000040        0.00000003
       8         -0.910096        1.000000        0.00000006        0.00000013        0.00000163        0.00000029
       9         -0.909562        1.000000        0.00000011        0.00000084        0.00000046        0.00000296
      10         -0.909462        1.000000        0.00000004        0.00000008        0.00000048        0.00000016
      11         -0.909395        1.000000        0.00000011        0.00000160        0.00000130        0.00000076
      12         -0.903188        1.000000        0.00000010        0.00000078        0.00000001        0.00000001
      13         -0.903125        1.000000        0.00000013        0.00000039        0.00000000        0.00000008
      14         -0.902194        1.000000        0.00000111        0.00001085        0.00001000        0.00001591
      15         -0.900076        1.000000        0.00000009        0.00000309        0.00000058        0.00000060
      16         -0.893753        1.000000        0.00000008        0.00000001        0.00000003        0.00000037
      17         -0.892704        1.000000        0.00000031        0.00000001        0.00000003        0.00000108
      18         -0.891893        1.000000        0.00000026        0.00000139        0.00000331        0.00000204
      19         -0.890781        1.000000        0.00000589        0.00000987        0.00003341        0.00007033
      20         -0.889801        1.000000        0.00000005        0.00000033        0.00000014        0.00000122
      21         -0.889520        1.000000        0.00000008        0.00000041        0.00000241        0.00000007
      22         -0.887757        1.000000        0.00000074        0.00000485        0.00000061        0.00000936
      23         -0.884247        1.000000        0.00000071        0.00000235        0.00000538        0.00000863
      24         -0.878472        1.000000        0.00000009        0.00000055        0.00000067        0.00000023
      25         -0.877991        1.000000        0.00000004        0.00000190        0.00000552        0.00000001
      26         -0.877738        1.000000        0.00000069        0.00000218        0.00001119        0.00000186
      27         -0.876708        1.000000        0.00000003        0.00000086        0.00000028        0.00000061
      28         -0.876491        1.000000        0.00000011        0.00000002        0.00000035        0.00000034
      29         -0.874507        1.000000        0.00000002        0.00000001        0.00000015        0.00000000
      30         -0.873102        1.000000        0.00000100        0.00000249        0.00000665        0.00001371
      31         -0.865978        1.000000        0.00000030        0.00000189        0.00000440        0.00000022
      32         -0.860847        1.000000        0.00000000        0.00000000        0.00000000        0.00000001
      33         -0.860690        1.000000        0.00000019        0.00000226        0.00000021        0.00000112
      34         -0.859985        1.000000        0.00000008        0.00000090        0.00000045        0.00000007
      35         -0.856852        1.000000        0.00000005        0.00000006        0.00000002        0.00000065
      36         -0.854409        1.000000        0.00000023        0.00000463        0.00000199        0.00000085
      37         -0.854327        1.000000        0.00000038        0.00000381        0.00000158        0.00000000
      38         -0.853025        1.000000        0.00000187        0.00000736        0.00001300        0.00002150
      39         -0.850734        1.000000        0.00000005        0.00000514        0.00000095        0.00000001
      40         -0.850517        1.000000        0.00000055        0.00000437        0.00000064        0.00000003
      41         -0.850068        1.000000        0.00000141        0.00000000        0.00000412        0.00000016
      42         -0.847880        1.000000        0.00000007        0.00000050        0.00000247        0.00000038
      43         -0.847295        1.000000        0.00000009        0.00000005        0.00000005        0.00000022
      44         -0.844903        1.000000        0.00000081        0.00000016        0.00000251        0.00001223
      45         -0.837256        1.000000        0.00000000        0.00000007        0.00000004        0.00000002
      46         -0.836957        1.000000        0.00000022        0.00000005        0.00000002        0.00000064
      47         -0.835204        1.000000        0.00000126        0.00000027        0.00000768        0.00000316
      48         -0.832598        1.000000        0.00000014        0.00000109        0.00000073        0.00000123
      49         -0.831729        1.000000        0.00000006        0.00000033        0.00000000        0.00000003
      50         -0.830752        1.000000        0.00000085        0.00000143        0.00000180        0.00001142
      51         -0.828972        1.000000        0.00000003        0.00000009        0.00000007        0.00000010
      52         -0.828492        1.000000        0.00000008        0.00000024        0.00000000        0.00000002
      53         -0.827727        1.000000        0.00000002        0.00000000        0.00000007        0.00000003
      54         -0.826564        1.000000        0.00000001        0.00000002        0.00000001        0.00000000
      55         -0.824342        1.000000        0.00000000        0.00000011        0.00000003        0.00000019
      56         -0.823512        1.000000        0.00000005        0.00000044        0.00000043        0.00000014
      57         -0.820872        1.000000        0.00000006        0.00000043        0.00000047        0.00000091
      58         -0.817522        1.000000        0.00000000        0.00000032        0.00000000        0.00000003
      59         -0.811417        1.000000        0.00000016        0.00000121        0.00000046        0.00000027
      60         -0.652791        1.000000        0.00003428        0.00003350        0.00002522        0.00003183
      61         -0.650005        1.000000        0.00001433        0.00001677        0.00001981        0.00000811
      62         -0.637610        1.000000        0.00001995        0.00000831        0.00001930        0.00001076
      63         -0.623485        1.000000        0.00002525        0.00002079        0.00001643        0.00000564
      64         -0.607032        1.000000        0.00019339        0.00014317        0.00016765        0.00003246
      65         -0.599724        1.000000        0.00109784        0.00051122        0.00168691        0.00001578
      66         -0.599381        1.000000        0.00004484        0.00001373        0.00000269        0.00003398
      67         -0.597916        1.000000        0.00176872        0.00009066        0.00211803        0.00134289
      68         -0.592449        1.000000        0.00068007        0.00025143        0.00070642        0.00004174
      69         -0.586069        1.000000        0.00067842        0.00000470        0.00017728        0.00100424
      70         -0.558703        1.000000        0.14307099        0.00095523        0.00756279        0.00071993
      71         -0.555014        1.000000        0.06269707        0.00042328        0.01022778        0.00228591
      72         -0.554545        1.000000        0.04296184        0.00106223        0.00635125        0.00089263
      73         -0.549407        1.000000        0.08010646        0.00059496        0.00438354        0.00905094
      74         -0.548070        1.000000        0.09107744        0.00209497        0.01212599        0.00224929
      75         -0.547842        1.000000        0.06385809        0.00530794        0.00817965        0.00269444
      76         -0.545876        1.000000        0.05826952        0.00156769        0.00896220        0.00364232
      77         -0.545141        1.000000        0.05518419        0.00752168        0.01040170        0.00376556
      78         -0.543479        1.000000        0.03754255        0.00388252        0.01004182        0.00692398
      79         -0.542315        1.000000        0.02923480        0.00185279        0.01647534        0.00297056
      80         -0.541760        1.000000        0.02592874        0.00552192        0.01657089        0.00270960
      81         -0.541152        1.000000        0.01595505        0.00299843        0.01182130        0.00461097
      82         -0.540562        1.000000        0.01295847        0.00112590        0.01131015        0.00597649
      83         -0.539253        1.000000        0.01259732        0.00078190        0.01197317        0.00796641
      84         -0.538577        1.000000        0.00238388        0.00009326        0.00668503        0.01224260
      85         -0.538348        1.000000        0.01003042        0.00558233        0.00142868        0.01932645
      86         -0.538060        1.000000        0.00269167        0.00859809        0.00176623        0.02175597
      87         -0.536763        1.000000        0.00787006        0.00253358        0.00232895        0.01836428
      88         -0.535289        1.000000        0.00195654        0.00098076        0.00249913        0.00169977
      89         -0.535211        1.000000        0.00247153        0.03668239        0.00178724        0.00435776
      90         -0.533158        1.000000        0.00120003        0.01098461        0.00035148        0.00242200
      91         -0.532794        1.000000        0.02174606        0.00539985        0.00831828        0.01414368
      92         -0.532483        1.000000        0.04990490        0.01176021        0.00374404        0.01227876
      93         -0.531614        1.000000        0.02416603        0.01309193        0.01153810        0.00822654
      94         -0.531517        1.000000        0.00129195        0.03484597        0.00243067        0.00064983
      95         -0.530431        1.000000        0.00256092        0.01073185        0.00076842        0.00418763
      96         -0.529584        1.000000        0.00609710        0.00774723        0.00052929        0.00822654
      97         -0.529163        1.000000        0.01519242        0.01089933        0.00213343        0.00911253
      98         -0.527843        1.000000        0.01358476        0.00607320        0.00103812        0.00931653
      99         -0.527153        1.000000        0.01389576        0.00370181        0.00166211        0.01320171
     100         -0.525919        1.000000        0.02342939        0.02454263        0.00155094        0.00016000
     101         -0.524078        1.000000        0.00016913        0.00019811        0.01212314        0.01698623
     102         -0.522929        1.000000        0.00391077        0.01237883        0.00105733        0.01250793
     103         -0.521803        1.000000        0.00035848        0.00148432        0.00699157        0.00882834
     104         -0.520318        1.000000        0.00080832        0.00279544        0.00350732        0.00270785
     105         -0.520271        1.000000        0.00039062        0.02334408        0.00363731        0.00204585
     106         -0.512899        1.000000        0.00311041        0.00061085        0.00158526        0.00195373
     107         -0.511506        1.000000        0.00459994        0.00054108        0.00134336        0.00479217
     108         -0.505322        1.000000        0.00501403        0.00040843        0.00479484        0.00078965
     109         -0.484836        1.000000        0.00196403        0.00049911        0.00022186        0.00003886
     110         -0.482346        1.000000        0.00304262        0.00002071        0.00105935        0.00001351
     111         -0.480651        1.000000        0.00093046        0.00028240        0.00006492        0.00004942
     112         -0.478529        1.000000        0.00007216        0.00001386        0.00000183        0.00000364
     113         -0.478278        1.000000        0.00161237        0.00002398        0.00004840        0.00071373
     114         -0.476330        1.000000        0.00043023        0.00001103        0.00008254        0.00005192
     115         -0.475655        1.000000        0.00031486        0.00001267        0.00017709        0.00004535
     116         -0.475433        1.000000        0.00281525        0.00090650        0.00001159        0.00001852
     117         -0.473746        1.000000        0.00042432        0.00000075        0.00006952        0.00000424
     118         -0.471489        1.000000        0.00018849        0.00000791        0.00001697        0.00002203
     119         -0.471446        1.000000        0.00155335        0.00006816        0.00000300        0.00049175
     120         -0.471147        1.000000        0.00019307        0.00000422        0.00008242        0.00001346
     121         -0.470836        1.000000        0.00091202        0.00009418        0.00001427        0.00004766
     122         -0.469831        1.000000        0.00287874        0.00054159        0.00002672        0.00001838
     123         -0.469036        1.000000        0.00039391        0.00003363        0.00006758        0.00001857
     124         -0.466834        1.000000        0.00055547        0.00000793        0.00000239        0.00007450
     125         -0.466386        1.000000        0.00012250        0.00000283        0.00001891        0.00000521
     126         -0.465598        1.000000        0.00324398        0.00000238        0.00007046        0.00017549
     127         -0.464988        1.000000        0.00120679        0.00012367        0.00001774        0.00005603
     128         -0.464187        1.000000        0.00181764        0.00025615        0.00000667        0.00000268
     129         -0.463494        1.000000        0.00011591        0.00005440        0.00003290        0.00007957
     130         -0.462003        1.000000        0.00079330        0.00000190        0.00009528        0.00000042
     131         -0.461100        1.000000        0.00003492        0.00000322        0.00000003        0.00000149
     132         -0.460282        1.000000        0.00169674        0.00000404        0.00015229        0.00000159
     133         -0.459378        1.000000        0.00030738        0.00000956        0.00003293        0.00002427
     134         -0.457882        1.000000        0.00000139        0.00000506        0.00001291        0.00000151
     135         -0.456740        1.000000        0.00105436        0.00001022        0.00003034        0.00013900
     136         -0.456085        1.000000        0.00385356        0.00000523        0.00001782        0.00026467
     137         -0.453820        1.000000        0.00037397        0.00000672        0.00000255        0.00002159
     138         -0.452381        1.000000        0.00001130        0.00000015        0.00000039        0.00000031
     139         -0.450098        1.000000        0.00273322        0.00018411        0.00004753        0.00000909
     140         -0.448763        1.000000        0.00281400        0.00000701        0.00014012        0.00031951
     141         -0.448105        1.000000        0.00017528        0.00000288        0.00000031        0.00001537
     142         -0.446555        1.000000        0.00073645        0.00003131        0.00008158        0.00000565
     143         -0.445935        1.000000        0.00291647        0.00017478        0.00002287        0.00000537
     144         -0.441753        1.000000        0.00010156        0.00001524        0.00002272        0.00000517
     145         -0.441261        1.000000        0.00344615        0.00010666        0.00000708        0.00000663
     146         -0.440104        1.000000        0.00009063        0.00000091        0.00002646        0.00001793
     147         -0.436784        1.000000        0.00315859        0.00008652        0.00003438        0.00012049
     148         -0.434260        1.000000        0.00145452        0.00003063        0.00007260        0.00000370
     149         -0.433029        1.000000        0.00087949        0.00001676        0.00000303        0.00000502
     150         -0.432327        1.000000        0.00629743        0.00002621        0.00000276        0.00000064
     151         -0.432059        1.000000        0.00519171        0.00001545        0.00000650        0.00012264
     152         -0.431849        1.000000        0.00139507        0.00000273        0.00001791        0.00000947
     153         -0.431342        1.000000        0.00436811        0.00004140        0.00003892        0.00001298
     154         -0.428307        1.000000        0.01318554        0.00012258        0.00001132        0.00008213
     155         -0.426133        1.000000        0.66187084        0.00111892        0.00044403        0.00053274
     156         -0.422677        1.000000        0.02391971        0.00004066        0.00006642        0.00001925
     157         -0.422386        1.000000        0.05483135        0.00005976        0.00003469        0.00005281
     158         -0.420223        1.000000        0.58464659        0.00079639        0.00017002        0.00069061
     159         -0.419391        1.000000        0.00847099        0.00000989        0.00000453        0.00001640
     160         -0.419029        1.000000        0.34132528        0.00057739        0.00018498        0.00008795
     161         -0.418408        1.000000        0.31771243        0.00024052        0.00021697        0.00016742
     162         -0.418094        1.000000        0.25496164        0.00032685        0.00013103        0.00014385
     163         -0.415328        1.000000        0.60222976        0.00030659        0.00015300        0.00007711
     164         -0.412855        1.000000        0.70522812        0.00039779        0.00037549        0.00078445
     165         -0.412112        1.000000        0.20232386        0.00017530        0.00022722        0.00004865
     166         -0.411326        1.000000        0.66049441        0.00025069        0.00016668        0.00017053
     167         -0.410864        1.000000        0.73997197        0.00034061        0.00030620        0.00032193
     168         -0.408553        1.000000        0.39501483        0.00013370        0.00013968        0.00007155
     169         -0.405448        1.000000        0.38153015        0.00008498        0.00014831        0.00017202
     170         -0.401980        1.000000        0.01872680        0.00003517        0.00001737        0.00000066
     171         -0.401102        1.000000        0.00195255        0.00003027        0.00000060        0.00000187
     172         -0.401065        1.000000        0.00004084        0.00000021        0.00000007        0.00000072
     173         -0.395207        1.000000        0.00018165        0.00000272        0.00000035        0.00000207
     174         -0.394875        1.000000        0.00044900        0.00000813        0.00000196        0.00000182
     175         -0.394027        1.000000        0.00008310        0.00000025        0.00000101        0.00000549
     176         -0.393307        1.000000        0.00150370        0.00013138        0.00000052        0.00000325
     177         -0.393005        1.000000        0.00010461        0.00000812        0.00001169        0.00000289
     178         -0.388781        1.000000        0.00001010        0.00000123        0.00000004        0.00000171
     179         -0.386142        1.000000        0.00030457        0.00003718        0.00000484        0.00000762
     180         -0.384513        1.000000        0.00039258        0.00009669        0.00006666        0.00004264
     181         -0.383795        1.000000        0.00003295        0.00000322        0.00000022        0.00000019
     182         -0.377963        1.000000        0.00019611        0.00002642        0.00000764        0.00002120
     183         -0.372901        1.000000        0.00017371        0.00006400        0.00005992        0.00006578
     184         -0.371535        1.000000        0.00080796        0.00001388        0.00002893        0.00010865
     185         -0.369205        1.000000        0.00014498        0.00003242        0.00005133        0.00003438
     186         -0.368154        1.000000        0.00034450        0.00001913        0.00002823        0.00013416
     187         -0.366427        1.000000        0.00050318        0.00010052        0.00005541        0.00000933
     188         -0.365427        1.000000        0.00029974        0.00004268        0.00007642        0.00002989
     189         -0.359692        1.000000        0.00058006        0.00016300        0.00029616        0.00003073
     190         -0.356057        1.000000        0.00058790        0.00001271        0.00012731        0.00004780
     191         -0.354411        1.000000        0.00042781        0.00001756        0.00013045        0.00001719
     192         -0.351317        1.000000        0.00003235        0.00000690        0.00002637        0.00000289
     193         -0.344866        1.000000        0.00004778        0.00004150        0.00006305        0.00001489
     194         -0.343513        1.000000        0.00058401        0.00043906        0.00072917        0.00015208
     195         -0.339040        1.000000        0.00003337        0.00000537        0.00007564        0.00006618
     196         -0.331607        1.000000        0.00029485        0.00005263        0.00004689        0.00008917
     197         -0.331082        1.000000        0.00017885        0.00009949        0.00006787        0.00015761
     198         -0.330962        1.000000        0.00019715        0.00002401        0.00042780        0.00012941
     199         -0.329819        1.000000        0.00055439        0.00078679        0.00067257        0.00008464
     200         -0.323823        1.000000        0.00003700        0.00001074        0.00001127        0.00005221
     201         -0.323707        1.000000        0.00020144        0.00004135        0.00022700        0.00006062
     202         -0.317290        1.000000        0.00000730        0.00027170        0.00009581        0.00001725
     203         -0.315769        1.000000        0.00027100        0.00025854        0.00006988        0.00002807
     204         -0.315544        1.000000        0.00039161        0.00043856        0.00045889        0.00041145
     205         -0.315110        1.000000        0.00004212        0.00011080        0.00005721        0.00004049
     206         -0.310015        1.000000        0.00000731        0.00000490        0.00008209        0.00000883
     207         -0.308372        1.000000        0.00140568        0.00003815        0.00120922        0.00190663
     208         -0.306761        1.000000        0.00020098        0.00015189        0.00001327        0.00009146
     209         -0.305054        1.000000        0.00000711        0.00000047        0.00001138        0.00000424
     210         -0.303092        1.000000        0.00006209        0.00011971        0.00011170        0.00010183
     211         -0.300400        1.000000        0.00041702        0.00019486        0.00008250        0.00003803
     212         -0.299339        1.000000        0.00080030        0.00063383        0.00301433        0.00013117
     213         -0.298135        1.000000        0.00013604        0.00019444        0.00003659        0.00012553
     214         -0.291594        1.000000        0.00001681        0.00005464        0.00054400        0.00014718
     215         -0.289727        1.000000        0.00048936        0.00058611        0.00103493        0.00256168
     216         -0.289555        1.000000        0.00007335        0.00033592        0.00012932        0.00033300
     217         -0.289054        1.000000        0.00008471        0.00020023        0.00000678        0.00004771
     218         -0.282399        1.000000        0.00010910        0.00002566        0.00002128        0.00020526
     219         -0.280804        1.000000        0.00000454        0.00000952        0.00000214        0.00001450
     220         -0.277317        1.000000        0.00000193        0.00000572        0.00006986        0.00000353
     221         -0.276937        1.000000        0.00001177        0.00010011        0.00018895        0.00050003
     222         -0.276140        1.000000        0.00006784        0.00012112        0.00022617        0.00040174
     223         -0.270105        1.000000        0.00008144        0.00019032        0.00256600        0.00013599
     224         -0.269191        1.000000        0.00015129        0.00071556        0.00130428        0.00041529
     225         -0.267359        1.000000        0.00046583        0.00120684        0.00358025        0.00024018
     226         -0.261662        1.000000        0.00002707        0.00118753        0.00453507        0.00031660
     227         -0.258873        1.000000        0.00002118        0.00023709        0.00004420        0.00004431
     228         -0.252652        1.000000        0.00006461        0.00075390        0.00565258        0.00065044
     229         -0.249442        1.000000        0.00001694        0.00109843        0.00119832        0.00002766
     230         -0.247890        1.000000        0.00016819        0.00103054        0.00009689        0.00058371
     231         -0.244108        1.000000        0.00010681        0.00543593        0.00588223        0.00504162
     232         -0.244045        1.000000        0.00007381        0.00314129        0.00099053        0.00067336
     233         -0.242700        1.000000        0.00031399        0.02076255        0.01968722        0.01899050
     234         -0.241101        1.000000        0.00065634        0.03515869        0.05953770        0.02462741
     235         -0.240508        1.000000        0.00005988        0.01269410        0.00190229        0.00252818
     236         -0.240175        1.000000        0.00060934        0.03971395        0.07195700        0.02726176
     237         -0.238764        1.000000        0.00009686        0.00416042        0.00112763        0.00163324
     238         -0.238196        1.000000        0.00076084        0.00788060        0.03413258        0.02027604
     239         -0.237951        1.000000        0.00081001        0.00670949        0.02505413        0.02165208
     240         -0.237170        1.000000        0.00009656        0.00045976        0.00996645        0.00453239
     241         -0.236132        1.000000        0.00030081        0.03928388        0.02091692        0.02006647
     242         -0.235482        1.000000        0.00079531        0.01480710        0.02349713        0.04086219
     243         -0.234458        1.000000        0.00060375        0.05637534        0.02020519        0.01218306
     244         -0.234353        1.000000        0.00013692        0.00621400        0.00173461        0.00094708
     245         -0.233503        1.000000        0.00007759        0.00304604        0.01520534        0.00117664
     246         -0.233356        1.000000        0.00006812        0.00356179        0.01044017        0.00273646
     247         -0.232008        1.000000        0.00092552        0.00809701        0.06446816        0.00848863
     248         -0.231077        1.000000        0.00026718        0.00968687        0.01280276        0.00807711
     249         -0.230867        1.000000        0.00005720        0.00033811        0.00109503        0.00027023
     250         -0.230707        1.000000        0.00067346        0.03877201        0.01438639        0.04067550
     251         -0.230283        1.000000        0.00070260        0.03564788        0.01356869        0.05014490
     252         -0.229290        1.000000        0.00067215        0.05632487        0.05739409        0.02333153
     253         -0.228883        1.000000        0.00143752        0.03043654        0.01855440        0.04877358
     254         -0.228512        1.000000        0.00209180        0.05598504        0.00724075        0.06004116
     255         -0.227230        1.000000        0.00086162        0.01266936        0.01127054        0.05613356
     256         -0.226870        1.000000        0.00153624        0.04299253        0.03639434        0.05347275
     257         -0.225601        1.000000        0.00080642        0.01191513        0.04324070        0.07243245
     258         -0.224956        1.000000        0.00032360        0.05131633        0.05115714        0.06648319
     259         -0.223294        1.000000        0.00109840        0.11470057        0.01556519        0.03546133