# Projected DOS for atomic kind N at iteration step i = 0, E(Fermi) =    -0.140801 a.u.
#     MO Eigenvalue [a.u.]      Occupation                 s                py                pz                px
       1         -0.918289        1.000000        0.00003966        0.00000332        0.00000000        0.00000474
       2         -0.918184        1.000000        0.00001702        0.00000015        0.00000019        0.00000001
       3         -0.917336        1.000000        0.00000001        0.00000000        0.00000000        0.00000000
       4         -0.916464        1.000000        0.00000000        0.00000000        0.00000000        0.00000000
       5         -0.914818        1.000000        0.00000039        0.00000001        0.00000000        0.00000000
       6         -0.914021        1.000000        0.00000125        0.00000000        0.00000001        0.00000004
       7         -0.912293        1.000000        0.00000001        0.00000000        0.00000000        0.00000000
       8         -0.910096        1.000000        0.00090165        0.00000725        0.00001810        0.00002242
       9         -0.909562        1.000000        0.00003995        0.00000137        0.00000007        0.00000041
      10         -0.909462        1.000000        0.00002047        0.00000001        0.00000000        0.00000001
      11         -0.909395        1.000000        0.61611895        0.00006253        0.00004089        0.00020003
      12         -0.903188        1.000000        0.00034471        0.00003502        0.00000984        0.00000143
      13         -0.903125        1.000000        0.00000004        0.00000000        0.00000000        0.00000000
      14         -0.902194        1.000000        0.61054611        0.00001599        0.00002902        0.00002695
      15         -0.900076        1.000000        0.00000019        0.00000000        0.00000002        0.00000004
      16         -0.893753        1.000000        0.00000213        0.00000000        0.00000000        0.00000000
      17         -0.892704        1.000000        0.00000006        0.00000001        0.00000002        0.00000001
      18         -0.891893        1.000000        0.61106841        0.00000066        0.00000467        0.00004977
      19         -0.890781        1.000000        0.00000012        0.00000000        0.00000000        0.00000000
      20         -0.889801        1.000000        0.00118399        0.00000001        0.00000024        0.00000101
      21         -0.889520        1.000000        0.00000644        0.00000008        0.00000001        0.00000001
      22         -0.887757        1.000000        0.00000093        0.00000001        0.00000000        0.00000000
      23         -0.884247        1.000000        0.00000029        0.00000000        0.00000000        0.00000000
      24         -0.878472        1.000000        0.09115350        0.00001823        0.00009019        0.00018350
      25         -0.877991        1.000000        0.00000197        0.00000000        0.00000008        0.00000016
      26         -0.877738        1.000000        0.00000009        0.00000000        0.00000000        0.00000000
      27         -0.876708        1.000000        0.00023224        0.00000222        0.00000221        0.00000029
      28         -0.876491        1.000000        0.00000126        0.00000005        0.00000000        0.00000001
      29         -0.874507        1.000000        0.00000001        0.00000000        0.00000000        0.00000000
      30         -0.873102        1.000000        0.02030806        0.00012591        0.00001216        0.00003911
      31         -0.865978        1.000000        0.00000000        0.00000000        0.00000000        0.00000000
      32         -0.860847        1.000000        0.00000001        0.00000000        0.00000000        0.00000000
      33         -0.860690        1.000000        0.03928917        0.00006801        0.00004582        0.00002100
      34         -0.859985        1.000000        0.05590823        0.00057665        0.00015032        0.00001602
      35         -0.856852        1.000000        0.00001231        0.00000000        0.00000062        0.00000183
      36         -0.854409        1.000000        0.50934076        0.00096425        0.00188751        0.00070446
      37         -0.854327        1.000000        0.00235888        0.00010545        0.00004225        0.00066029
      38         -0.853025        1.000000        0.20192007        0.00005090        0.00000487        0.00000806
      39         -0.850734        1.000000        0.00000002        0.00000000        0.00000000        0.00000000
      40         -0.850517        1.000000        0.00017156        0.00000003        0.00000088        0.00000080
      41         -0.850068        1.000000        0.00000007        0.00000000        0.00000000        0.00000000
      42         -0.847880        1.000000        0.14346228        0.00000547        0.00003017        0.00001817
      43         -0.847295        1.000000        0.00000341        0.00000000        0.00000007        0.00000004
      44         -0.844903        1.000000        0.00000001        0.00000002        0.00000001        0.00000000
      45         -0.837256        1.000000        0.00000000        0.00000000        0.00000000        0.00000000
      46         -0.836957        1.000000        0.00000528        0.00000026        0.00000003        0.00000000
      47         -0.835204        1.000000        0.00000303        0.00000093        0.00000004        0.00000014
      48         -0.832598        1.000000        0.31173731        0.00143254        0.00152149        0.00000393
      49         -0.831729        1.000000        0.00000010        0.00000000        0.00000000        0.00000000
      50         -0.830752        1.000000        0.37208544        0.00590403        0.00014988        0.00159941
      51         -0.828972        1.000000        0.00000003        0.00000000        0.00000000        0.00000000
      52         -0.828492        1.000000        0.00000056        0.00000000        0.00000000        0.00000000
      53         -0.827727        1.000000        0.00000003        0.00000000        0.00000000        0.00000002
      54         -0.826564        1.000000        0.00056646        0.00000598        0.00000316        0.00000020
      55         -0.824342        1.000000        0.00000009        0.00000000        0.00000000        0.00000000
      56         -0.823512        1.000000        0.04599824        0.00060982        0.00036421        0.00000253
      57         -0.820872        1.000000        0.53883066        0.00164088        0.00002633        0.00030473
      58         -0.817522        1.000000        0.00000000        0.00000000        0.00000000        0.00000000
      59         -0.811417        1.000000        0.05782757        0.00138582        0.00141913        0.00014128
      60         -0.652791        1.000000        0.01812568        0.00713134        0.09736024        0.08359212
      61         -0.650005        1.000000        0.01490441        0.00036422        0.06735510        0.12966349
      62         -0.637610        1.000000        0.01732020        0.00425744        0.04181946        0.14455247
      63         -0.623485        1.000000        0.02514889        0.00290233        0.00769550        0.15505816
      64         -0.607032        1.000000        0.02871320        0.01573066        0.01706989        0.12767020
      65         -0.599724        1.000000        0.00404075        0.00009698        0.00171613        0.05731876
      66         -0.599381        1.000000        0.02901345        0.00302066        0.10472389        0.05114868
      67         -0.597916        1.000000        0.00032812        0.00637432        0.00044818        0.00069196
      68         -0.592449        1.000000        0.01868643        0.00019607        0.00105720        0.11453812
      69         -0.586069        1.000000        0.00000096        0.00001043        0.00000036        0.00003307
      70         -0.558703        1.000000        0.00008193        0.00056677        0.00223311        0.00082689
      71         -0.555014        1.000000        0.00020737        0.02552005        0.00129046        0.00184864
      72         -0.554545        1.000000        0.00019838        0.00309924        0.00254994        0.00218323
      73         -0.549407        1.000000        0.00058965        0.02638827        0.01496511        0.02067454
      74         -0.548070        1.000000        0.00010475        0.00493763        0.00556539        0.00547032
      75         -0.547842        1.000000        0.00028094        0.01776514        0.02903497        0.01606702
      76         -0.545876        1.000000        0.00047929        0.04693248        0.01111180        0.00581542
      77         -0.545141        1.000000        0.00052868        0.00445449        0.02185617        0.01156151
      78         -0.543479        1.000000        0.00006663        0.01900700        0.00191539        0.00329546
      79         -0.542315        1.000000        0.00016859        0.01094478        0.00644551        0.00227532
      80         -0.541760        1.000000        0.00027649        0.02120787        0.01327360        0.00853423
      81         -0.541152        1.000000        0.00003855        0.03793834        0.01316783        0.00755719
      82         -0.540562        1.000000        0.00012652        0.02609911        0.02254144        0.00857945
      83         -0.539253        1.000000        0.00037309        0.02528463        0.00942189        0.01051451
      84         -0.538577        1.000000        0.00032091        0.02413789        0.01093794        0.00499863
      85         -0.538348        1.000000        0.00014345        0.01834205        0.04438906        0.02634348
      86         -0.538060        1.000000        0.00016759        0.02623337        0.04152434        0.02406141
      87         -0.536763        1.000000        0.00019807        0.00105681        0.00475006        0.00398305
      88         -0.535289        1.000000        0.00000822        0.00237511        0.00046307        0.00051548
      89         -0.535211        1.000000        0.00007051        0.00780688        0.00128462        0.00072994
      90         -0.533158        1.000000        0.00001096        0.00637762        0.00536518        0.00290520
      91         -0.532794        1.000000        0.00009543        0.00528260        0.00220906        0.00099292
      92         -0.532483        1.000000        0.00002229        0.04031203        0.00797547        0.00372117
      93         -0.531614        1.000000        0.00018051        0.00141465        0.00865775        0.00183436
      94         -0.531517        1.000000        0.00001791        0.00274653        0.00083384        0.00043071
      95         -0.530431        1.000000        0.00007136        0.01031856        0.02038991        0.01060216
      96         -0.529584        1.000000        0.00003358        0.00035066        0.00034775        0.00029805
      97         -0.529163        1.000000        0.00004553        0.00057367        0.00661070        0.00361794
      98         -0.527843        1.000000        0.00008681        0.06236425        0.11454445        0.06776016
      99         -0.527153        1.000000        0.00017319        0.00905904        0.06885382        0.03938728
     100         -0.525919        1.000000        0.00005981        0.04531206        0.00641808        0.00835626
     101         -0.524078        1.000000        0.00001265        0.00047626        0.00024188        0.00005607
     102         -0.522929        1.000000        0.00002533        0.05211011        0.00197313        0.00054493
     103         -0.521803        1.000000        0.00018648        0.30967898        0.03228158        0.01090654
     104         -0.520318        1.000000        0.00039737        0.31903787        0.05201280        0.00516085
     105         -0.520271        1.000000        0.00003893        0.02941822        0.00626857        0.00159730
     106         -0.512899        1.000000        0.00002282        0.29559758        0.13088751        0.08675602
     107         -0.511506        1.000000        0.00006039        0.02974199        0.16713034        0.25281623
     108         -0.505322        1.000000        0.00004123        0.19182926        0.26496098        0.03926382
     109         -0.484836        1.000000        0.00003921        0.40761488        0.15114454        0.00010773
     110         -0.482346        1.000000        0.00001363        0.00002156        0.00047434        0.00025196
     111         -0.480651        1.000000        0.00110338        0.13185996        0.34103841        0.02186543
     112         -0.478529        1.000000        0.00000040        0.00298475        0.00106198        0.00104845
     113         -0.478278        1.000000        0.00000162        0.00004528        0.00765026        0.00078038
     114         -0.476330        1.000000        0.00002407        0.01797164        0.48165571        0.04854819
     115         -0.475655        1.000000        0.00000115        0.00033149        0.00227454        0.00021851
     116         -0.475433        1.000000        0.00000047        0.00004355        0.00021796        0.00003718
     117         -0.473746        1.000000        0.00000005        0.00000019        0.00000804        0.00000106
     118         -0.471489        1.000000        0.00000272        0.31521637        0.24278764        0.00801729
     119         -0.471446        1.000000        0.00000006        0.00502342        0.00385889        0.00012680
     120         -0.471147        1.000000        0.00000160        0.00019343        0.00008258        0.00000813
     121         -0.470836        1.000000        0.00000009        0.00000563        0.00000436        0.00000121
     122         -0.469831        1.000000        0.00001417        0.00655501        0.00401502        0.00463185
     123         -0.469036        1.000000        0.00000024        0.00000389        0.00087885        0.00009497
     124         -0.466834        1.000000        0.00000018        0.00000432        0.00007051        0.00005139
     125         -0.466386        1.000000        0.00142306        0.35323976        0.01591109        0.02381642
     126         -0.465598        1.000000        0.00001753        0.00511491        0.00056044        0.00044106
     127         -0.464988        1.000000        0.00001897        0.00509599        0.00033777        0.00047293
     128         -0.464187        1.000000        0.00000207        0.00309369        0.00078955        0.00064931
     129         -0.463494        1.000000        0.00018418        0.34958342        0.08384204        0.06037045
     130         -0.462003        1.000000        0.00001320        0.00121653        0.00031228        0.00003464
     131         -0.461100        1.000000        0.00000004        0.00006934        0.00005317        0.00003461
     132         -0.460282        1.000000        0.00008299        0.00614631        0.00896464        0.00010713
     133         -0.459378        1.000000        0.00212348        0.15653587        0.23847659        0.00270423
     134         -0.457882        1.000000        0.00000032        0.00000928        0.00000076        0.00000173
     135         -0.456740        1.000000        0.00000100        0.00002661        0.00000691        0.00000185
     136         -0.456085        1.000000        0.00000145        0.00001538        0.00014334        0.00001110
     137         -0.453820        1.000000        0.00000510        0.00003998        0.00030564        0.00043150
     138         -0.452381        1.000000        0.00024606        0.00228000        0.00086257        0.00101763
     139         -0.450098        1.000000        0.00000025        0.00186114        0.00002841        0.00050998
     140         -0.448763        1.000000        0.00001852        0.00001507        0.00032915        0.00000401
     141         -0.448105        1.000000        0.00004165        0.00274861        0.00004358        0.00006424
     142         -0.446555        1.000000        0.00000734        0.00001075        0.00002942        0.00010148
     143         -0.445935        1.000000        0.00000265        0.07949573        0.02837042        0.12323385
     144         -0.441753        1.000000        0.00000081        0.00004391        0.00005469        0.00018129
     145         -0.441261        1.000000        0.00001818        0.03701492        0.05116025        0.16890460
     146         -0.440104        1.000000        0.00001703        0.00060394        0.00191043        0.00001142
     147         -0.436784        1.000000        0.00000008        0.00000163        0.00000786        0.00002331
     148         -0.434260        1.000000        0.00108286        0.03689088        0.00259889        0.00044491
     149         -0.433029        1.000000        0.00022069        0.00646486        0.01398489        0.00010565
     150         -0.432327        1.000000        0.00001690        0.00002647        0.00034268        0.00043806
     151         -0.432059        1.000000        0.00811859        0.01826801        0.21565291        0.16968962
     152         -0.431849        1.000000        0.00062307        0.00141134        0.01647377        0.01297251
     153         -0.431342        1.000000        0.00961668        0.00053566        0.15804513        0.27714123
     154         -0.428307        1.000000        0.00011455        0.00168223        0.00406033        0.00582089
     155         -0.426133        1.000000        0.00006259        0.00005398        0.00052308        0.00148691
     156         -0.422677        1.000000        0.00000184        0.00004178        0.00008495        0.00002123
     157         -0.422386        1.000000        0.00012341        0.00205656        0.00494589        0.00152321
     158         -0.420223        1.000000        0.00010826        0.00017366        0.00160528        0.00315996
     159         -0.419391        1.000000        0.00000265        0.00000100        0.00005187        0.00016975
     160         -0.419029        1.000000        0.00000631        0.00027825        0.00019986        0.00025318
     161         -0.418408        1.000000        0.00346156        0.00520764        0.03698033        0.12361488
     162         -0.418094        1.000000        0.00461097        0.00480082        0.05069786        0.17834592
     163         -0.415328        1.000000        0.00001893        0.00016984        0.00074502        0.00081525
     164         -0.412855        1.000000        0.00005781        0.00061685        0.00115056        0.00588262
     165         -0.412112        1.000000        0.00000902        0.00015258        0.00017651        0.00082231
     166         -0.411326        1.000000        0.00013690        0.00156131        0.00442518        0.01893961
     167         -0.410864        1.000000        0.00009641        0.00023062        0.00022698        0.00235698
     168         -0.408553        1.000000        0.00007348        0.00008633        0.00021608        0.00220711
     169         -0.405448        1.000000        0.00026196        0.00016272        0.00034563        0.00812037
     170         -0.401980        1.000000        0.00840267        0.00692486        0.02296697        0.38153918
     171         -0.401102        1.000000        0.00000006        0.00000139        0.00000724        0.00000610
     172         -0.401065        1.000000        0.00000115        0.00000004        0.00001193        0.00001101
     173         -0.395207        1.000000        0.00000002        0.00000029        0.00000007        0.00000121
     174         -0.394875        1.000000        0.00164610        0.01760924        0.00679617        0.00907092
     175         -0.394027        1.000000        0.00000028        0.00000245        0.00001765        0.00001028
     176         -0.393307        1.000000        0.00009749        0.00090398        0.00033189        0.00063926
     177         -0.393005        1.000000        0.00000095        0.00000564        0.00000050        0.00003489
     178         -0.388781        1.000000        0.00000007        0.00000058        0.00000370        0.00000150
     179         -0.386142        1.000000        0.00000049        0.00000153        0.00000176        0.00002860
     180         -0.384513        1.000000        0.00779978        0.02553471        0.04408891        0.34007524
     181         -0.383795        1.000000        0.00013846        0.00039567        0.00016573        0.00268081
     182         -0.377963        1.000000        0.00992254        0.00582611        0.28397783        0.12188922
     183         -0.372901        1.000000        0.00854267        0.00923709        0.00043990        0.39407330
     184         -0.371535        1.000000        0.00003989        0.03960394        0.00001084        0.00466283
     185         -0.369205        1.000000        0.00000119        0.00075052        0.00042808        0.00017838
     186         -0.368154        1.000000        0.00000254        0.00046392        0.02064927        0.02271467
     187         -0.366427        1.000000        0.00000628        0.00152265        0.02264530        0.01166785
     188         -0.365427        1.000000        0.00000211        0.03519601        0.00148292        0.00027900
     189         -0.359692        1.000000        0.00001182        0.00003366        0.00000932        0.00091283
     190         -0.356057        1.000000        0.00001144        0.00312063        0.02887261        0.00915556
     191         -0.354411        1.000000        0.00000899        0.03257574        0.00152144        0.00143007
     192         -0.351317        1.000000        0.00050300        0.00184180        0.00768172        0.00743484
     193         -0.344866        1.000000        0.00000237        0.04005335        0.01407746        0.00007950
     194         -0.343513        1.000000        0.00102493        0.00081460        0.00058232        0.02219274
     195         -0.339040        1.000000        0.00007445        0.00123442        0.00132386        0.00071987
     196         -0.331607        1.000000        0.00081497        0.00106577        0.00070006        0.00863973
     197         -0.331082        1.000000        0.00047251        0.00095545        0.00342661        0.00780751
     198         -0.330962        1.000000        0.00007648        0.00012688        0.00007145        0.00165307
     199         -0.329819        1.000000        0.00001882        0.00033712        0.04907802        0.00276226
     200         -0.323823        1.000000        0.00003781        0.00660674        0.02709499        0.00957455
     201         -0.323707        1.000000        0.00005713        0.00040346        0.00276735        0.00143200
     202         -0.317290        1.000000        0.00000037        0.00000405        0.00000188        0.00000616
     203         -0.315769        1.000000        0.00001390        0.00056998        0.00002100        0.00012911
     204         -0.315544        1.000000        0.00003595        0.01323357        0.02602154        0.00139353
     205         -0.315110        1.000000        0.00049291        0.02114391        0.00031565        0.00451637
     206         -0.310015        1.000000        0.00270145        0.01370185        0.03337692        0.01729959
     207         -0.308372        1.000000        0.00007206        0.00067513        0.00012618        0.00003315
     208         -0.306761        1.000000        0.00088244        0.02290234        0.00071882        0.00050915
     209         -0.305054        1.000000        0.00000022        0.00000257        0.00000135        0.00000009
     210         -0.303092        1.000000        0.00001407        0.00008574        0.00012051        0.00015120
     211         -0.300400        1.000000        0.00117493        0.02354923        0.01508035        0.00081772
     212         -0.299339        1.000000        0.00003879        0.00213315        0.00194835        0.00022065
     213         -0.298135        1.000000        0.00017512        0.01907422        0.00612701        0.01236511
     214         -0.291594        1.000000        0.00001322        0.00004953        0.00003092        0.00006728
     215         -0.289727        1.000000        0.00013649        0.00078669        0.00020018        0.00006560
     216         -0.289555        1.000000        0.00000245        0.00009042        0.00001210        0.00001805
     217         -0.289054        1.000000        0.00000021        0.00000286        0.00000179        0.00000176
     218         -0.282399        1.000000        0.00000053        0.00000740        0.00000123        0.00000082
     219         -0.280804        1.000000        0.00000011        0.00000424        0.00000073        0.00000059
     220         -0.277317        1.000000        0.00001193        0.00000974        0.00006428        0.00000143
     221         -0.276937        1.000000        0.00002842        0.00000023        0.00006288        0.00018220
     222         -0.276140        1.000000        0.00569391        0.07675854        0.00107343        0.02169998
     223         -0.270105        1.000000        0.00271025        0.02397453        0.01877954        0.00213126
     224         -0.269191        1.000000        0.00000354        0.00000213        0.00001361        0.00000117
     225         -0.267359        1.000000        0.00001359        0.00120691        0.00185916        0.00022459
     226         -0.261662        1.000000        0.00000589        0.00001462        0.00001159        0.00000999
     227         -0.258873        1.000000        0.01066703        0.02288347        0.05868308        0.02954242
     228         -0.252652        1.000000        0.00004240        0.00006317        0.00001840        0.00012102
     229         -0.249442        1.000000        0.00000437        0.00000738        0.00000268        0.00000573
     230         -0.247890        1.000000        0.00597712        0.00806485        0.00012980        0.02983600
     231         -0.244108        1.000000        0.00025247        0.00176932        0.00123810        0.00023866
     232         -0.244045        1.000000        0.00005878        0.00028858        0.00025063        0.00014630
     233         -0.242700        1.000000        0.00027614        0.00141359        0.00088841        0.00029449
     234         -0.241101        1.000000        0.00005164        0.00036984        0.00006111        0.00028007
     235         -0.240508        1.000000        0.00006881        0.00004919        0.00002384        0.00001688
     236         -0.240175        1.000000        0.00016485        0.00055846        0.00019533        0.00031351
     237         -0.238764        1.000000        0.00022087        0.00019444        0.00004288        0.00044531
     238         -0.238196        1.000000        0.00054451        0.00206091        0.00042065        0.00033567
     239         -0.237951        1.000000        0.00057478        0.00331698        0.00051687        0.00031454
     240         -0.237170        1.000000        0.00015373        0.00035344        0.00006447        0.00003614
     241         -0.236132        1.000000        0.00575125        0.04495476        0.00597388        0.00037803
     242         -0.235482        1.000000        0.00199574        0.01486888        0.00170810        0.00010043
     243         -0.234458        1.000000        0.00083815        0.00582774        0.00034101        0.00074249
     244         -0.234353        1.000000        0.00447168        0.03717331        0.00093558        0.01018519
     245         -0.233503        1.000000        0.00037813        0.00172010        0.00109440        0.00033174
     246         -0.233356        1.000000        0.00153454        0.00806783        0.00526614        0.00084907
     247         -0.232008        1.000000        0.00010068        0.00104950        0.00093187        0.00024000
     248         -0.231077        1.000000        0.00014600        0.00071416        0.00031921        0.00037837
     249         -0.230867        1.000000        0.00119751        0.00202055        0.00418266        0.00226384
     250         -0.230707        1.000000        0.00020643        0.00029710        0.00026514        0.00040894
     251         -0.230283        1.000000        0.00016565        0.00009847        0.00013072        0.00035697
     252         -0.229290        1.000000        0.00018751        0.00133600        0.00027352        0.00134823
     253         -0.228883        1.000000        0.00009620        0.00632607        0.00354115        0.01580582
     254         -0.228512        1.000000        0.00026994        0.00282716        0.00096679        0.00479975
     255         -0.227230        1.000000        0.00055123        0.01532728        0.00489247        0.00893502
     256         -0.226870        1.000000        0.00032854        0.00970381        0.00289099        0.00633289
     257         -0.225601        1.000000        0.00007943        0.00822263        0.00250417        0.00860490
     258         -0.224956        1.000000        0.00009850        0.00100155        0.00037422        0.00124517
     259         -0.223294        1.000000        0.00015427        0.00038432        0.00077883        0.00021728