# Projected DOS for atomic kind C at iteration step i = 0, E(Fermi) =    -0.140463 a.u.
#     MO Eigenvalue [a.u.]      Occupation                 s                py                pz                px
       1         -0.918269        1.000000        0.00000278        0.00000087        0.00000162        0.00000206
       2         -0.918157        1.000000        0.00000277        0.00000262        0.00000004        0.00000187
       3         -0.917318        1.000000        0.00000000        0.00000000        0.00000000        0.00000000
       4         -0.916432        1.000000        0.00000000        0.00000000        0.00000001        0.00000001
       5         -0.914802        1.000000        0.00000005        0.00000001        0.00000002        0.00000004
       6         -0.914002        1.000000        0.00000130        0.00000011        0.00000260        0.00000198
       7         -0.912278        1.000000        0.00000001        0.00000001        0.00000002        0.00000004
       8         -0.910079        1.000000        0.00007334        0.00000002        0.00000009        0.00007115
       9         -0.909540        1.000000        0.00000363        0.00000004        0.00000064        0.00000276
      10         -0.909443        1.000000        0.00000201        0.00000012        0.00000052        0.00000096
      11         -0.909377        1.000000        0.05740162        0.00009815        0.01511557        0.02766510
      12         -0.903173        1.000000        0.00002657        0.00000467        0.00002085        0.00000583
      13         -0.903132        1.000000        0.00000002        0.00000007        0.00000001        0.00000005
      14         -0.902169        1.000000        0.06357317        0.00194855        0.02280545        0.01958216
      15         -0.900055        1.000000        0.00000001        0.00000000        0.00000000        0.00000002
      16         -0.893720        1.000000        0.00000036        0.00000011        0.00000018        0.00000000
      17         -0.892677        1.000000        0.00000001        0.00000001        0.00000002        0.00000003
      18         -0.891877        1.000000        0.06139281        0.00094010        0.00933898        0.03362655
      19         -0.890806        1.000000        0.00000002        0.00000001        0.00000002        0.00000001
      20         -0.889779        1.000000        0.00006645        0.00000006        0.00007307        0.00018003
      21         -0.889494        1.000000        0.00000055        0.00000021        0.00000026        0.00000004
      22         -0.887732        1.000000        0.00000009        0.00000001        0.00000000        0.00000004
      23         -0.884232        1.000000        0.00000003        0.00000000        0.00000001        0.00000002
      24         -0.878448        1.000000        0.00942730        0.00002777        0.00007539        0.00684102
      25         -0.877974        1.000000        0.00000016        0.00000001        0.00000000        0.00000017
      26         -0.877723        1.000000        0.00000002        0.00000006        0.00000000        0.00000000
      27         -0.876671        1.000000        0.00002271        0.00000151        0.00000069        0.00001832
      28         -0.876469        1.000000        0.00000009        0.00000009        0.00000007        0.00000000
      29         -0.874404        1.000000        0.00000007        0.00000012        0.00000023        0.00000041
      30         -0.873060        1.000000        0.00212007        0.00000655        0.00019861        0.00147014
      31         -0.865516        1.000000        0.00000000        0.00000000        0.00000000        0.00000000
      32         -0.860833        1.000000        0.00000002        0.00000014        0.00000001        0.00000006
      33         -0.860658        1.000000        0.00407079        0.00014784        0.00001585        0.00300279
      34         -0.859959        1.000000        0.00560263        0.00030064        0.00280794        0.00127458
      35         -0.856833        1.000000        0.00002004        0.00001575        0.00005092        0.00009994
      36         -0.854383        1.000000        0.06491281        0.00038779        0.00104437        0.03770808
      37         -0.854297        1.000000        0.00022314        0.00000029        0.00007765        0.00011075
      38         -0.852987        1.000000        0.02418259        0.00030351        0.00191055        0.01397066
      39         -0.852686        1.000000        0.00000014        0.00000000        0.00000001        0.00000008
      40         -0.850514        1.000000        0.00001727        0.00000032        0.00000001        0.00001273
      41         -0.850084        1.000000        0.00000000        0.00000004        0.00000001        0.00000004
      42         -0.847806        1.000000        0.01590089        0.00032450        0.00000108        0.01087356
      43         -0.847271        1.000000        0.00000044        0.00000000        0.00000001        0.00000020
      44         -0.844563        1.000000        0.00000000        0.00000003        0.00000001        0.00000000
      45         -0.837239        1.000000        0.00000000        0.00000000        0.00000000        0.00000000
      46         -0.835184        1.000000        0.00000011        0.00000104        0.00000016        0.00000015
      47         -0.832556        1.000000        0.03708679        0.00024378        0.00003712        0.02343611
      48         -0.831734        1.000000        0.00000004        0.00000003        0.00000001        0.00000001
      49         -0.831299        1.000000        0.00012616        0.00000373        0.00000765        0.00006055
      50         -0.830717        1.000000        0.05306689        0.00139028        0.00338179        0.02497068
      51         -0.829306        1.000000        0.00000000        0.00000000        0.00000000        0.00000000
      52         -0.828541        1.000000        0.00000021        0.00000021        0.00000006        0.00000000
      53         -0.826784        1.000000        0.00002349        0.00000087        0.00000000        0.00002185
      54         -0.825285        1.000000        0.00000004        0.00000010        0.00000047        0.00000031
      55         -0.824417        1.000000        0.00000001        0.00000031        0.00000014        0.00000013
      56         -0.822296        1.000000        0.00591083        0.00003207        0.00001547        0.00411279
      57         -0.820841        1.000000        0.07526420        0.00134794        0.02792186        0.01299651
      58         -0.817303        1.000000        0.00000000        0.00000000        0.00000000        0.00000000
      59         -0.811001        1.000000        0.00814233        0.00010133        0.00001812        0.00388144
      60         -0.652758        1.000000        0.43956499        0.00002227        0.00122347        0.00072736
      61         -0.649971        1.000000        0.44233293        0.00000033        0.00029286        0.00066018
      62         -0.637582        1.000000        0.44070927        0.00010127        0.00045274        0.00101964
      63         -0.623461        1.000000        0.43472411        0.00006919        0.00035174        0.00531464
      64         -0.606991        1.000000        0.42710578        0.00067836        0.00053968        0.00639264
      65         -0.599688        1.000000        0.12775273        0.00001726        0.00008944        0.00064455
      66         -0.599347        1.000000        0.42662409        0.00015220        0.00449755        0.00281908
      67         -0.597850        1.000000        0.00140044        0.00124418        0.00002208        0.00007631
      68         -0.592421        1.000000        0.30529065        0.00008991        0.00008667        0.00358436
      69         -0.586031        1.000000        0.00004530        0.00001755        0.00003323        0.00000033
      70         -0.558691        1.000000        0.00022101        0.00013151        0.00026057        0.00025355
      71         -0.554687        1.000000        0.00013302        0.00296230        0.00015482        0.00032365
      72         -0.554190        1.000000        0.00042911        0.00035732        0.00043437        0.00014676
      73         -0.548734        1.000000        0.00089674        0.00225864        0.00169008        0.00288633
      74         -0.547747        1.000000        0.00021395        0.00065236        0.00032317        0.00064916
      75         -0.547066        1.000000        0.00056238        0.00194624        0.00481592        0.00175407
      76         -0.545352        1.000000        0.00070085        0.00383390        0.00135890        0.00022328
      77         -0.544826        1.000000        0.00033626        0.00102319        0.00286048        0.00118687
      78         -0.543194        1.000000        0.00007055        0.00199051        0.00025620        0.00032166
      79         -0.542053        1.000000        0.00015307        0.00065637        0.00047345        0.00037524
      80         -0.541511        1.000000        0.00016538        0.00117670        0.00143037        0.00093733
      81         -0.540678        1.000000        0.00016730        0.00403275        0.00166633        0.00116782
      82         -0.540163        1.000000        0.00011034        0.00259436        0.00269150        0.00127618
      83         -0.538635        1.000000        0.00008267        0.00101746        0.00109122        0.00083108
      84         -0.538134        1.000000        0.00016594        0.00219854        0.00217290        0.00212679
      85         -0.537983        1.000000        0.00015748        0.00271475        0.00246031        0.00063936
      86         -0.537559        1.000000        0.00017595        0.00316871        0.00652378        0.00399312
      87         -0.536472        1.000000        0.00012874        0.00012928        0.00185511        0.00064883
      88         -0.535224        1.000000        0.00000596        0.00020141        0.00011200        0.00002785
      89         -0.534509        1.000000        0.00020429        0.00211279        0.00084778        0.00050466
      90         -0.532481        1.000000        0.00005552        0.00010041        0.00004756        0.00009703
      91         -0.531673        1.000000        0.00011571        0.00138493        0.00124928        0.00064905
      92         -0.531451        1.000000        0.00000921        0.00199625        0.00015437        0.00005401
      93         -0.531317        1.000000        0.00007841        0.00194045        0.00125565        0.00016797
      94         -0.530385        1.000000        0.00010020        0.00084515        0.00071071        0.00052339
      95         -0.530160        1.000000        0.00006717        0.00010419        0.00051694        0.00028525
      96         -0.529032        1.000000        0.00003495        0.00003125        0.00034013        0.00013195
      97         -0.528850        1.000000        0.00007012        0.00038002        0.00010826        0.00006392
      98         -0.527353        1.000000        0.00008303        0.00526673        0.00455558        0.00276433
      99         -0.526757        1.000000        0.00015598        0.00265805        0.00978720        0.00470935
     100         -0.524044        1.000000        0.00000451        0.00008435        0.00002438        0.00001000
     101         -0.523732        1.000000        0.00017943        0.00883585        0.00078276        0.00105430
     102         -0.521915        1.000000        0.00010639        0.02177385        0.00160371        0.00055188
     103         -0.521331        1.000000        0.00004285        0.01533705        0.00178126        0.00075313
     104         -0.520021        1.000000        0.00000207        0.00168226        0.00026495        0.00008367
     105         -0.519774        1.000000        0.00016550        0.03522654        0.00496473        0.00137322
     106         -0.512851        1.000000        0.00000248        0.03064835        0.01562961        0.00835127
     107         -0.511241        1.000000        0.00006450        0.00468882        0.02480440        0.02911213
     108         -0.505146        1.000000        0.00010627        0.02305700        0.02916067        0.00626759
     109         -0.484800        1.000000        0.00001389        0.06008121        0.02292298        0.00002333
     110         -0.482290        1.000000        0.00002428        0.00007198        0.00005981        0.00018304
     111         -0.480614        1.000000        0.00001305        0.02028168        0.05271640        0.00188116
     112         -0.478497        1.000000        0.00000015        0.00041835        0.00020890        0.00012139
     113         -0.478252        1.000000        0.00000063        0.00000594        0.00105938        0.00012345
     114         -0.476290        1.000000        0.00002201        0.00286530        0.06824031        0.00708003
     115         -0.475619        1.000000        0.00000020        0.00004897        0.00032578        0.00002880
     116         -0.475360        1.000000        0.00000127        0.00000887        0.00003646        0.00001230
     117         -0.473721        1.000000        0.00000007        0.00000007        0.00000060        0.00000149
     118         -0.471448        1.000000        0.00000133        0.03697739        0.02875579        0.00057211
     119         -0.471418        1.000000        0.00000025        0.00133155        0.00103160        0.00002276
     120         -0.471117        1.000000        0.00000003        0.00002332        0.00001145        0.00000331
     121         -0.470814        1.000000        0.00000122        0.00000113        0.00000193        0.00000422
     122         -0.469804        1.000000        0.00000162        0.00085177        0.00063088        0.00059532
     123         -0.469009        1.000000        0.00000595        0.00000077        0.00014925        0.00000414
     124         -0.466799        1.000000        0.00000064        0.00001157        0.00008543        0.00003819
     125         -0.466335        1.000000        0.00027903        0.05745553        0.00159291        0.00721661
     126         -0.465564        1.000000        0.00000394        0.00086373        0.00007687        0.00012694
     127         -0.464955        1.000000        0.00000686        0.00086744        0.00006629        0.00010230
     128         -0.464137        1.000000        0.00000009        0.00048007        0.00018125        0.00010157
     129         -0.463453        1.000000        0.00003560        0.05105468        0.01514916        0.00737938
     130         -0.461970        1.000000        0.00000650        0.00019442        0.00004864        0.00000285
     131         -0.461082        1.000000        0.00000089        0.00000315        0.00000507        0.00001731
     132         -0.460238        1.000000        0.00004886        0.00107332        0.00137483        0.00005461
     133         -0.459325        1.000000        0.00104632        0.02776328        0.03702502        0.00040741
     134         -0.457852        1.000000        0.00000006        0.00000476        0.00000081        0.00000064
     135         -0.456720        1.000000        0.00000039        0.00001344        0.00000282        0.00000136
     136         -0.456091        1.000000        0.00000059        0.00000377        0.00002013        0.00000941
     137         -0.453784        1.000000        0.00000081        0.00002923        0.00038095        0.00037788
     138         -0.452347        1.000000        0.00033925        0.00057930        0.00020664        0.00188001
     139         -0.450072        1.000000        0.00000004        0.00033972        0.00000509        0.00007861
     140         -0.448678        1.000000        0.00001626        0.00002441        0.00002125        0.00016017
     141         -0.448069        1.000000        0.00001408        0.00058723        0.00003919        0.00011189
     142         -0.446532        1.000000        0.00000367        0.00000651        0.00004771        0.00000682
     143         -0.445898        1.000000        0.00005339        0.01603485        0.00686042        0.02197066
     144         -0.441709        1.000000        0.00000083        0.00002509        0.00001700        0.00004096
     145         -0.441222        1.000000        0.00007350        0.00848749        0.01310259        0.03157171
     146         -0.440055        1.000000        0.00000306        0.00006572        0.00024277        0.00000503
     147         -0.436759        1.000000        0.00000007        0.00000033        0.00000317        0.00000409
     148         -0.434223        1.000000        0.00035454        0.00941573        0.00214237        0.00261710
     149         -0.432973        1.000000        0.00002047        0.00082153        0.00175159        0.00007828
     150         -0.432200        1.000000        0.00008808        0.00003199        0.00061575        0.00073560
     151         -0.432020        1.000000        0.02025946        0.01203666        0.16823324        0.14332253
     152         -0.431792        1.000000        0.00123941        0.00072058        0.01017202        0.00864575
     153         -0.431310        1.000000        0.02581320        0.00115846        0.11526789        0.22126424
     154         -0.428266        1.000000        0.00000205        0.00049985        0.00072881        0.00171676
     155         -0.426121        1.000000        0.00012927        0.00007237        0.00078577        0.00073025
     156         -0.422657        1.000000        0.00000243        0.00001058        0.00002746        0.00002476
     157         -0.422312        1.000000        0.00012392        0.00029873        0.00106921        0.00127702
     158         -0.419809        1.000000        0.00014928        0.00035302        0.00044305        0.00183102
     159         -0.419368        1.000000        0.00000766        0.00000130        0.00002013        0.00019576
     160         -0.419078        1.000000        0.00002440        0.00043969        0.00008585        0.00043552
     161         -0.418296        1.000000        0.01642759        0.00480986        0.05503182        0.18802956
     162         -0.417748        1.000000        0.00444048        0.00202111        0.01564224        0.05112664
     163         -0.415166        1.000000        0.00013973        0.00014416        0.00045134        0.00131374
     164         -0.412470        1.000000        0.00020964        0.00011476        0.00131691        0.00274718
     165         -0.411946        1.000000        0.00000609        0.00001169        0.00007242        0.00013993
     166         -0.410851        1.000000        0.00076289        0.00014835        0.00501109        0.00984676
     167         -0.410602        1.000000        0.00026208        0.00010237        0.00161885        0.00393668
     168         -0.408346        1.000000        0.00009727        0.00011385        0.00029106        0.00148516
     169         -0.405340        1.000000        0.00031299        0.00012368        0.00015665        0.00730758
     170         -0.401954        1.000000        0.01312181        0.00017153        0.00096262        0.33312156
     171         -0.401116        1.000000        0.00000031        0.00000304        0.00000800        0.00000304
     172         -0.399279        1.000000        0.00000088        0.00000102        0.00000007        0.00002009
     173         -0.395178        1.000000        0.00000003        0.00000012        0.00000002        0.00000111
     174         -0.394409        1.000000        0.00003525        0.00121676        0.00223039        0.00492607
     175         -0.393405        1.000000        0.00000338        0.00000915        0.00005182        0.00000166
     176         -0.393253        1.000000        0.00000476        0.00011145        0.00026234        0.00067838
     177         -0.392962        1.000000        0.00000280        0.00000818        0.00000126        0.00003145
     178         -0.388707        1.000000        0.00000011        0.00000013        0.00000087        0.00000623
     179         -0.386226        1.000000        0.00000023        0.00000161        0.00000295        0.00002232
     180         -0.384477        1.000000        0.01124294        0.00043635        0.03496945        0.30465974
     181         -0.383792        1.000000        0.00003855        0.00000702        0.00014904        0.00212540
     182         -0.377931        1.000000        0.01168309        0.03040027        0.19649116        0.11812498
     183         -0.372862        1.000000        0.01534239        0.01534452        0.00011496        0.31702638
     184         -0.371486        1.000000        0.00009923        0.48556771        0.00119377        0.03160583
     185         -0.369170        1.000000        0.00000369        0.00746498        0.00456830        0.00202595
     186         -0.368123        1.000000        0.00004803        0.01040240        0.24679867        0.26056561
     187         -0.366394        1.000000        0.00001707        0.02025383        0.32841020        0.18467692
     188         -0.365382        1.000000        0.00001110        0.51198078        0.01884997        0.00295857
     189         -0.359675        1.000000        0.00002419        0.00041995        0.00002151        0.00070524
     190         -0.356031        1.000000        0.00006940        0.03561078        0.37949534        0.09679533
     191         -0.354374        1.000000        0.00000290        0.45584376        0.02132992        0.03504243
     192         -0.351292        1.000000        0.00000794        0.11212018        0.34855822        0.00061654
     193         -0.344841        1.000000        0.00001046        0.38299571        0.12575582        0.00006202
     194         -0.343469        1.000000        0.00008601        0.42046816        0.00135299        0.00068254
     195         -0.339012        1.000000        0.00046298        0.02722016        0.00739688        0.00008039
     196         -0.331568        1.000000        0.00009138        0.11791953        0.11036209        0.01247579
     197         -0.331046        1.000000        0.00001625        0.27419108        0.00424782        0.13501132
     198         -0.330942        1.000000        0.00001626        0.00811602        0.00707400        0.00237176
     199         -0.329775        1.000000        0.00005070        0.00175452        0.45052154        0.05117274
     200         -0.323787        1.000000        0.00003403        0.11588166        0.19832981        0.16947331
     201         -0.323668        1.000000        0.00000634        0.04992475        0.09275843        0.00311830
     202         -0.317185        1.000000        0.00000100        0.00001115        0.00005520        0.00009530
     203         -0.315738        1.000000        0.00000211        0.00128664        0.00019635        0.00012432
     204         -0.315517        1.000000        0.00014744        0.22304043        0.26580746        0.00790761
     205         -0.315077        1.000000        0.00000209        0.05028859        0.00334354        0.00455418
     206         -0.309991        1.000000        0.00000068        0.01227494        0.02981728        0.00861459
     207         -0.308336        1.000000        0.00000734        0.00023991        0.00009413        0.00003865
     208         -0.306734        1.000000        0.00000346        0.04356536        0.00001606        0.00004688
     209         -0.305037        1.000000        0.00000049        0.00002221        0.00000378        0.00000003
     210         -0.303059        1.000000        0.00017651        0.00304800        0.00059537        0.00008068
     211         -0.300356        1.000000        0.00000356        0.06472779        0.01636259        0.00017578
     212         -0.299319        1.000000        0.00001143        0.00670665        0.00230726        0.00068100
     213         -0.298110        1.000000        0.00000065        0.02250153        0.00534484        0.01480622
     214         -0.291742        1.000000        0.00000036        0.00006549        0.00001299        0.00001664
     215         -0.289684        1.000000        0.00002240        0.00013000        0.00011353        0.00003008
     216         -0.289463        1.000000        0.00000058        0.00007442        0.00001673        0.00003730
     217         -0.289058        1.000000        0.00000107        0.00004852        0.00000210        0.00000604
     218         -0.281854        1.000000        0.00000059        0.00000054        0.00000787        0.00000042
     219         -0.280522        1.000000        0.00000002        0.00000209        0.00000054        0.00000109
     220         -0.277272        1.000000        0.00000040        0.00000567        0.00001426        0.00000095
     221         -0.276905        1.000000        0.00009220        0.00012616        0.00001731        0.00002236
     222         -0.276109        1.000000        0.00000055        0.02553027        0.00017994        0.00647307
     223         -0.270065        1.000000        0.00001917        0.01593814        0.00722275        0.00016361
     224         -0.269165        1.000000        0.00000107        0.00000831        0.00000653        0.00000040
     225         -0.267331        1.000000        0.00001752        0.00116843        0.00069742        0.00044161
     226         -0.261564        1.000000        0.00000912        0.00002001        0.00000416        0.00002017
     227         -0.258850        1.000000        0.00000341        0.00341101        0.00862387        0.00765995
     228         -0.252610        1.000000        0.00005076        0.00022319        0.00009225        0.00006827
     229         -0.249277        1.000000        0.00000140        0.00000235        0.00000306        0.00000177
     230         -0.247858        1.000000        0.00001014        0.00188221        0.00017765        0.00803359
     231         -0.244117        1.000000        0.00002439        0.00093337        0.00030485        0.00002941
     232         -0.244007        1.000000        0.00008174        0.00071565        0.00004700        0.00009848
     233         -0.242677        1.000000        0.00002166        0.00055120        0.00026489        0.00009732
     234         -0.241027        1.000000        0.00001330        0.00014623        0.00001846        0.00025147
     235         -0.240149        1.000000        0.00001984        0.00010914        0.00004375        0.00015126
     236         -0.240096        1.000000        0.00000783        0.00014692        0.00009544        0.00010887
     237         -0.238732        1.000000        0.00001333        0.00002636        0.00002417        0.00041907
     238         -0.237975        1.000000        0.00001848        0.00015689        0.00025810        0.00004289
     239         -0.237606        1.000000        0.00001670        0.00071222        0.00037212        0.00005544
     240         -0.237094        1.000000        0.00008990        0.00032984        0.00017879        0.00006417
     241         -0.236081        1.000000        0.00001308        0.00671375        0.00213304        0.00005972
     242         -0.235433        1.000000        0.00000488        0.00199281        0.00057256        0.00006537
     243         -0.234400        1.000000        0.00001111        0.00093075        0.00018005        0.00026903
     244         -0.234307        1.000000        0.00000485        0.00355567        0.00022978        0.00185649
     245         -0.233472        1.000000        0.00002247        0.00113241        0.00027836        0.00007567
     246         -0.233320        1.000000        0.00013246        0.00361560        0.00080858        0.00005936
     247         -0.231894        1.000000        0.00000990        0.00091363        0.00048337        0.00051459
     248         -0.230969        1.000000        0.00004908        0.00021972        0.00017190        0.00010652
     249         -0.230841        1.000000        0.00000237        0.00014901        0.00029366        0.00052547
     250         -0.230586        1.000000        0.00002517        0.00011224        0.00000705        0.00057263
     251         -0.230114        1.000000        0.00001906        0.00013235        0.00003550        0.00019187
     252         -0.229105        1.000000        0.00001490        0.00018415        0.00016532        0.00052900
     253         -0.228691        1.000000        0.00001535        0.00073262        0.00040242        0.00248915
     254         -0.227675        1.000000        0.00006870        0.00047146        0.00061338        0.00008871
     255         -0.226987        1.000000        0.00013638        0.00236423        0.00113680        0.00114930
     256         -0.226320        1.000000        0.00024476        0.00131635        0.00056886        0.00056710
     257         -0.225338        1.000000        0.00007857        0.00110514        0.00022588        0.00083443
     258         -0.224360        1.000000        0.00009603        0.00066665        0.00026573        0.00018013
     259         -0.222231        1.000000        0.00004311        0.00035083        0.00006959        0.00005679