# Projected DOS for atomic kind I at iteration step i = 0, E(Fermi) =    -0.140463 a.u.
#     MO Eigenvalue [a.u.]      Occupation                 s                py                pz                px
       1         -0.918269        1.000000        0.00000024        0.00000086        0.00000123        0.00000046
       2         -0.918157        1.000000        0.00006804        0.00002071        0.00016640        0.00012131
       3         -0.917318        1.000000        0.00006542        0.00025017        0.00004705        0.00000664
       4         -0.916432        1.000000        0.00008323        0.00027819        0.00009869        0.00013705
       5         -0.914802        1.000000        0.00013076        0.00002267        0.00035464        0.00007882
       6         -0.914002        1.000000        0.00024971        0.00068597        0.00006014        0.00012461
       7         -0.912278        1.000000        0.00001574        0.00000748        0.00010488        0.00000834
       8         -0.910079        1.000000        0.00001156        0.00004410        0.00001862        0.00004415
       9         -0.909540        1.000000        0.00001609        0.00005808        0.00007706        0.00001917
      10         -0.909443        1.000000        0.00019786        0.00015131        0.00023459        0.00023396
      11         -0.909377        1.000000        0.00008372        0.00016861        0.00024951        0.00019089
      12         -0.903173        1.000000        0.00007071        0.00014043        0.00000842        0.00016274
      13         -0.903132        1.000000        0.00002055        0.00015045        0.00001614        0.00000461
      14         -0.902169        1.000000        0.00023522        0.00053146        0.00027987        0.00030054
      15         -0.900055        1.000000        0.00048096        0.00079774        0.00021454        0.00001453
      16         -0.893720        1.000000        0.00003893        0.00001669        0.00000256        0.00019088
      17         -0.892677        1.000000        0.00004411        0.00003507        0.00000947        0.00021650
      18         -0.891877        1.000000        0.00020106        0.00054023        0.00025789        0.00018546
      19         -0.890806        1.000000        0.00013806        0.00014087        0.00031838        0.00022335
      20         -0.889779        1.000000        0.00079957        0.00063937        0.00078400        0.00069692
      21         -0.889494        1.000000        0.00105740        0.00002668        0.00135777        0.00068911
      22         -0.887732        1.000000        0.00008303        0.00006369        0.00010351        0.00024137
      23         -0.884232        1.000000        0.00001737        0.00003777        0.00006265        0.00002679
      24         -0.878448        1.000000        0.00001800        0.00006529        0.00005767        0.00000376
      25         -0.877974        1.000000        0.00172246        0.00238723        0.00052004        0.00002686
      26         -0.877723        1.000000        0.00005316        0.00009483        0.00005145        0.00013459
      27         -0.876671        1.000000        0.00000615        0.00000462        0.00001430        0.00001927
      28         -0.876469        1.000000        0.00060185        0.00006021        0.00101489        0.00013741
      29         -0.874404        1.000000        0.00005978        0.00016566        0.00013847        0.00000054
      30         -0.873060        1.000000        0.00001217        0.00000351        0.00007661        0.00002262
      31         -0.865516        1.000000        0.00078593        0.00228232        0.00018169        0.00001177
      32         -0.860833        1.000000        0.00000061        0.00000104        0.00000129        0.00000356
      33         -0.860658        1.000000        0.00003383        0.00003116        0.00001071        0.00013946
      34         -0.859959        1.000000        0.00001568        0.00002634        0.00002364        0.00002207
      35         -0.856833        1.000000        0.00323842        0.00145878        0.00258133        0.00163892
      36         -0.854383        1.000000        0.00010143        0.00010858        0.00026399        0.00002663
      37         -0.854297        1.000000        0.00005903        0.00005605        0.00010391        0.00009446
      38         -0.852987        1.000000        0.00002051        0.00000919        0.00010405        0.00001372
      39         -0.852686        1.000000        0.00042852        0.00001140        0.00002528        0.00141640
      40         -0.850514        1.000000        0.00671900        0.00764762        0.00137470        0.00004112
      41         -0.850084        1.000000        0.00016536        0.00004006        0.00069632        0.00000426
      42         -0.847806        1.000000        0.00001683        0.00003583        0.00007828        0.00008066
      43         -0.847271        1.000000        0.00001873        0.00005304        0.00000115        0.00006493
      44         -0.844563        1.000000        0.00023384        0.00003875        0.00064162        0.00024493
      45         -0.837239        1.000000        0.00000043        0.00000072        0.00000478        0.00000068
      46         -0.835184        1.000000        0.00940586        0.00000274        0.00784936        0.00321178
      47         -0.832556        1.000000        0.00008014        0.00006171        0.00006758        0.00018994
      48         -0.831734        1.000000        0.00001886        0.00000987        0.00002745        0.00006068
      49         -0.831299        1.000000        0.00003104        0.00001317        0.00002029        0.00015099
      50         -0.830717        1.000000        0.00001657        0.00001993        0.00005038        0.00001385
      51         -0.829306        1.000000        0.00005588        0.00020704        0.00002044        0.00001595
      52         -0.828541        1.000000        0.00000810        0.00005750        0.00000295        0.00001711
      53         -0.826784        1.000000        0.00000021        0.00000727        0.00000089        0.00000087
      54         -0.825285        1.000000        0.00001027        0.00001820        0.00000452        0.00007231
      55         -0.824417        1.000000        0.00000267        0.00000029        0.00003717        0.00000820
      56         -0.822296        1.000000        0.00002305        0.00001479        0.00001009        0.00005224
      57         -0.820841        1.000000        0.00002453        0.00006587        0.00003770        0.00003034
      58         -0.817303        1.000000        0.00000927        0.00000932        0.00005709        0.00000511
      59         -0.811001        1.000000        0.00003920        0.00002608        0.00000946        0.00009334
      60         -0.652758        1.000000        0.00137831        0.00019142        0.00027062        0.00031638
      61         -0.649971        1.000000        0.00111098        0.00027354        0.00032141        0.00033072
      62         -0.637582        1.000000        0.00141493        0.00026730        0.00019871        0.00012410
      63         -0.623461        1.000000        0.00119175        0.00015746        0.00017039        0.00005528
      64         -0.606991        1.000000        0.00279109        0.00023274        0.00028229        0.00033226
      65         -0.599688        1.000000        0.66565370        0.01089547        0.00214240        0.00074402
      66         -0.599347        1.000000        0.00352395        0.00003023        0.00014913        0.00015323
      67         -0.597850        1.000000        0.93004625        0.00048998        0.01042682        0.00744038
      68         -0.592421        1.000000        0.28499398        0.00344006        0.00093187        0.00024013
      69         -0.586031        1.000000        0.95361257        0.00341740        0.01816583        0.00704551
      70         -0.558691        1.000000        0.81934432        0.00660761        0.00755026        0.00496162
      71         -0.554687        1.000000        0.85662430        0.00284076        0.00224139        0.00385648
      72         -0.554190        1.000000        0.91591158        0.01039230        0.00334795        0.00203021
      73         -0.548734        1.000000        0.77468499        0.00432446        0.00376689        0.00256891
      74         -0.547747        1.000000        0.84247728        0.00314091        0.00628116        0.00296165
      75         -0.547066        1.000000        0.77078383        0.00322921        0.00302284        0.00277152
      76         -0.545352        1.000000        0.81350775        0.00313723        0.00308460        0.00297601
      77         -0.544826        1.000000        0.81762878        0.00311123        0.00269127        0.00307444
      78         -0.543194        1.000000        0.88126297        0.00212223        0.00244414        0.00254155
      79         -0.542053        1.000000        0.90945606        0.00208091        0.00274931        0.00217296
      80         -0.541511        1.000000        0.88453925        0.00255292        0.00214447        0.00243470
      81         -0.540678        1.000000        0.83306170        0.00169014        0.00358771        0.00354881
      82         -0.540163        1.000000        0.84248389        0.00218125        0.00188587        0.00159118
      83         -0.538635        1.000000        0.88997547        0.00154201        0.00172422        0.00156774
      84         -0.538134        1.000000        0.83847428        0.00136468        0.00112795        0.00148107
      85         -0.537983        1.000000        0.85200319        0.00071709        0.00283665        0.00321470
      86         -0.537559        1.000000        0.75326478        0.00056858        0.00100237        0.00133941
      87         -0.536472        1.000000        0.91049821        0.00096186        0.00079389        0.00148380
      88         -0.535224        1.000000        0.96127523        0.00340707        0.00926515        0.00436316
      89         -0.534509        1.000000        0.89021188        0.00142317        0.00047584        0.00047699
      90         -0.532481        1.000000        0.93510077        0.00096526        0.00077567        0.00272150
      91         -0.531673        1.000000        0.85750102        0.00131758        0.00172267        0.00262704
      92         -0.531451        1.000000        0.92413498        0.00130730        0.00044013        0.00100626
      93         -0.531317        1.000000        0.84490392        0.00290360        0.00176787        0.00334812
      94         -0.530385        1.000000        0.92813857        0.00134098        0.00051703        0.00074631
      95         -0.530160        1.000000        0.94528048        0.00092570        0.00036968        0.00063852
      96         -0.529032        1.000000        0.92710085        0.00075581        0.00077078        0.00110854
      97         -0.528850        1.000000        0.96072822        0.00054709        0.00059184        0.00065492
      98         -0.527353        1.000000        0.71717657        0.00128179        0.00147542        0.00142274
      99         -0.526757        1.000000        0.63718838        0.00099417        0.00134005        0.00093529
     100         -0.524044        1.000000        0.93412446        0.00068478        0.00056651        0.00106029
     101         -0.523732        1.000000        0.77688544        0.00437996        0.00109097        0.00209046
     102         -0.521915        1.000000        0.59353603        0.00061216        0.00109074        0.00112244
     103         -0.521331        1.000000        0.69292875        0.00051701        0.00050514        0.00120479
     104         -0.520021        1.000000        0.92853505        0.00011400        0.00098112        0.00084886
     105         -0.519774        1.000000        0.40120520        0.00230607        0.00031140        0.00062894
     106         -0.512851        1.000000        0.14572817        0.00253849        0.00214665        0.00124278
     107         -0.511241        1.000000        0.25693398        0.00300889        0.00135659        0.00174573
     108         -0.505146        1.000000        0.17743353        0.00353694        0.00243914        0.00159578
     109         -0.484800        1.000000        0.02814810        0.00139250        0.00346374        0.00051408
     110         -0.482290        1.000000        0.03060831        0.00033226        0.00390168        0.00165927
     111         -0.480614        1.000000        0.01045868        0.00087058        0.00149644        0.00032894
     112         -0.478497        1.000000        0.00055875        0.00005943        0.00004901        0.00003056
     113         -0.478252        1.000000        0.02836401        0.00297852        0.00025223        0.00015032
     114         -0.476290        1.000000        0.00364779        0.00035948        0.00059699        0.00011969
     115         -0.475619        1.000000        0.00643524        0.00105979        0.00026833        0.00006437
     116         -0.475360        1.000000        0.03020582        0.00026420        0.00365849        0.00013510
     117         -0.473721        1.000000        0.00089465        0.00020520        0.00073955        0.00008233
     118         -0.471448        1.000000        0.00428088        0.00062942        0.00044707        0.00171283
     119         -0.471418        1.000000        0.01590265        0.00293934        0.00152607        0.00122963
     120         -0.471117        1.000000        0.01189269        0.00157462        0.00106421        0.00292102
     121         -0.470814        1.000000        0.00899427        0.00036159        0.00026901        0.00159779
     122         -0.469804        1.000000        0.01365788        0.00291351        0.00010688        0.00288646
     123         -0.469009        1.000000        0.00303589        0.00039632        0.00031595        0.00071179
     124         -0.466799        1.000000        0.00728367        0.00466413        0.00044607        0.00043355
     125         -0.466335        1.000000        0.00070405        0.00020654        0.00024926        0.00004515
     126         -0.465564        1.000000        0.00667307        0.00213345        0.00021916        0.00035148
     127         -0.464955        1.000000        0.00490765        0.00096489        0.00108182        0.00039964
     128         -0.464137        1.000000        0.00708224        0.00022119        0.00173057        0.00012652
     129         -0.463453        1.000000        0.00432023        0.00073811        0.00076202        0.00043492
     130         -0.461970        1.000000        0.00289828        0.00150361        0.00063646        0.00084063
     131         -0.461082        1.000000        0.00011630        0.00003083        0.00006565        0.00001001
     132         -0.460238        1.000000        0.00337540        0.00013032        0.00147604        0.00049789
     133         -0.459325        1.000000        0.00166566        0.00045341        0.00043936        0.00085829
     134         -0.457852        1.000000        0.00180192        0.00018880        0.00175635        0.00022726
     135         -0.456720        1.000000        0.00553923        0.00059054        0.00024392        0.00358486
     136         -0.456091        1.000000        0.00327269        0.00132748        0.00012697        0.00365067
     137         -0.453784        1.000000        0.00129412        0.00080176        0.00024505        0.00006568
     138         -0.452347        1.000000        0.00006263        0.00004148        0.00002643        0.00000456
     139         -0.450072        1.000000        0.01079118        0.00030874        0.00050964        0.00560438
     140         -0.448678        1.000000        0.01188587        0.00123931        0.00361614        0.00190106
     141         -0.448069        1.000000        0.00028985        0.00003601        0.00015742        0.00015398
     142         -0.446532        1.000000        0.00249898        0.00087132        0.00130295        0.00028600
     143         -0.445898        1.000000        0.00415172        0.00146814        0.00027333        0.00030983
     144         -0.441709        1.000000        0.00127491        0.00031214        0.00411368        0.00162312
     145         -0.441222        1.000000        0.00276313        0.00150204        0.00022016        0.00054793
     146         -0.440055        1.000000        0.00087873        0.00008694        0.00054716        0.00038591
     147         -0.436759        1.000000        0.00418268        0.00207592        0.00087009        0.00251751
     148         -0.434223        1.000000        0.00340203        0.00011293        0.00179628        0.00069400
     149         -0.432973        1.000000        0.00058751        0.00027588        0.00011015        0.00043818
     150         -0.432200        1.000000        0.00083589        0.00110978        0.00104503        0.00103249
     151         -0.432020        1.000000        0.00388530        0.00169308        0.00162390        0.00205433
     152         -0.431792        1.000000        0.00142248        0.00037834        0.00138296        0.00020927
     153         -0.431310        1.000000        0.00229329        0.00146904        0.00179951        0.00145837
     154         -0.428266        1.000000        0.00500964        0.00308138        0.00255403        0.00154674
     155         -0.426121        1.000000        0.16127447        0.04373294        0.03969476        0.04249277
     156         -0.422657        1.000000        0.00557930        0.00166262        0.00065410        0.00186584
     157         -0.422312        1.000000        0.00608095        0.00458129        0.00194592        0.00379877
     158         -0.419809        1.000000        0.05584943        0.02314885        0.01750868        0.02039290
     159         -0.419368        1.000000        0.00192711        0.00070641        0.00059586        0.00055566
     160         -0.419078        1.000000        0.07433171        0.02706000        0.02078161        0.02196139
     161         -0.418296        1.000000        0.02996556        0.01028243        0.01138165        0.00915091
     162         -0.417748        1.000000        0.08724056        0.03032772        0.02642011        0.02234823
     163         -0.415166        1.000000        0.10405749        0.02635136        0.02677924        0.03235771
     164         -0.412470        1.000000        0.11728987        0.03303016        0.03508552        0.03302140
     165         -0.411946        1.000000        0.04142744        0.00866840        0.00923796        0.01021241
     166         -0.410851        1.000000        0.13128659        0.03154611        0.02981188        0.03129060
     167         -0.410602        1.000000        0.12820502        0.02812057        0.03554605        0.03260574
     168         -0.408346        1.000000        0.06527507        0.01736821        0.01114460        0.02306588
     169         -0.405340        1.000000        0.07416349        0.01322150        0.01279409        0.01641353
     170         -0.401954        1.000000        0.00662545        0.00167744        0.00219959        0.00094957
     171         -0.401116        1.000000        0.00066828        0.00031011        0.00010235        0.00014560
     172         -0.399279        1.000000        0.00002152        0.00005935        0.00000249        0.00000263
     173         -0.395178        1.000000        0.00008181        0.00002773        0.00014549        0.00002889
     174         -0.394409        1.000000        0.00051620        0.00015202        0.00016364        0.00051574
     175         -0.393405        1.000000        0.00011472        0.00002341        0.00005285        0.00009917
     176         -0.393253        1.000000        0.00166503        0.00017156        0.00082784        0.00194817
     177         -0.392962        1.000000        0.00003015        0.00007845        0.00004499        0.00000887
     178         -0.388707        1.000000        0.00007267        0.00007546        0.00012889        0.00006467
     179         -0.386226        1.000000        0.00067041        0.00075852        0.00082916        0.00104624
     180         -0.384477        1.000000        0.00093823        0.00105918        0.00110833        0.00117743
     181         -0.383792        1.000000        0.00007182        0.00002080        0.00005338        0.00008013
     182         -0.377931        1.000000        0.00043800        0.00048717        0.00075304        0.00062315
     183         -0.372862        1.000000        0.00106734        0.00239388        0.00280428        0.00453835
     184         -0.371486        1.000000        0.00111879        0.00110551        0.00288532        0.00084604
     185         -0.369170        1.000000        0.00266331        0.00415971        0.01403895        0.00898070
     186         -0.368123        1.000000        0.00158494        0.00185786        0.00131343        0.00325793
     187         -0.366394        1.000000        0.00149778        0.00176939        0.00202509        0.00371238
     188         -0.365382        1.000000        0.00126753        0.00229541        0.00092182        0.00281121
     189         -0.359675        1.000000        0.00922180        0.06857250        0.02071153        0.00914531
     190         -0.356031        1.000000        0.00137239        0.00325997        0.00315304        0.00092227
     191         -0.354374        1.000000        0.00084522        0.00205476        0.00358253        0.00071942
     192         -0.351292        1.000000        0.00012681        0.00029261        0.00053762        0.00032013
     193         -0.344841        1.000000        0.00057953        0.00140153        0.00199997        0.00112025
     194         -0.343469        1.000000        0.00070501        0.00284816        0.00178321        0.00180719
     195         -0.339012        1.000000        0.00275720        0.01331779        0.01930390        0.00511306
     196         -0.331568        1.000000        0.00097322        0.00810276        0.00382663        0.00170370
     197         -0.331046        1.000000        0.00024372        0.00120916        0.00103401        0.00115656
     198         -0.330942        1.000000        0.00537988        0.07812407        0.01407648        0.00175340
     199         -0.329775        1.000000        0.00074243        0.00243402        0.00234208        0.00190747
     200         -0.323787        1.000000        0.00011030        0.00047015        0.00063346        0.00054223
     201         -0.323668        1.000000        0.00081295        0.00122221        0.00356358        0.00265268
     202         -0.317185        1.000000        0.00057307        0.00878344        0.00473765        0.00207705
     203         -0.315738        1.000000        0.00092393        0.00191855        0.00420764        0.00428667
     204         -0.315517        1.000000        0.00048678        0.00234671        0.00234204        0.00354679
     205         -0.315077        1.000000        0.00044644        0.00129173        0.00178315        0.00087311
     206         -0.309991        1.000000        0.00011738        0.00036947        0.00115084        0.00015075
     207         -0.308336        1.000000        0.00849894        0.00115974        0.16798158        0.09262186
     208         -0.306734        1.000000        0.00057660        0.00212072        0.00188239        0.00273223
     209         -0.305037        1.000000        0.00000506        0.00015769        0.00011896        0.00022953
     210         -0.303059        1.000000        0.00826122        0.04294909        0.12845428        0.04951752
     211         -0.300356        1.000000        0.00129749        0.02458447        0.00396247        0.00491248
     212         -0.299319        1.000000        0.00488978        0.20173480        0.03376288        0.00232373
     213         -0.298110        1.000000        0.00042446        0.00265690        0.00096332        0.00300513
     214         -0.291742        1.000000        0.00057773        0.00215939        0.00590181        0.00523161
     215         -0.289684        1.000000        0.00766693        0.00947234        0.18893026        0.12333539
     216         -0.289463        1.000000        0.00073390        0.00179850        0.00175660        0.01461105
     217         -0.289058        1.000000        0.00007176        0.00191720        0.00056536        0.00010465
     218         -0.281854        1.000000        0.00001091        0.00085878        0.00005897        0.00239938
     219         -0.280522        1.000000        0.00004525        0.00071434        0.00144835        0.00098611
     220         -0.277272        1.000000        0.00016063        0.00325653        0.00482655        0.00076043
     221         -0.276905        1.000000        0.01012032        0.04582083        0.17169468        0.12930236
     222         -0.276109        1.000000        0.00040805        0.00178161        0.00421332        0.00187227
     223         -0.270065        1.000000        0.00024527        0.00701999        0.00916834        0.00475006
     224         -0.269165        1.000000        0.00067729        0.00349204        0.00602827        0.00699421
     225         -0.267331        1.000000        0.00316661        0.11897259        0.03949162        0.02440037
     226         -0.261564        1.000000        0.00152268        0.02555159        0.02763319        0.00703447
     227         -0.258850        1.000000        0.00008877        0.00177058        0.00318221        0.00114323
     228         -0.252610        1.000000        0.00035111        0.01119739        0.03736972        0.06050912
     229         -0.249277        1.000000        0.00012701        0.02550183        0.01647536        0.00164271
     230         -0.247858        1.000000        0.00014491        0.00790726        0.00437470        0.00192226
     231         -0.244117        1.000000        0.00136723        0.03120544        0.01836530        0.01505562
     232         -0.244007        1.000000        0.00121086        0.04262068        0.01606232        0.01872259
     233         -0.242677        1.000000        0.00418109        0.07767775        0.05857703        0.02350155
     234         -0.241027        1.000000        0.00533838        0.11673616        0.19917893        0.08473832
     235         -0.240149        1.000000        0.00574791        0.16122069        0.10193127        0.09593364
     236         -0.240096        1.000000        0.00415732        0.17502564        0.07341245        0.07406672
     237         -0.238732        1.000000        0.00084294        0.02643961        0.06068201        0.02751259
     238         -0.237975        1.000000        0.00278366        0.24124286        0.06225356        0.05619008
     239         -0.237606        1.000000        0.00324767        0.07289814        0.11370527        0.16649450
     240         -0.237094        1.000000        0.00063927        0.09028959        0.04048400        0.05630177
     241         -0.236081        1.000000        0.00354621        0.07170350        0.07277104        0.08744465
     242         -0.235433        1.000000        0.00436479        0.02072433        0.10458561        0.10947493
     243         -0.234400        1.000000        0.00529030        0.13155208        0.06884424        0.02042996
     244         -0.234307        1.000000        0.00084259        0.02189816        0.01110587        0.00448031
     245         -0.233472        1.000000        0.00104780        0.01082414        0.05934585        0.00961618
     246         -0.233320        1.000000        0.00116970        0.01202064        0.03221313        0.03327329
     247         -0.231894        1.000000        0.00481799        0.03431084        0.24871879        0.04357242
     248         -0.230969        1.000000        0.00118934        0.08236656        0.03191483        0.03670720
     249         -0.230841        1.000000        0.00014182        0.00884240        0.00777310        0.00349920
     250         -0.230586        1.000000        0.00490929        0.07577099        0.11204110        0.16161808
     251         -0.230114        1.000000        0.00490960        0.14566876        0.07248467        0.06708838
     252         -0.229105        1.000000        0.00608918        0.12596146        0.15443314        0.05672467
     253         -0.228691        1.000000        0.00478472        0.09937313        0.08784553        0.05506640
     254         -0.227675        1.000000        0.00588117        0.17006708        0.08258169        0.16324695
     255         -0.226987        1.000000        0.00353551        0.07229885        0.04426444        0.14425975
     256         -0.226320        1.000000        0.00891138        0.11339504        0.12656358        0.22439286
     257         -0.225338        1.000000        0.00827470        0.07743188        0.18713629        0.16950159
     258         -0.224360        1.000000        0.00893024        0.11867110        0.16555667        0.23674478
     259         -0.222231        1.000000        0.00511809        0.17520936        0.04675204        0.06788076