# Projected DOS for atomic kind H at iteration step i = 0, E(Fermi) =    -0.140801 a.u.
#     MO Eigenvalue [a.u.]      Occupation                 s
       1         -0.918289        1.000000        0.25328437
       2         -0.918184        1.000000        0.25500804
       3         -0.917336        1.000000        0.26220053
       4         -0.916464        1.000000        0.25432802
       5         -0.914818        1.000000        0.25949351
       6         -0.914021        1.000000        0.26344565
       7         -0.912293        1.000000        0.25384174
       8         -0.910096        1.000000        0.25562913
       9         -0.909562        1.000000        0.25554195
      10         -0.909462        1.000000        0.25840111
      11         -0.909395        1.000000        0.28254671
      12         -0.903188        1.000000        0.25601030
      13         -0.903125        1.000000        0.25408968
      14         -0.902194        1.000000        0.28002937
      15         -0.900076        1.000000        0.25502627
      16         -0.893753        1.000000        0.25427355
      17         -0.892704        1.000000        0.25494875
      18         -0.891893        1.000000        0.28088986
      19         -0.890781        1.000000        0.25541623
      20         -0.889801        1.000000        0.23994328
      21         -0.889520        1.000000        0.24156582
      22         -0.887757        1.000000        0.25406538
      23         -0.884247        1.000000        0.25440063
      24         -0.878472        1.000000        0.25336418
      25         -0.877991        1.000000        0.21819147
      26         -0.877738        1.000000        0.25490781
      27         -0.876708        1.000000        0.25886823
      28         -0.876491        1.000000        0.23485680
      29         -0.874507        1.000000        0.25407357
      30         -0.873102        1.000000        0.26073765
      31         -0.865978        1.000000        0.22245241
      32         -0.860847        1.000000        0.25737795
      33         -0.860690        1.000000        0.27058879
      34         -0.859985        1.000000        0.25440732
      35         -0.856852        1.000000        0.19421188
      36         -0.854409        1.000000        0.25573017
      37         -0.854327        1.000000        0.24562759
      38         -0.853025        1.000000        0.25158532
      39         -0.850734        1.000000        0.22584112
      40         -0.850517        1.000000        0.17360891
      41         -0.850068        1.000000        0.23947970
      42         -0.847880        1.000000        0.25417568
      43         -0.847295        1.000000        0.25752280
      44         -0.844903        1.000000        0.23190541
      45         -0.837256        1.000000        0.25756555
      46         -0.836957        1.000000        0.24580228
      47         -0.835204        1.000000        0.16186828
      48         -0.832598        1.000000        0.24520990
      49         -0.831729        1.000000        0.25608524
      50         -0.830752        1.000000        0.23399984
      51         -0.828972        1.000000        0.25619875
      52         -0.828492        1.000000        0.24883748
      53         -0.827727        1.000000        0.23998109
      54         -0.826564        1.000000        0.25004271
      55         -0.824342        1.000000        0.24507734
      56         -0.823512        1.000000        0.24362221
      57         -0.820872        1.000000        0.25402948
      58         -0.817522        1.000000        0.23741262
      59         -0.811417        1.000000        0.19931735
      60         -0.652791        1.000000        0.34995669
      61         -0.650005        1.000000        0.34232769
      62         -0.637610        1.000000        0.34702218
      63         -0.623485        1.000000        0.36487868
      64         -0.607032        1.000000        0.36976478
      65         -0.599724        1.000000        0.10792688
      66         -0.599381        1.000000        0.36993594
      67         -0.597916        1.000000        0.01004355
      68         -0.592449        1.000000        0.25646708
      69         -0.586069        1.000000        0.00192691
      70         -0.558703        1.000000        0.00317075
      71         -0.555014        1.000000        0.02261035
      72         -0.554545        1.000000        0.00742364
      73         -0.549407        1.000000        0.04611794
      74         -0.548070        1.000000        0.01433677
      75         -0.547842        1.000000        0.04197558
      76         -0.545876        1.000000        0.04545590
      77         -0.545141        1.000000        0.02935865
      78         -0.543479        1.000000        0.02078126
      79         -0.542315        1.000000        0.01452988
      80         -0.541760        1.000000        0.03014272
      81         -0.541152        1.000000        0.04072330
      82         -0.540562        1.000000        0.04165350
      83         -0.539253        1.000000        0.03507360
      84         -0.538577        1.000000        0.03400490
      85         -0.538348        1.000000        0.05436351
      86         -0.538060        1.000000        0.05344785
      87         -0.536763        1.000000        0.01056429
      88         -0.535289        1.000000        0.00374564
      89         -0.535211        1.000000        0.00750758
      90         -0.533158        1.000000        0.01012767
      91         -0.532794        1.000000        0.00955683
      92         -0.532483        1.000000        0.03864882
      93         -0.531614        1.000000        0.01703431
      94         -0.531517        1.000000        0.00400165
      95         -0.530431        1.000000        0.02559510
      96         -0.529584        1.000000        0.00636555
      97         -0.529163        1.000000        0.01960689
      98         -0.527843        1.000000        0.13296697
      99         -0.527153        1.000000        0.06655090
     100         -0.525919        1.000000        0.03697112
     101         -0.524078        1.000000        0.01526932
     102         -0.522929        1.000000        0.03847549
     103         -0.521803        1.000000        0.17864534
     104         -0.520318        1.000000        0.20157409
     105         -0.520271        1.000000        0.02385602
     106         -0.512899        1.000000        0.27403986
     107         -0.511506        1.000000        0.22982197
     108         -0.505322        1.000000        0.25659640
     109         -0.484836        1.000000        0.31949821
     110         -0.482346        1.000000        0.33971020
     111         -0.480651        1.000000        0.31802232
     112         -0.478529        1.000000        0.36043437
     113         -0.478278        1.000000        0.33716733
     114         -0.476330        1.000000        0.33921217
     115         -0.475655        1.000000        0.34023041
     116         -0.475433        1.000000        0.33963871
     117         -0.473746        1.000000        0.35851859
     118         -0.471489        1.000000        0.34324388
     119         -0.471446        1.000000        0.34307400
     120         -0.471147        1.000000        0.34387096
     121         -0.470836        1.000000        0.34923607
     122         -0.469831        1.000000        0.34494648
     123         -0.469036        1.000000        0.35435498
     124         -0.466834        1.000000        0.34106953
     125         -0.466386        1.000000        0.32611438
     126         -0.465598        1.000000        0.33058300
     127         -0.464988        1.000000        0.35061608
     128         -0.464187        1.000000        0.34187969
     129         -0.463494        1.000000        0.33487991
     130         -0.462003        1.000000        0.33912365
     131         -0.461100        1.000000        0.36083833
     132         -0.460282        1.000000        0.35008943
     133         -0.459378        1.000000        0.32832208
     134         -0.457882        1.000000        0.34671425
     135         -0.456740        1.000000        0.35865744
     136         -0.456085        1.000000        0.35967009
     137         -0.453820        1.000000        0.33950316
     138         -0.452381        1.000000        0.34754528
     139         -0.450098        1.000000        0.35317861
     140         -0.448763        1.000000        0.35001109
     141         -0.448105        1.000000        0.34863788
     142         -0.446555        1.000000        0.35916364
     143         -0.445935        1.000000        0.33379799
     144         -0.441753        1.000000        0.32764820
     145         -0.441261        1.000000        0.32903351
     146         -0.440104        1.000000        0.34379209
     147         -0.436784        1.000000        0.35709531
     148         -0.434260        1.000000        0.33677091
     149         -0.433029        1.000000        0.33272568
     150         -0.432327        1.000000        0.34048308
     151         -0.432059        1.000000        0.18907754
     152         -0.431849        1.000000        0.35208644
     153         -0.431342        1.000000        0.17813439
     154         -0.428307        1.000000        0.35009620
     155         -0.426133        1.000000        0.01656524
     156         -0.422677        1.000000        0.34012218
     157         -0.422386        1.000000        0.32503787
     158         -0.420223        1.000000        0.07965770
     159         -0.419391        1.000000        0.36604095
     160         -0.419029        1.000000        0.19125518
     161         -0.418408        1.000000        0.13637659
     162         -0.418094        1.000000        0.13971631
     163         -0.415328        1.000000        0.07245288
     164         -0.412855        1.000000        0.02372390
     165         -0.412112        1.000000        0.25175246
     166         -0.411326        1.000000        0.03435689
     167         -0.410864        1.000000        0.00783910
     168         -0.408553        1.000000        0.18095399
     169         -0.405448        1.000000        0.18337378
     170         -0.401980        1.000000        0.17075332
     171         -0.401102        1.000000        0.35634627
     172         -0.401065        1.000000        0.35699082
     173         -0.395207        1.000000        0.36976538
     174         -0.394875        1.000000        0.35521433
     175         -0.394027        1.000000        0.34797606
     176         -0.393307        1.000000        0.36684823
     177         -0.393005        1.000000        0.35933252
     178         -0.388781        1.000000        0.34557626
     179         -0.386142        1.000000        0.36738310
     180         -0.384513        1.000000        0.17656259
     181         -0.383795        1.000000        0.36342748
     182         -0.377963        1.000000        0.17597712
     183         -0.372901        1.000000        0.18291113
     184         -0.371535        1.000000        0.42180503
     185         -0.369205        1.000000        0.17310667
     186         -0.368154        1.000000        0.41911940
     187         -0.366427        1.000000        0.41940883
     188         -0.365427        1.000000        0.42004773
     189         -0.359692        1.000000        0.15436439
     190         -0.356057        1.000000        0.41564686
     191         -0.354411        1.000000        0.40861821
     192         -0.351317        1.000000        0.37024957
     193         -0.344866        1.000000        0.43098727
     194         -0.343513        1.000000        0.34455782
     195         -0.339040        1.000000        0.15988809
     196         -0.331607        1.000000        0.25976772
     197         -0.331082        1.000000        0.35137856
     198         -0.330962        1.000000        0.11330648
     199         -0.329819        1.000000        0.42683952
     200         -0.323823        1.000000        0.41209242
     201         -0.323707        1.000000        0.20562929
     202         -0.317290        1.000000        0.11258373
     203         -0.315769        1.000000        0.11092583
     204         -0.315544        1.000000        0.41205664
     205         -0.315110        1.000000        0.15695727
     206         -0.310015        1.000000        0.13934689
     207         -0.308372        1.000000        0.06011153
     208         -0.306761        1.000000        0.13136065
     209         -0.305054        1.000000        0.10424540
     210         -0.303092        1.000000        0.06291554
     211         -0.300400        1.000000        0.17412544
     212         -0.299339        1.000000        0.06188172
     213         -0.298135        1.000000        0.13376204
     214         -0.291594        1.000000        0.11035499
     215         -0.289727        1.000000        0.03848782
     216         -0.289555        1.000000        0.10837457
     217         -0.289054        1.000000        0.09885352
     218         -0.282399        1.000000        0.09580236
     219         -0.280804        1.000000        0.10278005
     220         -0.277317        1.000000        0.10912798
     221         -0.276937        1.000000        0.03436007
     222         -0.276140        1.000000        0.11320751
     223         -0.270105        1.000000        0.11348845
     224         -0.269191        1.000000        0.09595556
     225         -0.267359        1.000000        0.04739162
     226         -0.261662        1.000000        0.05391652
     227         -0.258873        1.000000        0.07361693
     228         -0.252652        1.000000        0.03796662
     229         -0.249442        1.000000        0.07385321
     230         -0.247890        1.000000        0.05329689
     231         -0.244108        1.000000        0.01756379
     232         -0.244045        1.000000        0.01698562
     233         -0.242700        1.000000        0.03182036
     234         -0.241101        1.000000        0.00606043
     235         -0.240508        1.000000        0.00752204
     236         -0.240175        1.000000        0.00493274
     237         -0.238764        1.000000        0.00789753
     238         -0.238196        1.000000        0.01913419
     239         -0.237951        1.000000        0.02003222
     240         -0.237170        1.000000        0.00291451
     241         -0.236132        1.000000        0.03385966
     242         -0.235482        1.000000        0.02257952
     243         -0.234458        1.000000        0.01866885
     244         -0.234353        1.000000        0.02627509
     245         -0.233503        1.000000        0.06439119
     246         -0.233356        1.000000        0.05420457
     247         -0.232008        1.000000        0.01706306
     248         -0.231077        1.000000        0.01239236
     249         -0.230867        1.000000        0.00214617
     250         -0.230707        1.000000        0.01086514
     251         -0.230283        1.000000        0.01217937
     252         -0.229290        1.000000        0.00873708
     253         -0.228883        1.000000        0.02250600
     254         -0.228512        1.000000        0.01324553
     255         -0.227230        1.000000        0.01398325
     256         -0.226870        1.000000        0.01248336
     257         -0.225601        1.000000        0.02014986
     258         -0.224956        1.000000        0.00777380
     259         -0.223294        1.000000        0.00841210
     260         -0.222521        1.000000        0.01570279
     261         -0.222179        1.000000        0.02441737
     262         -0.221302        1.000000        0.05557489
     263         -0.220097        1.000000        0.00606715
     264         -0.219266        1.000000        0.00575254
     265         -0.218618        1.000000        0.00314658
     266         -0.217771        1.000000        0.00969871
     267         -0.217488        1.000000        0.01592238
     268         -0.217171        1.000000        0.02140415
     269         -0.216910        1.000000        0.02566100
     270         -0.216808        1.000000        0.03310258
     271         -0.215891        1.000000        0.03260393
     272         -0.215483        1.000000        0.00605387
     273         -0.214442        1.000000        0.00613268
     274         -0.213561        1.000000        0.00973164
     275         -0.212654        1.000000        0.01000149
     276         -0.212180        1.000000        0.04361659
     277         -0.212114        1.000000        0.03402977
     278         -0.211895        1.000000        0.01221419
     279         -0.211221        1.000000        0.03432918
     280         -0.211004        1.000000        0.07120960
     281         -0.210896        1.000000        0.05357609
     282         -0.210676        1.000000        0.00381412
     283         -0.209455        1.000000        0.00682477
     284         -0.208633        1.000000        0.01227046
     285         -0.207589        1.000000        0.00330550
     286         -0.207103        1.000000        0.01657966
     287         -0.207015        1.000000        0.00431524
     288         -0.206352        1.000000        0.02074557
     289         -0.205995        1.000000        0.00453660
     290         -0.205548        1.000000        0.00671580
     291         -0.204979        1.000000        0.00819741
     292         -0.204120        1.000000        0.00566237
     293         -0.203690        1.000000        0.01730460
     294         -0.202269        1.000000        0.00681002
     295         -0.201283        1.000000        0.00572181
     296         -0.201259        1.000000        0.02233794
     297         -0.200651        1.000000        0.01610015
     298         -0.200215        1.000000        0.00554891
     299         -0.199630        1.000000        0.05787230
     300         -0.198886        1.000000        0.00532409
     301         -0.198743        1.000000        0.00542631
     302         -0.198098        1.000000        0.00773467
     303         -0.195786        1.000000        0.02789761
     304         -0.194945        1.000000        0.01610223
     305         -0.194518        1.000000        0.01141463
     306         -0.192965        1.000000        0.01180938
     307         -0.192866        1.000000        0.03115997
     308         -0.192430        1.000000        0.00398722
     309         -0.192154        1.000000        0.01025958
     310         -0.190840        1.000000        0.04356608
     311         -0.190426        1.000000        0.00472809
     312         -0.190093        1.000000        0.00315306
     313         -0.189960        1.000000        0.00219270
     314         -0.189473        1.000000        0.00305646
     315         -0.188548        1.000000        0.01376328
     316         -0.186984        1.000000        0.00351289
     317         -0.186783        1.000000        0.01189353
     318         -0.185409        1.000000        0.01153875
     319         -0.184469        1.000000        0.00275305
     320         -0.182960        1.000000        0.00217904
     321         -0.182446        1.000000        0.00175570
     322         -0.181440        1.000000        0.00150425
     323         -0.180893        1.000000        0.00228704
     324         -0.179869        1.000000        0.00280918
     325         -0.179460        1.000000        0.00245804
     326         -0.178964        1.000000        0.00268160
     327         -0.177661        1.000000        0.00630056
     328         -0.177162        1.000000        0.00255110
     329         -0.176066        1.000000        0.00270825
     330         -0.175453        1.000000        0.00164327
     331         -0.175138        1.000000        0.00284804
     332         -0.174882        1.000000        0.00135471
     333         -0.174587        1.000000        0.00140675
     334         -0.174545        1.000000        0.00055303
     335         -0.174073        1.000000        0.00139214
     336         -0.173011        1.000000        0.00155837
     337         -0.172560        1.000000        0.00155527
     338         -0.172414        1.000000        0.00163551
     339         -0.171498        1.000000        0.00213592
     340         -0.170818        1.000000        0.00104623
     341         -0.170255        1.000000        0.00143511
     342         -0.169329        1.000000        0.00136234
     343         -0.168835        1.000000        0.00119953
     344         -0.168237        1.000000        0.00158352
     345         -0.166975        1.000000        0.00139191
     346         -0.166797        1.000000        0.00127377
     347         -0.166649        1.000000        0.00126221
     348         -0.166126        1.000000        0.00117575
     349         -0.165942        1.000000        0.00124373
     350         -0.165391        1.000000        0.00230332
     351         -0.165301        1.000000        0.00170750
     352         -0.164569        1.000000        0.00116153
     353         -0.164151        1.000000        0.00109748
     354         -0.163782        1.000000        0.00149305
     355         -0.163359        1.000000        0.00083134
     356         -0.163031        1.000000        0.00112005
     357         -0.162362        1.000000        0.00102321
     358         -0.162199        1.000000        0.00189433
     359         -0.161570        1.000000        0.00119019
     360         -0.161266        1.000000        0.00077122
     361         -0.161108        1.000000        0.00126840
     362         -0.160841        1.000000        0.00130248
     363         -0.160424        1.000000        0.00100787
     364         -0.159973        1.000000        0.00070945
     365         -0.159659        1.000000        0.00103098
     366         -0.159261        1.000000        0.00061100
     367         -0.158958        1.000000        0.00081663
     368         -0.158854        1.000000        0.00091724
     369         -0.158809        1.000000        0.00118308
     370         -0.158242        1.000000        0.00097271
     371         -0.157664        1.000000        0.00104681
     372         -0.156936        1.000000        0.00088407
     373         -0.156752        1.000000        0.00071588
     374         -0.156694        1.000000        0.00071798
     375         -0.155890        1.000000        0.00061615
     376         -0.155744        1.000000        0.00063828
     377         -0.154797        1.000000        0.00085424
     378         -0.154019        1.000000        0.00051747
     379         -0.153517        1.000000        0.00050437
     380         -0.152634        1.000000        0.00045849
     381         -0.152310        1.000000        0.00034798
     382         -0.152020        1.000000        0.00055936
     383         -0.151714        1.000000        0.00038603
     384         -0.150551        1.000000        0.00013731
     385         -0.150134        1.000000        0.00053237
     386         -0.149639        1.000000        0.00028866
     387         -0.149291        1.000000        0.00050055
     388         -0.148839        1.000000        0.00123417
     389         -0.148252        1.000000        0.00053051
     390         -0.148169        1.000000        0.00032845
     391         -0.147790        1.000000        0.00026999
     392         -0.147427        1.000000        0.00020759
     393         -0.147141        1.000000        0.00039497
     394         -0.147048        1.000000        0.00037834
     395         -0.146021        1.000000        0.00053145
     396         -0.145264        1.000000        0.00019492
     397         -0.145222        1.000000        0.00039891
     398         -0.144696        1.000000        0.00042218
     399         -0.143755        1.000000        0.00017558
     400         -0.142487        1.000000        0.00017573
     401         -0.141804        1.000000        0.00022599
     402         -0.140973        1.000000        0.00054443
     403         -0.140801        1.000000        0.00080111
     404         -0.140790        0.000000        0.00044709
     405         -0.140249        0.000000        0.00045947
     406         -0.136836        0.000000        0.00028006
     407         -0.101558        0.000000        0.00565698
     408         -0.097705        0.000000        0.00252112
     409         -0.091024        0.000000        0.00249726
     410         -0.033610        0.000000        0.00107371
     411         -0.028708        0.000000        0.00112014
     412         -0.026087        0.000000        0.00073956
     413         -0.023855        0.000000        0.00060710
     414         -0.021169        0.000000        0.00038174
     415         -0.019222        0.000000        0.00084432
     416         -0.015448        0.000000        0.00131489
     417         -0.013100        0.000000        0.00050591
     418         -0.011272        0.000000        0.00091349
     419         -0.006904        0.000000        0.00039640
     420         -0.006411        0.000000        0.00061837
     421         -0.003364        0.000000        0.00045831
     422         -0.001426        0.000000        0.00041243
     423          0.001194        0.000000        0.00056102
     424          0.003457        0.000000        0.00057403
     425          0.004452        0.000000        0.00066535
     426          0.005356        0.000000        0.00042557
     427          0.007767        0.000000        0.00103655
     428          0.011069        0.000000        0.00040781
     429          0.012179        0.000000        0.00047901
     430          0.020402        0.000000        0.00029578
     431          0.021315        0.000000        0.00025980
     432          0.023241        0.000000        0.00070475
     433          0.025605        0.000000        0.00058971
     434          0.132739        0.000000        0.00357374
     435          0.138747        0.000000        0.00432022
     436          0.151035        0.000000        0.00441403
     437          0.176612        0.000000        0.00704673
     438          0.202193        0.000000        0.00654114
     439          0.208367        0.000000        0.00553961
     440          0.211039        0.000000        0.00944235
     441          0.289258        0.000000        0.69621681
     442          0.295520        0.000000        0.68813374
     443          0.296122        0.000000        0.68507394
     444          0.299100        0.000000        0.67508506
     445          0.304710        0.000000        0.68913133
     446          0.305861        0.000000        0.68336839
     447          0.307185        0.000000        0.67831723
     448          0.307979        0.000000        0.68816956
     449          0.312109        0.000000        0.68018699
     450          0.313539        0.000000        0.68435967
     451          0.314224        0.000000        0.67656555
     452          0.321098        0.000000        0.66420460
     453          0.322072        0.000000        0.68249804
     454          0.322744        0.000000        0.67264307
     455          0.326210        0.000000        0.67516964
     456          0.326408        0.000000        0.67285422
     457          0.326800        0.000000        0.67235853
     458          0.328616        0.000000        0.66428931
     459          0.330793        0.000000        0.67519481
     460          0.332617        0.000000        0.67588714
     461          0.334298        0.000000        0.67022257
     462          0.337949        0.000000        0.66774708
     463          0.340239        0.000000        0.68348630
     464          0.344011        0.000000        0.66832387
     465          0.345156        0.000000        0.66646261
     466          0.348433        0.000000        0.67983239
     467          0.349841        0.000000        0.66276226
     468          0.351392        0.000000        0.66858765
     469          0.352196        0.000000        0.66893066
     470          0.352209        0.000000        0.66692574
     471          0.356328        0.000000        0.66623627
     472          0.361032        0.000000        0.65751390
     473          0.362037        0.000000        0.66260694
     474          0.364728        0.000000        0.66479095
     475          0.364965        0.000000        0.63567253
     476          0.367215        0.000000        0.66250643
     477          0.369488        0.000000        0.66138636
     478          0.369698        0.000000        0.66288694
     479          0.373902        0.000000        0.65747882
     480          0.377417        0.000000        0.65799435
     481          0.378947        0.000000        0.65007192
     482          0.379197        0.000000        0.64765076
     483          0.380567        0.000000        0.65416136
     484          0.380893        0.000000        0.64449941
     485          0.382672        0.000000        0.66105616
     486          0.383129        0.000000        0.65790438
     487          0.383994        0.000000        0.65596292
     488          0.387095        0.000000        0.64746583
     489          0.387637        0.000000        0.64787116