# Projected DOS for atomic kind O at iteration step i = 0, E(Fermi) =    -0.140463 a.u.
#     MO Eigenvalue [a.u.]      Occupation                 s                py                pz                px
       1         -0.918269        1.000000        0.70424486        0.01552338        0.02616685        0.00073461
       2         -0.918157        1.000000        0.71279992        0.00172452        0.00372965        0.02633298
       3         -0.917318        1.000000        0.71429385        0.00692416        0.00112011        0.01508289
       4         -0.916432        1.000000        0.70728821        0.02215526        0.01155812        0.00410028
       5         -0.914802        1.000000        0.71205128        0.01731189        0.01023811        0.00032210
       6         -0.914002        1.000000        0.70845449        0.00234901        0.00210726        0.02251981
       7         -0.912278        1.000000        0.70811348        0.01106238        0.00439844        0.02245337
       8         -0.910079        1.000000        0.70832773        0.00168414        0.02706258        0.00609534
       9         -0.909540        1.000000        0.70916204        0.00201696        0.00054484        0.03252325
      10         -0.909443        1.000000        0.71286355        0.00244123        0.01417572        0.01128670
      11         -0.909377        1.000000        0.00004416        0.00000014        0.00000051        0.00000129
      12         -0.903173        1.000000        0.71313306        0.00240684        0.01764841        0.00998486
      13         -0.903132        1.000000        0.70349831        0.02314266        0.00432272        0.01477487
      14         -0.902169        1.000000        0.00003647        0.00000035        0.00000108        0.00000131
      15         -0.900055        1.000000        0.72553802        0.00438717        0.00294805        0.01059642
      16         -0.893720        1.000000        0.70558868        0.03447084        0.00008442        0.00541450
      17         -0.892677        1.000000        0.70366620        0.02966159        0.00887523        0.00269795
      18         -0.891877        1.000000        0.00143988        0.00001230        0.00000256        0.00002792
      19         -0.890806        1.000000        0.70590099        0.02374664        0.00045067        0.01336830
      20         -0.889779        1.000000        0.72690383        0.00679678        0.00317235        0.01876981
      21         -0.889494        1.000000        0.72400596        0.01329531        0.01568679        0.00230749
      22         -0.887732        1.000000        0.70848439        0.02580372        0.00046508        0.01071135
      23         -0.884232        1.000000        0.70748727        0.01492357        0.00553116        0.01751413
      24         -0.878448        1.000000        0.61623712        0.00919421        0.00931427        0.00397932
      25         -0.877974        1.000000        0.74776934        0.01374658        0.00277827        0.01286221
      26         -0.877723        1.000000        0.70323754        0.00895367        0.03018179        0.00237224
      27         -0.876671        1.000000        0.71821961        0.00398743        0.01227770        0.00635476
      28         -0.876469        1.000000        0.73360352        0.01258303        0.00903893        0.00811120
      29         -0.874404        1.000000        0.69593868        0.01446878        0.00114466        0.03397243
      30         -0.873060        1.000000        0.69596073        0.00832502        0.00271107        0.00780655
      31         -0.865516        1.000000        0.72760437        0.00113916        0.04237649        0.00287357
      32         -0.860833        1.000000        0.69222186        0.00636801        0.04397009        0.00006873
      33         -0.860658        1.000000        0.66777121        0.00307671        0.00676396        0.00486773
      34         -0.859959        1.000000        0.65320931        0.01060303        0.00944635        0.00567619
      35         -0.856833        1.000000        0.75587766        0.01308656        0.00332939        0.02438469
      36         -0.854383        1.000000        0.11563545        0.00404924        0.00468195        0.00240106
      37         -0.854297        1.000000        0.71455774        0.01450943        0.00964162        0.01175166
      38         -0.852987        1.000000        0.48710015        0.00709999        0.00706401        0.00473791
      39         -0.852686        1.000000        0.72665280        0.03917021        0.00633178        0.00160643
      40         -0.850514        1.000000        0.77390150        0.00368009        0.00410296        0.02874447
      41         -0.850084        1.000000        0.71053419        0.03727575        0.00226601        0.00956283
      42         -0.847806        1.000000        0.55414499        0.00373145        0.00853166        0.00773404
      43         -0.847271        1.000000        0.69195325        0.04963590        0.00050287        0.00024752
      44         -0.844563        1.000000        0.72143604        0.01104128        0.00019819        0.03410651
      45         -0.837239        1.000000        0.69210675        0.02623151        0.02135685        0.00274652
      46         -0.835184        1.000000        0.77599808        0.02764666        0.00635057        0.00766367
      47         -0.832556        1.000000        0.36300870        0.00386344        0.00708132        0.00621822
      48         -0.831734        1.000000        0.69595417        0.04599589        0.00042687        0.00142277
      49         -0.831299        1.000000        0.70062401        0.00197881        0.04246793        0.00473982
      50         -0.830717        1.000000        0.28671874        0.00995331        0.00586300        0.00156158
      51         -0.829306        1.000000        0.69391507        0.02600029        0.02378056        0.00000627
      52         -0.828541        1.000000        0.70227850        0.01816029        0.00222715        0.02844114
      53         -0.826784        1.000000        0.70135763        0.03932184        0.00913010        0.00011274
      54         -0.825285        1.000000        0.71024301        0.03743981        0.00217607        0.00860836
      55         -0.824417        1.000000        0.70681044        0.03558153        0.00330077        0.00928410
      56         -0.822296        1.000000        0.65540383        0.01196003        0.01931003        0.00677853
      57         -0.820841        1.000000        0.07583213        0.00638078        0.00225264        0.00297577
      58         -0.817303        1.000000        0.71404312        0.03859222        0.00032188        0.00944050
      59         -0.811001        1.000000        0.69506568        0.00826668        0.01022059        0.01820232
      60         -0.652758        1.000000        0.00000102        0.00000315        0.00000111        0.00000388
      61         -0.649971        1.000000        0.00000001        0.00000003        0.00000002        0.00000003
      62         -0.637582        1.000000        0.00003048        0.00005330        0.00013645        0.00045572
      63         -0.623461        1.000000        0.00013150        0.00054656        0.00127669        0.00026362
      64         -0.606991        1.000000        0.00025324        0.00175028        0.00006197        0.00006224
      65         -0.599688        1.000000        0.00192777        0.01201938        0.00281646        0.00040840
      66         -0.599347        1.000000        0.00034622        0.00206678        0.00021837        0.00140103
      67         -0.597850        1.000000        0.00577534        0.00173214        0.01134343        0.00691068
      68         -0.592421        1.000000        0.00105431        0.00625367        0.00171986        0.00016898
      69         -0.586031        1.000000        0.00123579        0.00287314        0.00363622        0.00609679
      70         -0.558691        1.000000        0.00011701        0.00011714        0.00085814        0.00032202
      71         -0.554687        1.000000        0.00025334        0.00064710        0.00033902        0.00055226
      72         -0.554190        1.000000        0.00067121        0.00524592        0.00153514        0.00035930
      73         -0.548734        1.000000        0.00016528        0.00046999        0.00017018        0.00028148
      74         -0.547747        1.000000        0.00059679        0.00099658        0.00059685        0.00139978
      75         -0.547066        1.000000        0.00037001        0.00062162        0.00159953        0.00055833
      76         -0.545352        1.000000        0.00036139        0.00062764        0.00158465        0.00075372
      77         -0.544826        1.000000        0.00058667        0.00102689        0.00370830        0.00095466
      78         -0.543194        1.000000        0.00079543        0.00330306        0.00106391        0.00200168
      79         -0.542053        1.000000        0.00020436        0.00017912        0.00102600        0.00048253
      80         -0.541511        1.000000        0.00036764        0.00126355        0.00091855        0.00126028
      81         -0.540678        1.000000        0.00056371        0.00101164        0.00241897        0.00128808
      82         -0.540163        1.000000        0.00040162        0.00132880        0.00090453        0.00145673
      83         -0.538635        1.000000        0.00045024        0.00239997        0.00113115        0.00190874
      84         -0.538134        1.000000        0.00025285        0.00122393        0.00068819        0.00084229
      85         -0.537983        1.000000        0.00049780        0.00061969        0.00565577        0.00187047
      86         -0.537559        1.000000        0.00027932        0.00055780        0.00177352        0.00113590
      87         -0.536472        1.000000        0.00051589        0.00387678        0.00109729        0.00138761
      88         -0.535224        1.000000        0.00077455        0.00126267        0.00271258        0.00476762
      89         -0.534509        1.000000        0.00020393        0.00028817        0.00053421        0.00071278
      90         -0.532481        1.000000        0.00036860        0.00143096        0.00106221        0.00170929
      91         -0.531673        1.000000        0.00048419        0.00413524        0.00261530        0.00186863
      92         -0.531451        1.000000        0.00053859        0.00093651        0.00172954        0.00308374
      93         -0.531317        1.000000        0.00044916        0.00350093        0.00526475        0.00156413
      94         -0.530385        1.000000        0.00034396        0.00116689        0.00109139        0.00185286
      95         -0.530160        1.000000        0.00030509        0.00035520        0.00098237        0.00164976
      96         -0.529032        1.000000        0.00085994        0.00430421        0.00354771        0.00419031
      97         -0.528850        1.000000        0.00016366        0.00278672        0.00074124        0.00110120
      98         -0.527353        1.000000        0.00031764        0.00089767        0.00133247        0.00089671
      99         -0.526757        1.000000        0.00021415        0.00073926        0.00102554        0.00080953
     100         -0.524044        1.000000        0.00057478        0.00997602        0.00238261        0.00487369
     101         -0.523732        1.000000        0.00037491        0.00010277        0.00045383        0.00129315
     102         -0.521915        1.000000        0.00024439        0.00198538        0.00624932        0.00131189
     103         -0.521331        1.000000        0.00013881        0.00117778        0.00327362        0.00064958
     104         -0.520021        1.000000        0.00054174        0.00125589        0.00232868        0.00091601
     105         -0.519774        1.000000        0.00019081        0.00006294        0.00461031        0.00089944
     106         -0.512851        1.000000        0.00003011        0.00007657        0.00021126        0.00012870
     107         -0.511241        1.000000        0.00007192        0.00003922        0.00367237        0.00061007
     108         -0.505146        1.000000        0.00001929        0.00004645        0.00010846        0.00018880
     109         -0.484800        1.000000        0.00000192        0.00069180        0.00098328        0.00073385
     110         -0.482290        1.000000        0.00112268        0.01302748        0.55194214        0.05284634
     111         -0.480614        1.000000        0.00087907        0.02185707        0.04836232        0.02566587
     112         -0.478497        1.000000        0.00022470        0.19449299        0.15246350        0.28576896
     113         -0.478252        1.000000        0.00242875        0.27906078        0.04609617        0.29154555
     114         -0.476290        1.000000        0.00009916        0.01343601        0.00569607        0.00981570
     115         -0.475619        1.000000        0.00238312        0.21840879        0.10142758        0.32594860
     116         -0.475360        1.000000        0.00233002        0.29811441        0.23750146        0.08466625
     117         -0.473721        1.000000        0.00020036        0.03454958        0.41882257        0.18548301
     118         -0.471448        1.000000        0.00005660        0.01891818        0.00598418        0.00306674
     119         -0.471418        1.000000        0.00066601        0.47904434        0.08234878        0.04887429
     120         -0.471117        1.000000        0.00032284        0.02034529        0.20755337        0.40982664
     121         -0.470814        1.000000        0.00044002        0.01290917        0.22327825        0.40185907
     122         -0.469804        1.000000        0.00176969        0.20971330        0.30937765        0.09394955
     123         -0.469009        1.000000        0.00016908        0.40141063        0.01644578        0.22151694
     124         -0.466799        1.000000        0.00255524        0.42470039        0.07741830        0.14052997
     125         -0.466335        1.000000        0.00065717        0.14966454        0.01435822        0.04722062
     126         -0.465564        1.000000        0.00227951        0.13240508        0.15521792        0.35920201
     127         -0.464955        1.000000        0.00004686        0.09346992        0.53744237        0.00270678
     128         -0.464137        1.000000        0.00264744        0.26387732        0.14466405        0.23016408
     129         -0.463453        1.000000        0.00013886        0.04027856        0.02294348        0.02794053
     130         -0.461970        1.000000        0.00165912        0.09601289        0.43566320        0.11898236
     131         -0.461082        1.000000        0.00003393        0.02566464        0.31943525        0.29360725
     132         -0.460238        1.000000        0.00267352        0.12969949        0.03869718        0.45410110
     133         -0.459325        1.000000        0.00045226        0.07511324        0.03473734        0.09096506
     134         -0.457852        1.000000        0.00355168        0.07244517        0.42736472        0.14592607
     135         -0.456720        1.000000        0.00064556        0.10557659        0.00440729        0.51952048
     136         -0.456091        1.000000        0.00021312        0.02047758        0.04682624        0.56021866
     137         -0.453784        1.000000        0.00203323        0.25174055        0.26132045        0.14103345
     138         -0.452347        1.000000        0.00191092        0.05907113        0.28923828        0.29468816
     139         -0.450072        1.000000        0.00086857        0.12491063        0.19972600        0.29834367
     140         -0.448678        1.000000        0.00031082        0.07947676        0.32593708        0.22191592
     141         -0.448069        1.000000        0.00172154        0.09476650        0.01276730        0.53762005
     142         -0.446532        1.000000        0.00015675        0.04463545        0.30189930        0.28813227
     143         -0.445898        1.000000        0.00170241        0.13909095        0.04470930        0.19588698
     144         -0.441709        1.000000        0.00753366        0.13596905        0.09746861        0.42355893
     145         -0.441222        1.000000        0.00304784        0.03389324        0.12307106        0.19153719
     146         -0.440055        1.000000        0.00459355        0.04819422        0.16626251        0.43228112
     147         -0.436759        1.000000        0.00034964        0.06732453        0.00943801        0.55273341
     148         -0.434223        1.000000        0.00450521        0.12432914        0.43995295        0.03134142
     149         -0.432973        1.000000        0.00349960        0.09362847        0.41069871        0.13374835
     150         -0.432200        1.000000        0.00316559        0.01537620        0.08332536        0.54415080
     151         -0.432020        1.000000        0.00003033        0.02177712        0.00473960        0.01124703
     152         -0.431792        1.000000        0.00006472        0.38538868        0.06750049        0.14149588
     153         -0.431310        1.000000        0.00000729        0.00029053        0.00033836        0.00103264
     154         -0.428266        1.000000        0.00233011        0.35740734        0.16844995        0.08159466
     155         -0.426121        1.000000        0.00019703        0.00617463        0.00194536        0.02019259
     156         -0.422657        1.000000        0.00553743        0.13038393        0.00638823        0.48416979
     157         -0.422312        1.000000        0.00298188        0.03681545        0.07566440        0.48222781
     158         -0.419809        1.000000        0.00159336        0.05653594        0.24655045        0.01763055
     159         -0.419368        1.000000        0.00010925        0.05021515        0.01852191        0.55216699
     160         -0.419078        1.000000        0.00113345        0.04918536        0.19282309        0.02900142
     161         -0.418296        1.000000        0.00033361        0.00677078        0.02401936        0.00484592
     162         -0.417748        1.000000        0.00040562        0.01625702        0.05346037        0.00496183
     163         -0.415166        1.000000        0.00118421        0.08375455        0.02291071        0.02453797
     164         -0.412470        1.000000        0.00030221        0.01673572        0.00664603        0.01718069
     165         -0.411946        1.000000        0.00270133        0.29795461        0.09150395        0.09224776
     166         -0.410851        1.000000        0.00019522        0.01058983        0.00477812        0.00953233
     167         -0.410602        1.000000        0.00011809        0.00128017        0.00145902        0.02491985
     168         -0.408346        1.000000        0.00010458        0.00293447        0.00194410        0.30112700
     169         -0.405340        1.000000        0.00017217        0.00357233        0.00201609        0.28440981
     170         -0.401954        1.000000        0.00174220        0.00758297        0.00601002        0.01634341
     171         -0.401116        1.000000        0.00435689        0.09108061        0.41560723        0.12938316
     172         -0.399279        1.000000        0.00457321        0.56390412        0.02443212        0.04796020
     173         -0.395178        1.000000        0.00000410        0.18216400        0.34148071        0.10612889
     174         -0.394409        1.000000        0.00183651        0.22450998        0.04326360        0.33043550
     175         -0.393405        1.000000        0.00609878        0.12349931        0.40166866        0.11957270
     176         -0.393253        1.000000        0.00026990        0.03256892        0.13346975        0.45648247
     177         -0.392962        1.000000        0.00135412        0.00906354        0.45329666        0.17666133
     178         -0.388707        1.000000        0.00861332        0.13928156        0.03571449        0.47040315
     179         -0.386226        1.000000        0.00002622        0.10428684        0.09846038        0.42628847
     180         -0.384477        1.000000        0.00258847        0.02648005        0.01962351        0.00106404
     181         -0.383792        1.000000        0.00024411        0.02055236        0.07050682        0.53931538
     182         -0.377931        1.000000        0.00215855        0.02632770        0.00336317        0.01129334
     183         -0.372862        1.000000        0.00062150        0.02490461        0.00645816        0.01397764
     184         -0.371486        1.000000        0.00119052        0.00374543        0.00156088        0.00207266
     185         -0.369170        1.000000        0.12449594        0.31022506        0.14837069        0.19820609
     186         -0.368123        1.000000        0.00165573        0.00402915        0.00225384        0.00276864
     187         -0.366394        1.000000        0.00029461        0.00067220        0.00031013        0.00045177
     188         -0.365382        1.000000        0.00025680        0.00055112        0.00025679        0.00039599
     189         -0.359675        1.000000        0.10291412        0.25097267        0.07125050        0.30963821
     190         -0.356031        1.000000        0.00293943        0.00610524        0.00083622        0.01189293
     191         -0.354374        1.000000        0.00445749        0.00595892        0.00123851        0.02414036
     192         -0.351292        1.000000        0.01785162        0.03297636        0.06140487        0.03739382
     193         -0.344841        1.000000        0.00007156        0.00016038        0.00030002        0.00016906
     194         -0.343469        1.000000        0.02509992        0.08035405        0.07223435        0.02153876
     195         -0.339012        1.000000        0.12261374        0.25377936        0.03579964        0.34874216
     196         -0.331568        1.000000        0.07302948        0.09458622        0.05895605        0.24701322
     197         -0.331046        1.000000        0.02946245        0.10741254        0.04148722        0.04024091
     198         -0.330942        1.000000        0.10292765        0.28466706        0.12072411        0.25787683
     199         -0.329775        1.000000        0.00127756        0.00215175        0.00226232        0.00224211
     200         -0.323787        1.000000        0.00722032        0.01519293        0.00959865        0.02700704
     201         -0.323668        1.000000        0.10233099        0.04656737        0.09908815        0.38721624
     202         -0.317185        1.000000        0.14304613        0.14123338        0.36991038        0.21653821
     203         -0.315738        1.000000        0.13171520        0.25922330        0.27715920        0.20666404
     204         -0.315517        1.000000        0.00520213        0.00655945        0.00760889        0.02041886
     205         -0.315077        1.000000        0.12446245        0.07679718        0.10820588        0.44434691
     206         -0.309991        1.000000        0.12412238        0.07126189        0.37661656        0.16899050
     207         -0.308336        1.000000        0.06477015        0.17231679        0.28660585        0.14002860
     208         -0.306734        1.000000        0.13316135        0.16635085        0.35545031        0.13721843
     209         -0.305037        1.000000        0.14882507        0.23661488        0.05433060        0.45542779
     210         -0.303059        1.000000        0.06995990        0.08565517        0.07180019        0.47580094
     211         -0.300356        1.000000        0.10319862        0.09511374        0.10997568        0.36116418
     212         -0.299319        1.000000        0.07248445        0.13006769        0.14075612        0.33248884
     213         -0.298110        1.000000        0.12705015        0.17930170        0.30753417        0.16443302
     214         -0.291742        1.000000        0.14844936        0.50749713        0.13465596        0.08401124
     215         -0.289684        1.000000        0.07231885        0.15581532        0.21179152        0.18614955
     216         -0.289463        1.000000        0.14903230        0.41763309        0.03156246        0.27334799
     217         -0.289058        1.000000        0.15177214        0.30786918        0.16928861        0.26917381
     218         -0.281854        1.000000        0.15253936        0.51579578        0.16604594        0.06612412
     219         -0.280522        1.000000        0.14555665        0.50381878        0.10761519        0.13692745
     220         -0.277272        1.000000        0.14796835        0.26743360        0.08160690        0.38466945
     221         -0.276905        1.000000        0.06574300        0.18688622        0.13478528        0.21998661
     222         -0.276109        1.000000        0.11149393        0.19462743        0.14386137        0.29027822
     223         -0.270065        1.000000        0.10806172        0.12389323        0.30481711        0.25471051
     224         -0.269165        1.000000        0.15143190        0.07255427        0.59467946        0.06557010
     225         -0.267331        1.000000        0.07582511        0.20197442        0.15506461        0.32266679
     226         -0.261564        1.000000        0.10409338        0.44760016        0.32027279        0.00619465
     227         -0.258850        1.000000        0.09436625        0.17488431        0.29214387        0.21698225
     228         -0.252610        1.000000        0.07173425        0.13972729        0.34952305        0.28396059
     229         -0.249277        1.000000        0.15280048        0.23252493        0.03349153        0.46065112
     230         -0.247858        1.000000        0.07721350        0.19402895        0.19881223        0.40637223
     231         -0.244117        1.000000        0.03043019        0.59318300        0.11339065        0.15614474
     232         -0.244007        1.000000        0.03779386        0.06583705        0.64037400        0.15560606
     233         -0.242677        1.000000        0.06337647        0.37316855        0.12085405        0.19286068
     234         -0.241027        1.000000        0.01333980        0.16424004        0.24596338        0.04964090
     235         -0.240149        1.000000        0.01052319        0.28744112        0.17553471        0.06275797
     236         -0.240096        1.000000        0.00908786        0.36134374        0.15535713        0.06998886
     237         -0.238732        1.000000        0.01504148        0.20117111        0.55240549        0.10099491
     238         -0.237975        1.000000        0.02686391        0.40416674        0.09640688        0.05879911
     239         -0.237606        1.000000        0.04380395        0.24309274        0.11309264        0.12858138
     240         -0.237094        1.000000        0.00389861        0.14779033        0.14475455        0.49704145
     241         -0.236081        1.000000        0.04153305        0.21975301        0.20216190        0.12078038
     242         -0.235433        1.000000        0.03706642        0.25284338        0.21617336        0.13361803
     243         -0.234400        1.000000        0.03481353        0.29186322        0.15241461        0.18037639
     244         -0.234307        1.000000        0.03060668        0.62404830        0.11044136        0.10183678
     245         -0.233472        1.000000        0.12330417        0.13944542        0.53288403        0.03394671
     246         -0.233320        1.000000        0.07770221        0.22593757        0.45646793        0.06915832
     247         -0.231894        1.000000        0.02649556        0.17226495        0.25596708        0.11127070
     248         -0.230969        1.000000        0.02039353        0.41632140        0.07767673        0.29634514
     249         -0.230841        1.000000        0.00210213        0.23583453        0.27032771        0.45690169
     250         -0.230586        1.000000        0.01900716        0.18638672        0.24447985        0.09207604
     251         -0.230114        1.000000        0.02350635        0.30383835        0.19224650        0.08656950
     252         -0.229105        1.000000        0.01633992        0.22849186        0.10384418        0.18456886
     253         -0.228691        1.000000        0.03790264        0.24958636        0.11138238        0.21056921
     254         -0.227675        1.000000        0.01596987        0.20493006        0.05860620        0.13461609
     255         -0.226987        1.000000        0.02305777        0.26968506        0.09289006        0.20474628
     256         -0.226320        1.000000        0.01656879        0.12255783        0.12785782        0.08132718
     257         -0.225338        1.000000        0.02890701        0.16335234        0.14631644        0.05426566
     258         -0.224360        1.000000        0.01452030        0.07974968        0.15115707        0.04815873
     259         -0.222231        1.000000        0.03850513        0.17152928        0.30274339        0.06581780