# Projected DOS for atomic kind C at iteration step i = 0, E(Fermi) =    -0.140801 a.u.
#     MO Eigenvalue [a.u.]      Occupation                 s                py                pz                px
       1         -0.918289        1.000000        0.00000278        0.00000087        0.00000162        0.00000206
       2         -0.918184        1.000000        0.00000276        0.00000262        0.00000004        0.00000187
       3         -0.917336        1.000000        0.00000000        0.00000000        0.00000000        0.00000000
       4         -0.916464        1.000000        0.00000000        0.00000000        0.00000001        0.00000001
       5         -0.914818        1.000000        0.00000005        0.00000001        0.00000002        0.00000004
       6         -0.914021        1.000000        0.00000130        0.00000011        0.00000261        0.00000198
       7         -0.912293        1.000000        0.00000001        0.00000001        0.00000002        0.00000004
       8         -0.910096        1.000000        0.00007343        0.00000002        0.00000009        0.00007124
       9         -0.909562        1.000000        0.00000356        0.00000004        0.00000062        0.00000272
      10         -0.909462        1.000000        0.00000196        0.00000012        0.00000051        0.00000094
      11         -0.909395        1.000000        0.05740924        0.00009817        0.01511856        0.02766385
      12         -0.903188        1.000000        0.00002661        0.00000468        0.00002087        0.00000584
      13         -0.903125        1.000000        0.00000002        0.00000006        0.00000001        0.00000005
      14         -0.902194        1.000000        0.06358622        0.00194873        0.02280784        0.01958483
      15         -0.900076        1.000000        0.00000001        0.00000000        0.00000000        0.00000002
      16         -0.893753        1.000000        0.00000036        0.00000011        0.00000018        0.00000001
      17         -0.892704        1.000000        0.00000001        0.00000001        0.00000002        0.00000003
      18         -0.891893        1.000000        0.06139771        0.00094033        0.00933834        0.03362704
      19         -0.890781        1.000000        0.00000002        0.00000001        0.00000002        0.00000001
      20         -0.889801        1.000000        0.00006696        0.00000006        0.00007326        0.00018063
      21         -0.889520        1.000000        0.00000055        0.00000021        0.00000026        0.00000004
      22         -0.887757        1.000000        0.00000009        0.00000001        0.00000000        0.00000004
      23         -0.884247        1.000000        0.00000003        0.00000000        0.00000001        0.00000002
      24         -0.878472        1.000000        0.00943141        0.00002778        0.00007543        0.00684403
      25         -0.877991        1.000000        0.00000016        0.00000001        0.00000000        0.00000017
      26         -0.877738        1.000000        0.00000002        0.00000006        0.00000000        0.00000000
      27         -0.876708        1.000000        0.00002271        0.00000152        0.00000069        0.00001830
      28         -0.876491        1.000000        0.00000009        0.00000009        0.00000007        0.00000000
      29         -0.874507        1.000000        0.00000007        0.00000012        0.00000023        0.00000041
      30         -0.873102        1.000000        0.00211814        0.00000654        0.00019844        0.00146879
      31         -0.865978        1.000000        0.00000000        0.00000000        0.00000000        0.00000000
      32         -0.860847        1.000000        0.00000002        0.00000014        0.00000001        0.00000006
      33         -0.860690        1.000000        0.00406483        0.00014900        0.00001587        0.00299517
      34         -0.859985        1.000000        0.00560745        0.00030081        0.00281005        0.00127578
      35         -0.856852        1.000000        0.00002004        0.00001575        0.00005094        0.00009996
      36         -0.854409        1.000000        0.06490640        0.00038773        0.00104428        0.03770550
      37         -0.854327        1.000000        0.00022158        0.00000028        0.00007695        0.00011028
      38         -0.853025        1.000000        0.02419913        0.00030364        0.00191192        0.01397967
      39         -0.850734        1.000000        0.00000000        0.00000000        0.00000000        0.00000000
      40         -0.850517        1.000000        0.00001793        0.00000033        0.00000001        0.00001319
      41         -0.850068        1.000000        0.00000000        0.00000004        0.00000001        0.00000004
      42         -0.847880        1.000000        0.01580692        0.00032774        0.00000112        0.01079842
      43         -0.847295        1.000000        0.00000044        0.00000000        0.00000001        0.00000020
      44         -0.844903        1.000000        0.00000000        0.00000003        0.00000002        0.00000000
      45         -0.837256        1.000000        0.00000000        0.00000000        0.00000000        0.00000000
      46         -0.836957        1.000000        0.00000071        0.00000006        0.00000002        0.00000042
      47         -0.835204        1.000000        0.00000011        0.00000104        0.00000016        0.00000015
      48         -0.832598        1.000000        0.03720133        0.00024203        0.00003726        0.02352477
      49         -0.831729        1.000000        0.00000004        0.00000003        0.00000001        0.00000001
      50         -0.830752        1.000000        0.05318767        0.00139371        0.00338916        0.02502652
      51         -0.828972        1.000000        0.00000000        0.00000000        0.00000000        0.00000000
      52         -0.828492        1.000000        0.00000021        0.00000021        0.00000006        0.00000000
      53         -0.827727        1.000000        0.00000004        0.00000010        0.00000046        0.00000031
      54         -0.826564        1.000000        0.00005677        0.00000151        0.00000002        0.00004916
      55         -0.824342        1.000000        0.00000001        0.00000031        0.00000014        0.00000013
      56         -0.823512        1.000000        0.00505507        0.00003695        0.00001285        0.00361109
      57         -0.820872        1.000000        0.07526343        0.00134802        0.02792060        0.01299633
      58         -0.817522        1.000000        0.00000000        0.00000000        0.00000000        0.00000000
      59         -0.811417        1.000000        0.00894523        0.00009158        0.00002056        0.00435127
      60         -0.652791        1.000000        0.43954413        0.00002222        0.00122493        0.00072723
      61         -0.650005        1.000000        0.44232593        0.00000035        0.00029250        0.00066198
      62         -0.637610        1.000000        0.44070180        0.00010098        0.00045409        0.00102007
      63         -0.623485        1.000000        0.43471904        0.00006925        0.00035175        0.00531214
      64         -0.607032        1.000000        0.42704318        0.00067847        0.00053969        0.00639174
      65         -0.599724        1.000000        0.12736402        0.00001734        0.00008912        0.00064045
      66         -0.599381        1.000000        0.42654679        0.00015243        0.00449669        0.00281809
      67         -0.597916        1.000000        0.00147016        0.00124417        0.00002277        0.00007672
      68         -0.592449        1.000000        0.30564569        0.00009050        0.00008670        0.00358354
      69         -0.586069        1.000000        0.00004598        0.00001760        0.00003334        0.00000034
      70         -0.558703        1.000000        0.00022276        0.00013045        0.00025985        0.00025533
      71         -0.555014        1.000000        0.00012800        0.00298163        0.00014490        0.00031691
      72         -0.554545        1.000000        0.00050010        0.00035587        0.00056645        0.00018806
      73         -0.549407        1.000000        0.00098854        0.00219532        0.00160111        0.00284277
      74         -0.548070        1.000000        0.00018142        0.00054277        0.00059898        0.00059155
      75         -0.547842        1.000000        0.00056681        0.00156516        0.00408057        0.00139368
      76         -0.545876        1.000000        0.00059460        0.00426557        0.00206920        0.00027537
      77         -0.545141        1.000000        0.00040853        0.00035933        0.00215309        0.00139642
      78         -0.543479        1.000000        0.00009823        0.00190667        0.00026402        0.00030074
      79         -0.542315        1.000000        0.00010703        0.00093667        0.00075157        0.00039704
      80         -0.541760        1.000000        0.00020257        0.00200085        0.00190708        0.00153893
      81         -0.541152        1.000000        0.00018642        0.00319055        0.00150942        0.00087921
      82         -0.540562        1.000000        0.00009451        0.00251997        0.00229808        0.00090684
      83         -0.539253        1.000000        0.00011283        0.00215800        0.00075897        0.00107713
      84         -0.538577        1.000000        0.00019041        0.00203305        0.00174889        0.00011917
      85         -0.538348        1.000000        0.00007741        0.00163268        0.00462958        0.00312897
      86         -0.538060        1.000000        0.00017498        0.00272508        0.00434017        0.00278929
      87         -0.536763        1.000000        0.00020325        0.00009517        0.00069158        0.00019334
      88         -0.535289        1.000000        0.00000630        0.00027244        0.00012488        0.00003243
      89         -0.535211        1.000000        0.00018308        0.00076587        0.00022159        0.00012707
      90         -0.533158        1.000000        0.00000870        0.00065520        0.00053345        0.00024030
      91         -0.532794        1.000000        0.00006903        0.00049531        0.00020771        0.00015003
      92         -0.532483        1.000000        0.00002537        0.00377008        0.00098111        0.00018032
      93         -0.531614        1.000000        0.00014367        0.00012365        0.00048843        0.00040287
      94         -0.531517        1.000000        0.00008515        0.00036503        0.00010352        0.00005609
      95         -0.530431        1.000000        0.00007626        0.00108719        0.00186353        0.00107793
      96         -0.529584        1.000000        0.00008240        0.00003474        0.00007722        0.00008102
      97         -0.529163        1.000000        0.00004113        0.00008082        0.00069628        0.00031005
      98         -0.527843        1.000000        0.00007888        0.00616227        0.00969574        0.00534462
      99         -0.527153        1.000000        0.00010240        0.00100285        0.00617762        0.00278434
     100         -0.525919        1.000000        0.00016853        0.00482550        0.00075079        0.00099994
     101         -0.524078        1.000000        0.00000407        0.00007729        0.00002379        0.00001015
     102         -0.522929        1.000000        0.00013177        0.00547001        0.00033027        0.00008089
     103         -0.521803        1.000000        0.00001893        0.03281321        0.00320723        0.00124390
     104         -0.520318        1.000000        0.00017600        0.03942205        0.00439806        0.00092194
     105         -0.520271        1.000000        0.00001164        0.00338605        0.00060457        0.00018818
     106         -0.512899        1.000000        0.00000278        0.03116142        0.01522976        0.00835702
     107         -0.511506        1.000000        0.00006448        0.00463815        0.02545638        0.02972632
     108         -0.505322        1.000000        0.00010404        0.02301259        0.02964283        0.00635082
     109         -0.484836        1.000000        0.00001390        0.06010859        0.02289597        0.00002347
     110         -0.482346        1.000000        0.00002396        0.00006997        0.00005731        0.00017688
     111         -0.480651        1.000000        0.00001305        0.02025583        0.05273517        0.00188074
     112         -0.478529        1.000000        0.00000015        0.00041865        0.00020909        0.00012145
     113         -0.478278        1.000000        0.00000063        0.00000605        0.00107091        0.00012518
     114         -0.476330        1.000000        0.00002169        0.00285736        0.06825805        0.00709454
     115         -0.475655        1.000000        0.00000020        0.00004894        0.00032511        0.00002877
     116         -0.475433        1.000000        0.00000121        0.00000832        0.00003520        0.00001172
     117         -0.473746        1.000000        0.00000007        0.00000007        0.00000061        0.00000149
     118         -0.471489        1.000000        0.00000134        0.03773630        0.02928811        0.00058312
     119         -0.471446        1.000000        0.00000020        0.00060283        0.00046449        0.00001117
     120         -0.471147        1.000000        0.00000003        0.00002219        0.00001058        0.00000328
     121         -0.470836        1.000000        0.00000122        0.00000111        0.00000192        0.00000423
     122         -0.469831        1.000000        0.00000163        0.00085612        0.00063325        0.00059679
     123         -0.469036        1.000000        0.00000595        0.00000078        0.00014904        0.00000416
     124         -0.466834        1.000000        0.00000064        0.00001157        0.00008541        0.00003817
     125         -0.466386        1.000000        0.00027932        0.05752821        0.00158589        0.00721590
     126         -0.465598        1.000000        0.00000379        0.00082759        0.00007508        0.00012186
     127         -0.464988        1.000000        0.00000676        0.00086043        0.00006722        0.00010169
     128         -0.464187        1.000000        0.00000009        0.00044425        0.00016834        0.00009452
     129         -0.463494        1.000000        0.00003567        0.05109155        0.01516339        0.00738261
     130         -0.462003        1.000000        0.00000658        0.00019619        0.00005002        0.00000288
     131         -0.461100        1.000000        0.00000089        0.00000303        0.00000500        0.00001721
     132         -0.460282        1.000000        0.00005004        0.00110088        0.00141439        0.00005422
     133         -0.459378        1.000000        0.00104576        0.02769040        0.03700656        0.00040640
     134         -0.457882        1.000000        0.00000006        0.00000475        0.00000081        0.00000065
     135         -0.456740        1.000000        0.00000040        0.00001341        0.00000280        0.00000138
     136         -0.456085        1.000000        0.00000057        0.00000374        0.00002028        0.00000941
     137         -0.453820        1.000000        0.00000081        0.00002922        0.00038064        0.00037755
     138         -0.452381        1.000000        0.00033924        0.00057901        0.00020647        0.00187904
     139         -0.450098        1.000000        0.00000004        0.00034114        0.00000525        0.00007964
     140         -0.448763        1.000000        0.00001588        0.00002386        0.00002039        0.00015688
     141         -0.448105        1.000000        0.00001406        0.00058662        0.00003921        0.00011174
     142         -0.446555        1.000000        0.00000367        0.00000658        0.00004778        0.00000692
     143         -0.445935        1.000000        0.00005353        0.01605954        0.00688401        0.02203246
     144         -0.441753        1.000000        0.00000083        0.00002469        0.00001638        0.00003955
     145         -0.441261        1.000000        0.00007335        0.00846180        0.01308074        0.03150698
     146         -0.440104        1.000000        0.00000306        0.00006553        0.00024258        0.00000497
     147         -0.436784        1.000000        0.00000007        0.00000033        0.00000317        0.00000409
     148         -0.434260        1.000000        0.00035430        0.00941454        0.00214421        0.00261489
     149         -0.433029        1.000000        0.00001982        0.00082181        0.00174512        0.00007161
     150         -0.432327        1.000000        0.00004097        0.00000940        0.00024677        0.00037321
     151         -0.432059        1.000000        0.01998822        0.01188470        0.16605244        0.14139622
     152         -0.431849        1.000000        0.00154015        0.00090123        0.01267973        0.01074132
     153         -0.431342        1.000000        0.02581024        0.00115842        0.11529884        0.22135541
     154         -0.428307        1.000000        0.00000210        0.00049954        0.00072939        0.00171712
     155         -0.426133        1.000000        0.00012673        0.00007228        0.00077564        0.00071440
     156         -0.422677        1.000000        0.00000199        0.00001441        0.00002906        0.00002516
     157         -0.422386        1.000000        0.00014061        0.00031710        0.00108996        0.00147408
     158         -0.420223        1.000000        0.00022339        0.00047385        0.00067595        0.00272647
     159         -0.419391        1.000000        0.00000525        0.00000076        0.00001416        0.00015549
     160         -0.419029        1.000000        0.00001316        0.00031912        0.00005749        0.00027830
     161         -0.418408        1.000000        0.00866292        0.00205638        0.02897961        0.09924622
     162         -0.418094        1.000000        0.01196991        0.00474057        0.04072310        0.13722706
     163         -0.415328        1.000000        0.00008676        0.00012237        0.00028748        0.00078569
     164         -0.412855        1.000000        0.00030626        0.00012401        0.00184477        0.00389627
     165         -0.412112        1.000000        0.00003505        0.00001935        0.00027892        0.00056199
     166         -0.411326        1.000000        0.00102045        0.00016662        0.00657813        0.01262662
     167         -0.410864        1.000000        0.00008885        0.00008378        0.00033327        0.00181738
     168         -0.408553        1.000000        0.00010756        0.00010594        0.00028075        0.00175479
     169         -0.405448        1.000000        0.00029360        0.00011246        0.00014616        0.00686309
     170         -0.401980        1.000000        0.01314014        0.00017231        0.00096325        0.33349772
     171         -0.401102        1.000000        0.00000029        0.00000307        0.00000783        0.00000278
     172         -0.401065        1.000000        0.00000073        0.00000096        0.00000017        0.00001633
     173         -0.395207        1.000000        0.00000003        0.00000012        0.00000003        0.00000113
     174         -0.394875        1.000000        0.00003244        0.00125052        0.00232960        0.00499027
     175         -0.394027        1.000000        0.00000347        0.00000857        0.00005078        0.00000156
     176         -0.393307        1.000000        0.00000240        0.00005300        0.00013954        0.00036890
     177         -0.393005        1.000000        0.00000281        0.00000816        0.00000124        0.00003155
     178         -0.388781        1.000000        0.00000011        0.00000013        0.00000086        0.00000623
     179         -0.386142        1.000000        0.00000023        0.00000157        0.00000285        0.00002287
     180         -0.384513        1.000000        0.01124476        0.00043469        0.03497443        0.30469368
     181         -0.383795        1.000000        0.00003613        0.00000516        0.00013763        0.00201897
     182         -0.377963        1.000000        0.01168250        0.03041629        0.19648154        0.11813058
     183         -0.372901        1.000000        0.01535415        0.01544580        0.00011778        0.31729539
     184         -0.371535        1.000000        0.00010144        0.48555807        0.00118900        0.03166440
     185         -0.369205        1.000000        0.00000369        0.00738136        0.00453744        0.00201694
     186         -0.368154        1.000000        0.00004848        0.01043419        0.24680423        0.26059111
     187         -0.366427        1.000000        0.00001723        0.02148585        0.32747905        0.18437651
     188         -0.365427        1.000000        0.00001112        0.51071579        0.01980004        0.00323437
     189         -0.359692        1.000000        0.00002415        0.00042023        0.00002173        0.00070403
     190         -0.356057        1.000000        0.00007014        0.03501049        0.37988635        0.09709668
     191         -0.354411        1.000000        0.00000299        0.45642873        0.02090115        0.03476132
     192         -0.351317        1.000000        0.00000792        0.11218358        0.34849190        0.00061600
     193         -0.344866        1.000000        0.00001042        0.38293326        0.12581710        0.00006204
     194         -0.343513        1.000000        0.00008598        0.42049779        0.00135553        0.00068261
     195         -0.339040        1.000000        0.00046267        0.02722896        0.00740481        0.00008002
     196         -0.331607        1.000000        0.00009304        0.11823665        0.11060983        0.01257178
     197         -0.331082        1.000000        0.00001629        0.27449900        0.00425710        0.13507690
     198         -0.330962        1.000000        0.00001593        0.00745765        0.00666601        0.00219068
     199         -0.329819        1.000000        0.00005086        0.00177545        0.45045398        0.05117640
     200         -0.323823        1.000000        0.00003398        0.11581557        0.19834684        0.16951626
     201         -0.323707        1.000000        0.00000645        0.05011593        0.09272660        0.00313413
     202         -0.317290        1.000000        0.00000101        0.00001068        0.00005573        0.00009662
     203         -0.315769        1.000000        0.00000210        0.00128983        0.00019462        0.00012553
     204         -0.315544        1.000000        0.00014688        0.22274534        0.26592961        0.00788571
     205         -0.315110        1.000000        0.00000213        0.05030259        0.00342578        0.00455315
     206         -0.310015        1.000000        0.00000069        0.01227692        0.02982611        0.00861664
     207         -0.308372        1.000000        0.00000737        0.00023711        0.00009450        0.00003867
     208         -0.306761        1.000000        0.00000345        0.04350210        0.00001602        0.00004770
     209         -0.305054        1.000000        0.00000049        0.00002220        0.00000378        0.00000003
     210         -0.303092        1.000000        0.00017630        0.00304759        0.00059563        0.00008059
     211         -0.300400        1.000000        0.00000345        0.06509151        0.01648079        0.00018115
     212         -0.299339        1.000000        0.00001153        0.00633468        0.00219247        0.00067560
     213         -0.298135        1.000000        0.00000064        0.02249865        0.00534399        0.01479753
     214         -0.291594        1.000000        0.00000036        0.00006290        0.00001187        0.00001691
     215         -0.289727        1.000000        0.00002241        0.00012911        0.00011329        0.00002961
     216         -0.289555        1.000000        0.00000059        0.00007686        0.00001719        0.00003808
     217         -0.289054        1.000000        0.00000105        0.00004780        0.00000213        0.00000580
     218         -0.282399        1.000000        0.00000061        0.00000048        0.00000836        0.00000041
     219         -0.280804        1.000000        0.00000002        0.00000223        0.00000057        0.00000116
     220         -0.277317        1.000000        0.00000040        0.00000563        0.00001429        0.00000096
     221         -0.276937        1.000000        0.00009231        0.00012675        0.00001745        0.00002240
     222         -0.276140        1.000000        0.00000056        0.02550920        0.00018022        0.00647098
     223         -0.270105        1.000000        0.00001931        0.01596775        0.00722059        0.00016293
     224         -0.269191        1.000000        0.00000107        0.00000832        0.00000654        0.00000040
     225         -0.267359        1.000000        0.00001752        0.00117470        0.00069821        0.00044309
     226         -0.261662        1.000000        0.00000893        0.00001959        0.00000406        0.00001973
     227         -0.258873        1.000000        0.00000341        0.00341109        0.00862451        0.00766076
     228         -0.252652        1.000000        0.00005089        0.00022460        0.00009295        0.00006842
     229         -0.249442        1.000000        0.00000136        0.00000262        0.00000302        0.00000192
     230         -0.247890        1.000000        0.00001013        0.00188365        0.00017783        0.00803458
     231         -0.244108        1.000000        0.00003069        0.00095023        0.00026030        0.00004081
     232         -0.244045        1.000000        0.00007541        0.00072301        0.00009890        0.00008723
     233         -0.242700        1.000000        0.00002301        0.00056519        0.00026910        0.00009349
     234         -0.241101        1.000000        0.00001442        0.00014953        0.00002064        0.00025536
     235         -0.240508        1.000000        0.00001309        0.00002421        0.00003992        0.00001630
     236         -0.240175        1.000000        0.00001461        0.00021653        0.00009180        0.00025520
     237         -0.238764        1.000000        0.00001414        0.00002710        0.00002906        0.00041667
     238         -0.238196        1.000000        0.00001431        0.00033591        0.00030101        0.00006948
     239         -0.237951        1.000000        0.00001586        0.00034508        0.00025189        0.00003573
     240         -0.237170        1.000000        0.00009558        0.00034161        0.00019156        0.00006542
     241         -0.236132        1.000000        0.00001433        0.00670041        0.00213914        0.00005742
     242         -0.235482        1.000000        0.00000508        0.00219211        0.00063722        0.00006666
     243         -0.234458        1.000000        0.00001280        0.00082690        0.00018134        0.00020351
     244         -0.234353        1.000000        0.00000454        0.00361579        0.00023483        0.00191134
     245         -0.233503        1.000000        0.00001964        0.00101883        0.00023410        0.00007185
     246         -0.233356        1.000000        0.00014081        0.00382731        0.00083423        0.00005645
     247         -0.232008        1.000000        0.00000960        0.00094973        0.00045741        0.00052706
     248         -0.231077        1.000000        0.00005038        0.00019259        0.00015872        0.00009831
     249         -0.230867        1.000000        0.00000160        0.00014914        0.00029617        0.00053944
     250         -0.230707        1.000000        0.00003349        0.00015695        0.00004432        0.00044954
     251         -0.230283        1.000000        0.00002478        0.00014250        0.00009142        0.00033121
     252         -0.229290        1.000000        0.00001828        0.00014690        0.00022454        0.00023501
     253         -0.228883        1.000000        0.00002484        0.00058455        0.00039988        0.00196080
     254         -0.228512        1.000000        0.00005947        0.00049152        0.00042126        0.00078058
     255         -0.227230        1.000000        0.00011288        0.00171275        0.00092177        0.00078435
     256         -0.226870        1.000000        0.00020548        0.00170553        0.00087886        0.00069067
     257         -0.225601        1.000000        0.00006253        0.00142031        0.00032920        0.00113067
     258         -0.224956        1.000000        0.00006298        0.00056431        0.00025461        0.00021703
     259         -0.223294        1.000000        0.00010048        0.00047862        0.00009819        0.00007175