 DBCSR| CPU Multiplication driver                                           XSMM
 DBCSR| Multrec recursion limit                                              512
 DBCSR| Multiplication stack size                                           1000
 DBCSR| Maximum elements for images                                    UNLIMITED
 DBCSR| Multiplicative factor virtual images                                   1
 DBCSR| Use multiplication densification                                       T
 DBCSR| Multiplication size stacks                                             3
 DBCSR| Use memory pool for CPU allocation                                     F
 DBCSR| Number of 3D layers                                               SINGLE
 DBCSR| Use MPI memory allocation                                              F
 DBCSR| Use RMA algorithm                                                      F
 DBCSR| Use Communication thread                                               T
 DBCSR| Communication thread load                                             87
 DBCSR| MPI: My node id                                                        0
 DBCSR| MPI: Number of nodes                                                 240
 DBCSR| OMP: Current number of threads                                         1
 DBCSR| OMP: Max number of threads                                             1
 DBCSR| Split modifier for TAS multiplication algorithm                  1.0E+00


  **** **** ******  **  PROGRAM STARTED AT               2023-11-30 01:00:33.170
 ***** ** ***  *** **   PROGRAM STARTED ON             csl32.int.triton.aalto.fi
 **    ****   ******    PROGRAM STARTED BY                               huangj4
 ***** **    ** ** **   PROGRAM PROCESS ID                                206268
  **** **  *******  **  PROGRAM STARTED IN /scratch/phys/sin/Jie/Github/cp2kTest
                                           /PreviousOpt_Morestep/cluster_444_300
                                           0_scratch_L

 CP2K| version string:                                          CP2K version 8.2
 CP2K| source code revision number:                                  git:310b7ab
 CP2K| cp2kflags: omp libint fftw3 libxc parallel mpi3 scalapack xsmm           
 CP2K| is freely available from                            https://www.cp2k.org/
 CP2K| Program compiled at                          Thu May 12 10:08:29 UTC 2022
 CP2K| Program compiled on                                          80d7174ae3e8
 CP2K| Program compiled for                            linux-centos7-haswell-gcc
 CP2K| Data directory path    /share/apps/spack/envs/fgci-centos7-haswell/softwa
 CP2K| Input file name                                                 input.inp

 GLOBAL| Force Environment number                                              1
 GLOBAL| Basis set file name                                        BASIS_MOLOPT
 GLOBAL| Potential file name                                      GTH_POTENTIALS
 GLOBAL| MM Potential file name                                     MM_POTENTIAL
 GLOBAL| Coordinate file name                               Water_cluster444.xyz
 GLOBAL| Method name                                                        CP2K
 GLOBAL| Project name                                                     MAPbI3
 GLOBAL| Run type                                                        GEO_OPT
 GLOBAL| FFT library                                                       FFTW3
 GLOBAL| Diagonalization library                                       ScaLAPACK
 GLOBAL| Orthonormality check for eigenvectors                          DISABLED
 GLOBAL| Matrix multiplication library                                    SCALAP
 GLOBAL| All-to-all communication in single precision                          F
 GLOBAL| FFTs using library dependent lengths                                  F
 GLOBAL| Grid backend                                                       AUTO
 GLOBAL| Global print level                                                  LOW
 GLOBAL| MPI I/O enabled                                                       T
 GLOBAL| Total number of message passing processes                           240
 GLOBAL| Number of threads for this process                                    1
 GLOBAL| This output is from process                                           0
 GLOBAL| CPU model name                 Intel(R) Xeon(R) Gold 6248 CPU @ 2.50GHz
 GLOBAL| CPUID                                                              1003
 GLOBAL| Compiled for CPUID                                                 1002

 *** HINT in environment.F:872 :: The compiler target flags (x86_avx2)     ***
 *** used to build this binary cannot exploit all extensions of this CPU   ***
 *** model (x86_avx512). Consider compiler target flags as part of FCFLAGS ***
 *** and CFLAGS (ARCH file).                                               ***


 MEMORY| system memory details [Kb]
 MEMORY|                        rank 0           min           max       average
 MEMORY| MemTotal            196637624     196637580     196637624     196637604
 MEMORY| MemFree             178459260     124366624     178459260     154692924
 MEMORY| Buffers                     0             0             0             0
 MEMORY| Cached                5681108       5681108      39129308      21363944
 MEMORY| Slab                   716160        716160       7190376       3598802
 MEMORY| SReclaimable           199476        199476       1545296        862514
 MEMORY| MemLikelyFree       184339844     148609204     187925916     176919383


 GENERATE|  Preliminary Number of Bonds generated:                             0
 GENERATE|  Achieved consistency in connectivity generation.

 *******************************************************************************
 *******************************************************************************
 **                                                                           **
 **     #####                         ##              ##                      **
 **    ##   ##            ##          ##              ##                      **
 **   ##     ##                       ##            ######                    **
 **   ##     ##  ##   ##  ##   #####  ##  ##   ####   ##    #####    #####    **
 **   ##     ##  ##   ##  ##  ##      ## ##   ##      ##   ##   ##  ##   ##   **
 **   ##  ## ##  ##   ##  ##  ##      ####     ###    ##   ######   ######    **
 **    ##  ###   ##   ##  ##  ##      ## ##      ##   ##   ##       ##        **
 **     #######   #####   ##   #####  ##  ##  ####    ##    #####   ##        **
 **           ##                                                    ##        **
 **                                                                           **
 **                                                ... make the atoms dance   **
 **                                                                           **
 **            Copyright (C) by CP2K developers group (2000-2021)             **
 **                      J. Chem. Phys. 152, 194103 (2020)                    **
 **                                                                           **
 *******************************************************************************


 TOTAL NUMBERS AND MAXIMUM NUMBERS

  Total number of            - Atomic kinds:                                   6
                             - Atoms:                                       3625
                             - Shell sets:                                  3625
                             - Shells:                                      4982
                             - Primitive Cartesian functions:              24767
                             - Cartesian basis functions:                   7696
                             - Spherical basis functions:                   7696

  Maximum angular momentum of- Orbital basis functions:                        1
                             - Local part of the GTH pseudopotential:          2
                             - Non-local part of the GTH pseudopotential:      4


 SCF PARAMETERS         Density guess:                                   RESTART
                        --------------------------------------------------------
                        max_scf:                                             500
                        max_scf_history:                                       0
                        max_diis:                                              4
                        --------------------------------------------------------
                        eps_scf:                                        1.00E-06
                        eps_scf_history:                                0.00E+00
                        eps_diis:                                       1.00E-01
                        eps_eigval:                                     1.00E-05
                        --------------------------------------------------------
                        level_shift [a.u.]:                                 0.00
                        --------------------------------------------------------
                        No outer SCF

 *******************************************************************************
 ***                     STARTING GEOMETRY OPTIMIZATION                      ***
 ***                                 L-BFGS                                  ***
 *******************************************************************************

 --------------------------
 OPTIMIZATION STEP:      1
 --------------------------

 Spin 1

 Number of electrons:                                                       5140
 Number of occupied orbitals:                                               5140
 Number of molecular orbitals:                                              5140

 Spin 2

 Number of electrons:                                                       5139
 Number of occupied orbitals:                                               5139
 Number of molecular orbitals:                                              5139

 Number of orbital functions:                                               7696
 Number of independent orbital functions:                                   7696

 Extrapolation method: initial_guess

 *** WARNING in qs_initial_guess.F:309 :: User requested to restart the    ***
 *** wavefunction from the file named: MAPbI3-RESTART.wfn. This file does  ***
 *** not exist. Please check the existence of the file or change properly  ***
 *** the value of the keyword WFN_RESTART_FILE_NAME. Calculation continues ***
 *** using ATOMIC GUESS.                                                   ***



 SCF WAVEFUNCTION OPTIMIZATION

  ----------------------------------- OT ---------------------------------------
  Minimizer      : DIIS                : direct inversion
                                         in the iterative subspace
                                         using   7 DIIS vectors
                                         safer DIIS on
  Preconditioner : FULL_KINETIC        : inversion of T + eS
  Precond_solver : DEFAULT
  stepsize       :    0.15000000                  energy_gap     :    0.20000000
  eps_taylor     :   0.10000E-15                  max_taylor     :             4
  ----------------------------------- OT ---------------------------------------

  Step     Update method      Time    Convergence         Total energy    Change
  ------------------------------------------------------------------------------
     1 OT DIIS     0.15E+00    6.7     0.00278163    -19062.9171166772 -1.91E+04
     2 OT DIIS     0.15E+00   11.2     0.00252847    -19144.3897738378 -8.15E+01
     3 OT DIIS     0.15E+00   10.4     0.00234985    -19201.6977545186 -5.73E+01
     4 OT DIIS     0.15E+00   10.2     0.00196144    -19365.3328039822 -1.64E+02
     5 OT DIIS     0.15E+00   12.6     0.00145075    -19529.5399733019 -1.64E+02
     6 OT DIIS     0.15E+00   10.1     0.00127443    -19574.9687984102 -4.54E+01
     7 OT DIIS     0.15E+00   10.2     0.00093626    -19664.4484045219 -8.95E+01
     8 OT DIIS     0.15E+00   10.3     0.00072646    -19708.4675765284 -4.40E+01
     9 OT DIIS     0.15E+00   10.3     0.00061569    -19728.8734045653 -2.04E+01
    10 OT DIIS     0.15E+00   10.3     0.00045211    -19755.7325749827 -2.69E+01
    11 OT DIIS     0.15E+00   10.3     0.00040932    -19761.6913372108 -5.96E+00
    12 OT DIIS     0.15E+00   10.2     0.00033267    -19772.1334046572 -1.04E+01
    13 OT DIIS     0.15E+00   10.1     0.00027039    -19779.3123801049 -7.18E+00
    14 OT DIIS     0.15E+00   10.4     0.00026602    -19780.4939254365 -1.18E+00
    15 OT DIIS     0.15E+00   10.1     0.00024614    -19782.8043214669 -2.31E+00
    16 OT DIIS     0.15E+00   10.2     0.00018537    -19788.4294966375 -5.63E+00
    17 OT SD       0.15E+00   10.2     0.00014920    -19790.8790015742 -2.45E+00
    18 OT DIIS     0.15E+00   10.2     0.00014405    -19791.1383481201 -2.59E-01
    19 OT DIIS     0.15E+00   10.1     0.00013433    -19792.3947254304 -1.26E+00
    20 OT DIIS     0.15E+00   10.6     0.00012024    -19793.1762651170 -7.82E-01
    21 OT DIIS     0.15E+00   10.0     0.00011493    -19793.6502191878 -4.74E-01
    22 OT DIIS     0.15E+00   10.2     0.00010714    -19794.6538675911 -1.00E+00
    23 OT DIIS     0.15E+00   10.3     0.00009564    -19795.5644579456 -9.11E-01
    24 OT DIIS     0.15E+00   10.1     0.00008042    -19796.7770311959 -1.21E+00
    25 OT DIIS     0.15E+00   10.2     0.00007555    -19797.1511505433 -3.74E-01
    26 OT DIIS     0.15E+00   10.2     0.00007063    -19797.5945889077 -4.43E-01
    27 OT SD       0.15E+00   10.1     0.00006652    -19798.2762800728 -6.82E-01
    28 OT DIIS     0.15E+00   10.1     0.00006479    -19798.3280718327 -5.18E-02
    29 OT DIIS     0.15E+00   10.3     0.00005205    -19799.1732053165 -8.45E-01
    30 OT DIIS     0.15E+00   10.1     0.00005285    -19799.1879791396 -1.48E-02
    31 OT DIIS     0.15E+00   10.2     0.00004935    -19799.4892833783 -3.01E-01
    32 OT DIIS     0.15E+00   10.2     0.00004804    -19799.6216481531 -1.32E-01
    33 OT DIIS     0.15E+00   10.2     0.00004281    -19799.9873371258 -3.66E-01
    34 OT DIIS     0.15E+00   10.4     0.00003936    -19800.2909051074 -3.04E-01
    35 OT DIIS     0.15E+00   11.9     0.00003634    -19800.4435627538 -1.53E-01
    36 OT DIIS     0.15E+00   10.1     0.00003432    -19800.5715511742 -1.28E-01
    37 OT DIIS     0.15E+00   10.3     0.00003196    -19800.6938938198 -1.22E-01
    38 OT DIIS     0.15E+00   10.3     0.00002909    -19800.8897690853 -1.96E-01
    39 OT DIIS     0.15E+00   10.2     0.00002994    -19800.9502270880 -6.05E-02
    40 OT DIIS     0.15E+00   10.2     0.00002542    -19801.1214971654 -1.71E-01
    41 OT DIIS     0.15E+00   10.1     0.00002729    -19801.1232931186 -1.80E-03
    42 OT DIIS     0.15E+00   10.2     0.00002582    -19801.1813159293 -5.80E-02
    43 OT DIIS     0.15E+00   10.2     0.00002357    -19801.2610662909 -7.98E-02
    44 OT DIIS     0.15E+00   10.3     0.00002222    -19801.3264422579 -6.54E-02
    45 OT DIIS     0.15E+00   10.1     0.00002220    -19801.3603836734 -3.39E-02
    46 OT DIIS     0.15E+00   10.2     0.00002102    -19801.4128801965 -5.25E-02
    47 OT DIIS     0.15E+00   10.2     0.00002005    -19801.4777157455 -6.48E-02
    48 OT SD       0.15E+00   10.3     0.00001863    -19801.5353290908 -5.76E-02
    49 OT DIIS     0.15E+00   10.1     0.00001823    -19801.5394001767 -4.07E-03
    50 OT DIIS     0.15E+00   10.7     0.00001536    -19801.6830757960 -1.44E-01
    51 OT DIIS     0.15E+00   10.1     0.00001503    -19801.6930220797 -9.95E-03
    52 OT DIIS     0.15E+00   10.3     0.00001354    -19801.7688740989 -7.59E-02
    53 OT SD       0.15E+00   10.3     0.00001311    -19801.7677743521  1.10E-03
    54 OT DIIS     0.15E+00   10.3     0.00001293    -19801.7697992603 -2.02E-03
    55 OT DIIS     0.15E+00   10.3     0.00001176    -19801.8184562409 -4.87E-02
    56 OT DIIS     0.15E+00   10.2     0.00001173    -19801.8274980791 -9.04E-03
    57 OT DIIS     0.15E+00   10.2     0.00001081    -19801.8545382583 -2.70E-02
    58 OT DIIS     0.15E+00   10.2     0.00001019    -19801.8709925492 -1.65E-02
    59 OT DIIS     0.15E+00   10.2     0.00000914    -19801.9118261957 -4.08E-02
    60 OT DIIS     0.15E+00   10.1     0.00000876    -19801.9190786820 -7.25E-03
    61 OT SD       0.15E+00   10.2     0.00000828    -19801.9373119136 -1.82E-02
    62 OT DIIS     0.15E+00   10.3     0.00000818    -19801.9381201610 -8.08E-04
    63 OT DIIS     0.15E+00   10.5     0.00000726    -19801.9672009186 -2.91E-02
    64 OT DIIS     0.15E+00   11.9     0.00000712    -19801.9697531814 -2.55E-03
    65 OT DIIS     0.15E+00   10.5     0.00000694    -19801.9790324691 -9.28E-03
    66 OT DIIS     0.15E+00   10.1     0.00000661    -19801.9933086389 -1.43E-02
    67 OT DIIS     0.15E+00   10.3     0.00000652    -19801.9970156859 -3.71E-03
    68 OT DIIS     0.15E+00   10.4     0.00000605    -19802.0104452176 -1.34E-02
    69 OT DIIS     0.15E+00   10.2     0.00000588    -19802.0161891663 -5.74E-03
    70 OT DIIS     0.15E+00   10.2     0.00000557    -19802.0259513142 -9.76E-03
    71 OT DIIS     0.15E+00   10.2     0.00000542    -19802.0312986742 -5.35E-03
    72 OT DIIS     0.15E+00   10.2     0.00000522    -19802.0378080585 -6.51E-03
    73 OT DIIS     0.15E+00   10.3     0.00000498    -19802.0457585931 -7.95E-03
    74 OT DIIS     0.15E+00   10.2     0.00000479    -19802.0525461175 -6.79E-03
    75 OT SD       0.15E+00   10.2     0.00000463    -19802.0613834816 -8.84E-03
    76 OT DIIS     0.15E+00   10.1     0.00000458    -19802.0616362817 -2.53E-04
    77 OT DIIS     0.15E+00   10.2     0.00000423    -19802.0748099126 -1.32E-02
    78 OT DIIS     0.15E+00   10.2     0.00000416    -19802.0762386067 -1.43E-03
    79 OT DIIS     0.15E+00   10.1     0.00000391    -19802.0836448170 -7.41E-03
    80 OT DIIS     0.15E+00   10.4     0.00000389    -19802.0850671271 -1.42E-03
    81 OT DIIS     0.15E+00   10.2     0.00000387    -19802.0855960680 -5.29E-04
    82 OT DIIS     0.15E+00   10.2     0.00000365    -19802.0924769610 -6.88E-03
    83 OT DIIS     0.15E+00   10.3     0.00000359    -19802.0965191966 -4.04E-03
    84 OT DIIS     0.15E+00   10.2     0.00000353    -19802.0983469966 -1.83E-03
    85 OT DIIS     0.15E+00   10.2     0.00000339    -19802.1025586458 -4.21E-03
    86 OT DIIS     0.15E+00   10.2     0.00000334    -19802.1033559871 -7.97E-04
    87 OT DIIS     0.15E+00   10.2     0.00000328    -19802.1046001170 -1.24E-03
    88 OT DIIS     0.15E+00   10.3     0.00000324    -19802.1059858938 -1.39E-03
    89 OT DIIS     0.15E+00   10.3     0.00000314    -19802.1122074931 -6.22E-03
    90 OT DIIS     0.15E+00   10.1     0.00000307    -19802.1142417125 -2.03E-03
    91 OT DIIS     0.15E+00   10.2     0.00000302    -19802.1168561559 -2.61E-03
    92 OT DIIS     0.15E+00   10.4     0.00000296    -19802.1206155496 -3.76E-03
    93 OT DIIS     0.15E+00   11.9     0.00000293    -19802.1224191987 -1.80E-03
    94 OT DIIS     0.15E+00   10.2     0.00000285    -19802.1242584532 -1.84E-03
    95 OT DIIS     0.15E+00   10.4     0.00000282    -19802.1267428362 -2.48E-03
    96 OT DIIS     0.15E+00   10.2     0.00000280    -19802.1270539494 -3.11E-04
    97 OT DIIS     0.15E+00   10.3     0.00000277    -19802.1290720463 -2.02E-03
    98 OT DIIS     0.15E+00   10.3     0.00000292    -19802.1314302196 -2.36E-03
    99 OT DIIS     0.15E+00   10.1     0.00000258    -19802.1362912892 -4.86E-03
   100 OT DIIS     0.15E+00   10.2     0.00000254    -19802.1381667889 -1.88E-03
   101 OT DIIS     0.15E+00   10.2     0.00000250    -19802.1401189358 -1.95E-03
   102 OT DIIS     0.15E+00   10.2     0.00000242    -19802.1446892001 -4.57E-03
   103 OT DIIS     0.15E+00   10.3     0.00000240    -19802.1453748014 -6.86E-04
   104 OT DIIS     0.15E+00   10.3     0.00000236    -19802.1459716181 -5.97E-04
   105 OT SD       0.15E+00   10.2     0.00000233    -19802.1475035855 -1.53E-03
   106 OT DIIS     0.15E+00   10.2     0.00000232    -19802.1475678004 -6.42E-05
   107 OT DIIS     0.15E+00   10.2     0.00000224    -19802.1527769900 -5.21E-03
   108 OT DIIS     0.15E+00   10.2     0.00000216    -19802.1534499017 -6.73E-04
   109 OT DIIS     0.15E+00   10.2     0.00000212    -19802.1551646345 -1.71E-03
   110 OT DIIS     0.15E+00   10.4     0.00000209    -19802.1558824760 -7.18E-04
   111 OT DIIS     0.15E+00   10.2     0.00000204    -19802.1574044632 -1.52E-03
   112 OT DIIS     0.15E+00   10.3     0.00000203    -19802.1576391081 -2.35E-04
   113 OT SD       0.15E+00   10.3     0.00000198    -19802.1604669038 -2.83E-03
   114 OT DIIS     0.15E+00   10.2     0.00000197    -19802.1605132415 -4.63E-05
   115 OT DIIS     0.15E+00   10.2     0.00000189    -19802.1645027335 -3.99E-03
   116 OT DIIS     0.15E+00   10.2     0.00000190    -19802.1646957086 -1.93E-04
   117 OT DIIS     0.15E+00   10.2     0.00000185    -19802.1674695456 -2.77E-03
   118 OT DIIS     0.15E+00   10.3     0.00000182    -19802.1680019029 -5.32E-04
   119 OT DIIS     0.15E+00   10.3     0.00000181    -19802.1682547027 -2.53E-04
   120 OT SD       0.15E+00   10.1     0.00000175    -19802.1707438716 -2.49E-03
   121 OT DIIS     0.15E+00   10.4     0.00000175    -19802.1707802170 -3.63E-05
   122 OT SD       0.15E+00   12.3     0.00000173    -19802.1745871699 -3.81E-03
   123 OT DIIS     0.15E+00   10.2     0.00000172    -19802.1746226608 -3.55E-05
   124 OT SD       0.15E+00   10.3     0.00000166    -19802.1767030609 -2.08E-03
   125 OT DIIS     0.15E+00   10.2     0.00000165    -19802.1767356309 -3.26E-05
   126 OT SD       0.15E+00   10.1     0.00000162    -19802.1817808559 -5.05E-03
   127 OT DIIS     0.15E+00   10.1     0.00000161    -19802.1818119758 -3.11E-05
   128 OT SD       0.15E+00   10.2     0.00000151    -19802.1844645961 -2.65E-03
   129 OT DIIS     0.15E+00   10.2     0.00000150    -19802.1844916242 -2.70E-05
   130 OT DIIS     0.15E+00   10.2     0.00000145    -19802.1880458238 -3.55E-03
   131 OT DIIS     0.15E+00   10.2     0.00000142    -19802.1882476884 -2.02E-04
   132 OT DIIS     0.15E+00   10.2     0.00000141    -19802.1884460625 -1.98E-04
   133 OT DIIS     0.15E+00   10.3     0.00000137    -19802.1908829424 -2.44E-03
   134 OT DIIS     0.15E+00   10.2     0.00000135    -19802.1909500691 -6.71E-05
   135 OT DIIS     0.15E+00   10.2     0.00000134    -19802.1913299938 -3.80E-04
   136 OT DIIS     0.15E+00   10.2     0.00000131    -19802.1938433406 -2.51E-03
   137 OT DIIS     0.15E+00   10.3     0.00000129    -19802.1938873187 -4.40E-05
   138 OT DIIS     0.15E+00   10.3     0.00000128    -19802.1947001255 -8.13E-04
   139 OT DIIS     0.15E+00   10.2     0.00000126    -19802.1960153036 -1.32E-03
   140 OT DIIS     0.15E+00   10.5     0.00000124    -19802.1962073958 -1.92E-04
   141 OT DIIS     0.15E+00   10.1     0.00000132    -19802.1982273987 -2.02E-03
   142 OT DIIS     0.15E+00   10.2     0.00000122    -19802.1984480390 -2.21E-04
   143 OT SD       0.15E+00   10.2     0.00000121    -19802.1987182431 -2.70E-04
   144 OT DIIS     0.15E+00   10.1     0.00000120    -19802.1987355642 -1.73E-05
   145 OT DIIS     0.15E+00   10.2     0.00000117    -19802.1998632385 -1.13E-03
   146 OT DIIS     0.15E+00   10.2     0.00000116    -19802.2000178840 -1.55E-04
   147 OT DIIS     0.15E+00   10.2     0.00000114    -19802.2019088761 -1.89E-03
   148 OT DIIS     0.15E+00   10.3     0.00000113    -19802.2021818175 -2.73E-04
   149 OT DIIS     0.15E+00   10.2     0.00000113    -19802.2023393631 -1.58E-04
   150 OT DIIS     0.15E+00   10.2     0.00000110    -19802.2037846474 -1.45E-03
   151 OT DIIS     0.15E+00   12.4     0.00000109    -19802.2045358150 -7.51E-04
   152 OT DIIS     0.15E+00   10.3     0.00000108    -19802.2049485433 -4.13E-04
   153 OT DIIS     0.15E+00   10.4     0.00000107    -19802.2052390891 -2.91E-04
   154 OT DIIS     0.15E+00   10.4     0.00000105    -19802.2064097506 -1.17E-03
   155 OT DIIS     0.15E+00   10.2     0.00000105    -19802.2069526463 -5.43E-04
   156 OT DIIS     0.15E+00   10.5     0.00000104    -19802.2071306309 -1.78E-04
   157 OT DIIS     0.15E+00   10.2     0.00000102    -19802.2079971984 -8.67E-04
   158 OT DIIS     0.15E+00   10.1     0.00000102    -19802.2081434571 -1.46E-04
   159 OT DIIS     0.15E+00   10.1     0.00000102    -19802.2081764882 -3.30E-05
   160 OT SD       0.15E+00   10.1     0.00000100    -19802.2095307254 -1.35E-03

  *** SCF run converged in   160 steps ***


  Electronic density on regular grids:     -10278.9979349405        0.0020650595
  Core density on regular grids:            10278.9999986721       -0.0000013279
  Total charge density on r-space grids:        0.0020637315
  Total charge density g-space grids:           0.0020637315

  Overlap energy of the core charge distribution:               0.00009659666765
  Self energy of the core charge distribution:             -49683.62952043277619
  Core Hamiltonian energy:                                  14432.31152793460387
  Hartree energy:                                           20442.14153486429132
  Exchange-correlation energy:                              -4987.21147188257055
  Dispersion energy:                                           -5.82169780559405

  Total energy:                                            -19802.20953072537668

  Integrated absolute spin density  :                               2.9276519399
  Ideal and single determinant S**2 :                    0.750000       1.059240

 ENERGY| Total FORCE_EVAL ( QS ) energy [a.u.]:           -19802.209542517219234

 Spin 1

 Number of electrons:                                                       5140
 Number of occupied orbitals:                                               5140
 Number of molecular orbitals:                                              5140

 Spin 2

 Number of electrons:                                                       5139
 Number of occupied orbitals:                                               5139
 Number of molecular orbitals:                                              5139

 Number of orbital functions:                                               7696
 Number of independent orbital functions:                                   7696

 Extrapolation method: ASPC


 SCF WAVEFUNCTION OPTIMIZATION

  ----------------------------------- OT ---------------------------------------
  Minimizer      : DIIS                : direct inversion
                                         in the iterative subspace
                                         using   7 DIIS vectors
                                         safer DIIS on
  Preconditioner : FULL_KINETIC        : inversion of T + eS
  Precond_solver : DEFAULT
  stepsize       :    0.15000000                  energy_gap     :    0.20000000
  eps_taylor     :   0.10000E-15                  max_taylor     :             4
  ----------------------------------- OT ---------------------------------------

  Step     Update method      Time    Convergence         Total energy    Change
  ------------------------------------------------------------------------------
     1 OT DIIS     0.15E+00    6.0     0.00002203    -19803.8253857900 -1.98E+04
     2 OT DIIS     0.15E+00    6.4     0.00002002    -19803.8308775048 -5.49E-03
     3 OT DIIS     0.15E+00    7.1     0.00000757    -19803.8568010235 -2.59E-02
     4 OT DIIS     0.15E+00    6.9     0.00000431    -19803.8604517325 -3.65E-03
     5 OT DIIS     0.15E+00    6.9     0.00000333    -19803.8615730843 -1.12E-03
     6 OT DIIS     0.15E+00    7.0     0.00000310    -19803.8619540589 -3.81E-04
     7 OT DIIS     0.15E+00    7.0     0.00000269    -19803.8629039662 -9.50E-04
     8 OT DIIS     0.15E+00    7.0     0.00000247    -19803.8637046829 -8.01E-04
     9 OT DIIS     0.15E+00    6.9     0.00000225    -19803.8648872497 -1.18E-03
    10 OT DIIS     0.15E+00    7.0     0.00000221    -19803.8652200928 -3.33E-04
    11 OT DIIS     0.15E+00    6.9     0.00000217    -19803.8655755374 -3.55E-04
    12 OT DIIS     0.15E+00    6.9     0.00000202    -19803.8669611390 -1.39E-03
    13 OT DIIS     0.15E+00    6.9     0.00000194    -19803.8679927980 -1.03E-03
    14 OT DIIS     0.15E+00    7.0     0.00000190    -19803.8685886953 -5.96E-04
    15 OT DIIS     0.15E+00    6.9     0.00000187    -19803.8692829255 -6.94E-04
    16 OT DIIS     0.15E+00    6.9     0.00000182    -19803.8700913143 -8.08E-04
    17 OT DIIS     0.15E+00    7.0     0.00000178    -19803.8708510354 -7.60E-04
    18 OT DIIS     0.15E+00    6.9     0.00000177    -19803.8711305618 -2.80E-04
    19 OT DIIS     0.15E+00    6.9     0.00000171    -19803.8725783300 -1.45E-03
    20 OT DIIS     0.15E+00    7.1     0.00000170    -19803.8729679211 -3.90E-04
    21 OT DIIS     0.15E+00    7.6     0.00000165    -19803.8741905009 -1.22E-03
    22 OT DIIS     0.15E+00    7.5     0.00000164    -19803.8745534118 -3.63E-04
    23 OT DIIS     0.15E+00    7.6     0.00000163    -19803.8748727707 -3.19E-04
    24 OT DIIS     0.15E+00    7.5     0.00000161    -19803.8754152522 -5.42E-04
    25 OT DIIS     0.15E+00    7.7     0.00000160    -19803.8759644872 -5.49E-04
    26 OT DIIS     0.15E+00    7.5     0.00000159    -19803.8762286921 -2.64E-04
    27 OT DIIS     0.15E+00   12.3     0.00000159    -19803.8763929523 -1.64E-04
    28 OT DIIS     0.15E+00   10.1     0.00000155    -19803.8784336608 -2.04E-03
    29 OT DIIS     0.15E+00   10.1     0.00000154    -19803.8785179214 -8.43E-05
    30 OT SD       0.15E+00   10.0     0.00000152    -19803.8801982583 -1.68E-03
    31 OT DIIS     0.15E+00   10.0     0.00000151    -19803.8802256319 -2.74E-05
    32 OT DIIS     0.15E+00   10.1     0.00000149    -19803.8816836224 -1.46E-03
    33 OT DIIS     0.15E+00   10.1     0.00000148    -19803.8822560448 -5.72E-04
    34 OT DIIS     0.15E+00   10.1     0.00000147    -19803.8827456295 -4.90E-04
    35 OT DIIS     0.15E+00   10.1     0.00000147    -19803.8827783078 -3.27E-05
    36 OT DIIS     0.15E+00   10.1     0.00000146    -19803.8831117545 -3.33E-04
    37 OT DIIS     0.15E+00   10.1     0.00000144    -19803.8842779524 -1.17E-03
    38 OT DIIS     0.15E+00   10.1     0.00000143    -19803.8851093220 -8.31E-04
    39 OT DIIS     0.15E+00   10.1     0.00000143    -19803.8861067485 -9.97E-04
    40 OT DIIS     0.15E+00   10.1     0.00000142    -19803.8867115892 -6.05E-04
    41 OT DIIS     0.15E+00   10.1     0.00000141    -19803.8872131670 -5.02E-04
    42 OT DIIS     0.15E+00   10.0     0.00000141    -19803.8879477162 -7.35E-04
    43 OT DIIS     0.15E+00   10.1     0.00000140    -19803.8882088215 -2.61E-04
    44 OT SD       0.15E+00   10.0     0.00000139    -19803.8894194604 -1.21E-03
    45 OT DIIS     0.15E+00   10.1     0.00000138    -19803.8894422171 -2.28E-05
    46 OT DIIS     0.15E+00   10.1     0.00000138    -19803.8900169456 -5.75E-04
    47 OT DIIS     0.15E+00   10.1     0.00000137    -19803.8906602861 -6.43E-04
    48 OT SD       0.15E+00   10.2     0.00000138    -19803.8906664298 -6.14E-06
    49 OT DIIS     0.15E+00   10.2     0.00000138    -19803.8906889739 -2.25E-05
    50 OT DIIS     0.15E+00   10.1     0.00000137    -19803.8910983200 -4.09E-04
    51 OT DIIS     0.15E+00   10.1     0.00000137    -19803.8912223437 -1.24E-04
    52 OT DIIS     0.15E+00   10.1     0.00000136    -19803.8923734226 -1.15E-03
    53 OT DIIS     0.15E+00   10.2     0.00000136    -19803.8925985107 -2.25E-04
    54 OT DIIS     0.15E+00   10.1     0.00000135    -19803.8929412949 -3.43E-04
    55 OT DIIS     0.15E+00   10.1     0.00000135    -19803.8934159482 -4.75E-04
    56 OT DIIS     0.15E+00   12.3     0.00000135    -19803.8934745669 -5.86E-05
    57 OT DIIS     0.15E+00   10.1     0.00000135    -19803.8940157793 -5.41E-04
    58 OT SD       0.15E+00   10.1     0.00000134    -19803.8942301559 -2.14E-04
    59 OT DIIS     0.15E+00   10.1     0.00000134    -19803.8942516082 -2.15E-05
    60 OT DIIS     0.15E+00   10.1     0.00000134    -19803.8949192352 -6.68E-04
    61 OT DIIS     0.15E+00   10.1     0.00000134    -19803.8949683762 -4.91E-05
    62 OT DIIS     0.15E+00   10.1     0.00000134    -19803.8952768247 -3.08E-04
    63 OT DIIS     0.15E+00   10.2     0.00000134    -19803.8953196873 -4.29E-05
    64 OT SD       0.15E+00   10.2     0.00000134    -19803.8961181277 -7.98E-04
    65 OT DIIS     0.15E+00   10.2     0.00000134    -19803.8961393341 -2.12E-05
    66 OT DIIS     0.15E+00   10.1     0.00000133    -19803.8968142397 -6.75E-04
    67 OT DIIS     0.15E+00   10.2     0.00000133    -19803.8972317328 -4.17E-04
    68 OT DIIS     0.15E+00   10.2     0.00000133    -19803.8974712584 -2.40E-04
    69 OT DIIS     0.15E+00   10.1     0.00000132    -19803.8981773841 -7.06E-04
    70 OT SD       0.15E+00   10.1     0.00000134    -19803.8991626444 -9.85E-04
    71 OT DIIS     0.15E+00   10.2     0.00000133    -19803.8991837922 -2.11E-05
    72 OT DIIS     0.15E+00   10.1     0.00000132    -19803.8993060571 -1.22E-04
    73 OT DIIS     0.15E+00   10.2     0.00000130    -19803.9007161882 -1.41E-03
    74 OT DIIS     0.15E+00   10.1     0.00000130    -19803.9009578574 -2.42E-04
    75 OT DIIS     0.15E+00   10.1     0.00000130    -19803.9010783093 -1.20E-04
    76 OT DIIS     0.15E+00   10.1     0.00000129    -19803.9018871129 -8.09E-04
    77 OT DIIS     0.15E+00   10.2     0.00000128    -19803.9028332240 -9.46E-04
    78 OT SD       0.15E+00   10.0     0.00000128    -19803.9033780625 -5.45E-04
    79 OT DIIS     0.15E+00   10.1     0.00000128    -19803.9033975720 -1.95E-05
    80 OT DIIS     0.15E+00   10.1     0.00000126    -19803.9045277125 -1.13E-03
    81 OT SD       0.15E+00   10.1     0.00000126    -19803.9046364468 -1.09E-04
    82 OT DIIS     0.15E+00   10.0     0.00000126    -19803.9046553246 -1.89E-05
    83 OT DIIS     0.15E+00   10.1     0.00000135    -19803.9047155312 -6.02E-05
    84 OT DIIS     0.15E+00   10.1     0.00000124    -19803.9060763717 -1.36E-03
    85 OT DIIS     0.15E+00   10.3     0.00000125    -19803.9069917397 -9.15E-04
    86 OT DIIS     0.15E+00   11.9     0.00000123    -19803.9069995106 -7.77E-06
    87 OT DIIS     0.15E+00   10.0     0.00000123    -19803.9071213043 -1.22E-04
    88 OT DIIS     0.15E+00   10.1     0.00000122    -19803.9074314535 -3.10E-04
    89 OT DIIS     0.15E+00   10.0     0.00000124    -19803.9080663897 -6.35E-04
    90 OT DIIS     0.15E+00   10.0     0.00000121    -19803.9083728219 -3.06E-04
    91 OT DIIS     0.15E+00   10.0     0.00000121    -19803.9084957859 -1.23E-04
    92 OT DIIS     0.15E+00    9.7     0.00000120    -19803.9095083486 -1.01E-03
    93 OT DIIS     0.15E+00   10.0     0.00000120    -19803.9099222182 -4.14E-04
    94 OT DIIS     0.15E+00   10.0     0.00000119    -19803.9105279350 -6.06E-04
    95 OT DIIS     0.15E+00   10.0     0.00000119    -19803.9105787659 -5.08E-05
    96 OT DIIS     0.15E+00   10.0     0.00000119    -19803.9106781553 -9.94E-05
    97 OT DIIS     0.15E+00   10.0     0.00000118    -19803.9111661404 -4.88E-04
    98 OT DIIS     0.15E+00   10.0     0.00000118    -19803.9113581458 -1.92E-04
    99 OT DIIS     0.15E+00   10.1     0.00000118    -19803.9114188037 -6.07E-05
   100 OT DIIS     0.15E+00   10.0     0.00000118    -19803.9120813401 -6.63E-04
   101 OT DIIS     0.15E+00   10.2     0.00000117    -19803.9129793872 -8.98E-04
   102 OT DIIS     0.15E+00   10.0     0.00000117    -19803.9130046580 -2.53E-05
   103 OT DIIS     0.15E+00   10.0     0.00000117    -19803.9131053355 -1.01E-04
   104 OT SD       0.15E+00   10.1     0.00000116    -19803.9140351222 -9.30E-04
   105 OT DIIS     0.15E+00   10.1     0.00000116    -19803.9140511577 -1.60E-05
   106 OT DIIS     0.15E+00   10.1     0.00000116    -19803.9144966740 -4.46E-04
   107 OT SD       0.15E+00   10.1     0.00000116    -19803.9146713059 -1.75E-04
   108 OT DIIS     0.15E+00   10.0     0.00000116    -19803.9146871676 -1.59E-05
   109 OT SD       0.15E+00   10.1     0.00000115    -19803.9152766135 -5.89E-04
   110 OT DIIS     0.15E+00   10.0     0.00000115    -19803.9152923880 -1.58E-05
   111 OT DIIS     0.15E+00   10.0     0.00000115    -19803.9157891074 -4.97E-04
   112 OT DIIS     0.15E+00   10.1     0.00000114    -19803.9164090609 -6.20E-04
   113 OT DIIS     0.15E+00   10.1     0.00000114    -19803.9171631591 -7.54E-04
   114 OT DIIS     0.15E+00   10.0     0.00000114    -19803.9173832345 -2.20E-04
   115 OT SD       0.15E+00   12.3     0.00000113    -19803.9176853488 -3.02E-04
   116 OT DIIS     0.15E+00   10.2     0.00000113    -19803.9177006216 -1.53E-05
   117 OT SD       0.15E+00   10.0     0.00000115    -19803.9185101518 -8.10E-04
   118 OT SD       0.15E+00   10.0     0.00000114    -19803.9185257469 -1.56E-05
   119 OT DIIS     0.15E+00   10.0     0.00000114    -19803.9185412389 -1.55E-05
   120 OT DIIS     0.15E+00   10.1     0.00000113    -19803.9190081460 -4.67E-04
   121 OT SD       0.15E+00   10.1     0.00000112    -19803.9198130871 -8.05E-04
   122 OT DIIS     0.15E+00   10.0     0.00000112    -19803.9198279274 -1.48E-05
   123 OT DIIS     0.15E+00   10.0     0.00000111    -19803.9209080447 -1.08E-03
   124 OT DIIS     0.15E+00   10.0     0.00000110    -19803.9213131284 -4.05E-04
   125 OT SD       0.15E+00   10.0     0.00000110    -19803.9220155581 -7.02E-04
   126 OT SD       0.15E+00   10.0     0.00000110    -19803.9220299404 -1.44E-05
   127 OT DIIS     0.15E+00   10.0     0.00000110    -19803.9220442609 -1.43E-05
   128 OT SD       0.15E+00   10.0     0.00000108    -19803.9231476665 -1.10E-03
   129 OT DIIS     0.15E+00   10.0     0.00000108    -19803.9231614257 -1.38E-05
   130 OT DIIS     0.15E+00   10.0     0.00000104    -19803.9251430834 -1.98E-03
   131 OT DIIS     0.15E+00   10.0     0.00000104    -19803.9252523607 -1.09E-04
   132 OT SD       0.15E+00   10.0     0.00000106    -19803.9254899101 -2.38E-04
   133 OT DIIS     0.15E+00   10.0     0.00000105    -19803.9255030868 -1.32E-05
   134 OT DIIS     0.15E+00   10.1     0.00000108    -19803.9257292530 -2.26E-04
   135 OT SD       0.15E+00   10.0     0.00000102    -19803.9263915831 -6.62E-04
   136 OT DIIS     0.15E+00   10.1     0.00000102    -19803.9264038979 -1.23E-05
   137 OT DIIS     0.15E+00   10.0     0.00000100    -19803.9275248873 -1.12E-03

  *** SCF run converged in   137 steps ***


  Electronic density on regular grids:     -10278.9984182584        0.0015817416
  Core density on regular grids:            10278.9999985108       -0.0000014892
  Total charge density on r-space grids:        0.0015802524
  Total charge density g-space grids:           0.0015802524

  Overlap energy of the core charge distribution:               0.00012187199552
  Self energy of the core charge distribution:             -49683.62952043277619
  Core Hamiltonian energy:                                  14424.48488813157746
  Hartree energy:                                           20445.65514105723560
  Exchange-correlation energy:                              -4984.61803651263926
  Dispersion energy:                                           -5.82011900267563

  Total energy:                                            -19803.92752488727638

  Integrated absolute spin density  :                              17.4605291519
  Ideal and single determinant S**2 :                    0.750000       9.491091

 ENERGY| Total FORCE_EVAL ( QS ) energy [a.u.]:           -19803.927694557874929

 --------  Informations at step =     1 ------------
  Optimization Method        =                LBFGS
  Total Energy               =    -19803.9276945579
  Real energy change         =        -1.7181520407
  Decrease in energy         =                  YES
  Used time                  =             2986.092

  Convergence check :
  Max. step size             =         0.0979487936
  Conv. limit for step size  =         0.0030000000
  Convergence in step size   =                   NO
  RMS step size              =         0.0095892660
  Conv. limit for RMS step   =         0.0015000000
  Convergence in RMS step    =                   NO
  Max. gradient              =         0.1588760606
  Conv. limit for gradients  =         0.0004500000
  Conv. for gradients        =                   NO
  RMS gradient               =         0.0140713222
  Conv. limit for RMS grad.  =         0.0003000000
  Conv. for gradients        =                   NO
 ---------------------------------------------------

 --------------------------
 OPTIMIZATION STEP:      2
 --------------------------

 Spin 1

 Number of electrons:                                                       5140
 Number of occupied orbitals:                                               5140
 Number of molecular orbitals:                                              5140

 Spin 2

 Number of electrons:                                                       5139
 Number of occupied orbitals:                                               5139
 Number of molecular orbitals:                                              5139

 Number of orbital functions:                                               7696
 Number of independent orbital functions:                                   7696

 Extrapolation method: ASPC


 SCF WAVEFUNCTION OPTIMIZATION

  ----------------------------------- OT ---------------------------------------
  Minimizer      : DIIS                : direct inversion
                                         in the iterative subspace
                                         using   7 DIIS vectors
                                         safer DIIS on
  Preconditioner : FULL_KINETIC        : inversion of T + eS
  Precond_solver : DEFAULT
  stepsize       :    0.15000000                  energy_gap     :    0.20000000
  eps_taylor     :   0.10000E-15                  max_taylor     :             4
  ----------------------------------- OT ---------------------------------------

  Step     Update method      Time    Convergence         Total energy    Change
  ------------------------------------------------------------------------------
     1 OT DIIS     0.15E+00    6.2     0.00007203    -19807.9536646191 -1.98E+04
     2 OT DIIS     0.15E+00    6.9     0.00006596    -19808.0126106623 -5.89E-02
     3 OT DIIS     0.15E+00    7.0     0.00002411    -19808.3176063749 -3.05E-01
     4 OT DIIS     0.15E+00    7.6     0.00001075    -19808.3525395285 -3.49E-02
     5 OT DIIS     0.15E+00    7.5     0.00000915    -19808.3556127703 -3.07E-03
     6 OT DIIS     0.15E+00    7.5     0.00000685    -19808.3609723905 -5.36E-03
     7 OT DIIS     0.15E+00    7.6     0.00000538    -19808.3653130667 -4.34E-03
     8 OT DIIS     0.15E+00    7.6     0.00000458    -19808.3683323472 -3.02E-03
     9 OT DIIS     0.15E+00    9.8     0.00000435    -19808.3696468808 -1.31E-03
    10 OT DIIS     0.15E+00    7.5     0.00000386    -19808.3724151929 -2.77E-03
    11 OT DIIS     0.15E+00    7.7     0.00000375    -19808.3732282928 -8.13E-04
    12 OT DIIS     0.15E+00    7.6     0.00000343    -19808.3757356167 -2.51E-03
    13 OT DIIS     0.15E+00    8.8     0.00000334    -19808.3764744213 -7.39E-04
    14 OT DIIS     0.15E+00    8.9     0.00000286    -19808.3803312896 -3.86E-03
    15 OT DIIS     0.15E+00   10.3     0.00000278    -19808.3810162837 -6.85E-04
    16 OT DIIS     0.15E+00   10.1     0.00000259    -19808.3825192391 -1.50E-03
    17 OT DIIS     0.15E+00   10.1     0.00000254    -19808.3829540814 -4.35E-04
    18 OT DIIS     0.15E+00   10.0     0.00000246    -19808.3836053194 -6.51E-04
    19 OT DIIS     0.15E+00   10.0     0.00000241    -19808.3840901145 -4.85E-04
    20 OT DIIS     0.15E+00   10.0     0.00000234    -19808.3846115042 -5.21E-04
    21 OT DIIS     0.15E+00   10.0     0.00000230    -19808.3849282355 -3.17E-04
    22 OT DIIS     0.15E+00   10.0     0.00000225    -19808.3852003936 -2.72E-04
    23 OT DIIS     0.15E+00   10.1     0.00000223    -19808.3853288682 -1.28E-04
    24 OT DIIS     0.15E+00   10.0     0.00000221    -19808.3854611206 -1.32E-04
    25 OT DIIS     0.15E+00   10.0     0.00000217    -19808.3857731941 -3.12E-04
    26 OT DIIS     0.15E+00   10.1     0.00000215    -19808.3860027363 -2.30E-04
    27 OT DIIS     0.15E+00   10.2     0.00000210    -19808.3865896492 -5.87E-04
    28 OT DIIS     0.15E+00   10.0     0.00000207    -19808.3869043127 -3.15E-04
    29 OT DIIS     0.15E+00   10.0     0.00000205    -19808.3872280869 -3.24E-04
    30 OT DIIS     0.15E+00   10.1     0.00000203    -19808.3874865386 -2.58E-04
    31 OT DIIS     0.15E+00   10.1     0.00000200    -19808.3879142917 -4.28E-04
    32 OT DIIS     0.15E+00   10.1     0.00000197    -19808.3883032350 -3.89E-04
    33 OT DIIS     0.15E+00   10.1     0.00000190    -19808.3891347483 -8.32E-04
    34 OT DIIS     0.15E+00   10.1     0.00000187    -19808.3895047934 -3.70E-04
    35 OT DIIS     0.15E+00   10.0     0.00000181    -19808.3900817772 -5.77E-04
    36 OT DIIS     0.15E+00   10.0     0.00000178    -19808.3903379163 -2.56E-04
    37 OT DIIS     0.15E+00   10.0     0.00000176    -19808.3905975942 -2.60E-04
    38 OT DIIS     0.15E+00   10.1     0.00000173    -19808.3908303369 -2.33E-04
    39 OT DIIS     0.15E+00   10.1     0.00000170    -19808.3910966075 -2.66E-04
    40 OT DIIS     0.15E+00   12.0     0.00000167    -19808.3912824446 -1.86E-04
    41 OT DIIS     0.15E+00   10.0     0.00000165    -19808.3914903905 -2.08E-04
    42 OT DIIS     0.15E+00   10.1     0.00000164    -19808.3915605202 -7.01E-05
    43 OT DIIS     0.15E+00   10.0     0.00000161    -19808.3917277175 -1.67E-04
    44 OT DIIS     0.15E+00    9.9     0.00000160    -19808.3918374375 -1.10E-04
    45 OT DIIS     0.15E+00   10.0     0.00000159    -19808.3919435969 -1.06E-04
    46 OT DIIS     0.15E+00   10.0     0.00000158    -19808.3920770121 -1.33E-04
    47 OT DIIS     0.15E+00   10.0     0.00000157    -19808.3921979932 -1.21E-04
    48 OT DIIS     0.15E+00   10.0     0.00000156    -19808.3922858636 -8.79E-05
    49 OT DIIS     0.15E+00    9.9     0.00000155    -19808.3924406635 -1.55E-04
    50 OT DIIS     0.15E+00    9.9     0.00000154    -19808.3925670901 -1.26E-04
    51 OT DIIS     0.15E+00    9.9     0.00000152    -19808.3928000544 -2.33E-04
    52 OT DIIS     0.15E+00    9.9     0.00000150    -19808.3930953152 -2.95E-04
    53 OT DIIS     0.15E+00    9.9     0.00000149    -19808.3932680235 -1.73E-04
    54 OT DIIS     0.15E+00    9.9     0.00000147    -19808.3935763332 -3.08E-04
    55 OT DIIS     0.15E+00    9.9     0.00000145    -19808.3937535759 -1.77E-04
    56 OT DIIS     0.15E+00    9.9     0.00000143    -19808.3939671168 -2.14E-04
    57 OT DIIS     0.15E+00    9.9     0.00000142    -19808.3941322757 -1.65E-04
    58 OT DIIS     0.15E+00    9.9     0.00000141    -19808.3942685326 -1.36E-04
    59 OT DIIS     0.15E+00    9.8     0.00000139    -19808.3943990363 -1.31E-04
    60 OT DIIS     0.15E+00    9.9     0.00000137    -19808.3945994240 -2.00E-04
    61 OT DIIS     0.15E+00    9.7     0.00000136    -19808.3946857162 -8.63E-05
    62 OT DIIS     0.15E+00    9.8     0.00000134    -19808.3948785634 -1.93E-04
    63 OT DIIS     0.15E+00    9.7     0.00000133    -19808.3949686747 -9.01E-05
    64 OT DIIS     0.15E+00    9.7     0.00000132    -19808.3950555237 -8.68E-05
    65 OT DIIS     0.15E+00    9.7     0.00000131    -19808.3951106301 -5.51E-05
    66 OT DIIS     0.15E+00    9.8     0.00000130    -19808.3951797561 -6.91E-05
    67 OT DIIS     0.15E+00    9.7     0.00000130    -19808.3952620267 -8.23E-05
    68 OT DIIS     0.15E+00    9.7     0.00000128    -19808.3954390657 -1.77E-04
    69 OT DIIS     0.15E+00    9.8     0.00000127    -19808.3955445610 -1.05E-04
    70 OT DIIS     0.15E+00   11.3     0.00000126    -19808.3957264407 -1.82E-04
    71 OT DIIS     0.15E+00    9.7     0.00000125    -19808.3958442172 -1.18E-04
    72 OT DIIS     0.15E+00    9.7     0.00000124    -19808.3959487859 -1.05E-04
    73 OT DIIS     0.15E+00    9.8     0.00000124    -19808.3960787169 -1.30E-04
    74 OT DIIS     0.15E+00    9.7     0.00000123    -19808.3961981608 -1.19E-04
    75 OT DIIS     0.15E+00    9.7     0.00000121    -19808.3963784959 -1.80E-04
    76 OT DIIS     0.15E+00    9.7     0.00000120    -19808.3965743979 -1.96E-04
    77 OT DIIS     0.15E+00    9.7     0.00000119    -19808.3966765949 -1.02E-04
    78 OT DIIS     0.15E+00    9.7     0.00000118    -19808.3967923039 -1.16E-04
    79 OT DIIS     0.15E+00    9.8     0.00000117    -19808.3968858230 -9.35E-05
    80 OT DIIS     0.15E+00    9.8     0.00000116    -19808.3969586961 -7.29E-05
    81 OT DIIS     0.15E+00    9.8     0.00000115    -19808.3970582822 -9.96E-05
    82 OT DIIS     0.15E+00    9.8     0.00000114    -19808.3971225536 -6.43E-05
    83 OT DIIS     0.15E+00    9.8     0.00000113    -19808.3972050285 -8.25E-05
    84 OT DIIS     0.15E+00    9.8     0.00000113    -19808.3972581595 -5.31E-05
    85 OT DIIS     0.15E+00    9.7     0.00000112    -19808.3972946245 -3.65E-05
    86 OT DIIS     0.15E+00   10.6     0.00000112    -19808.3973437561 -4.91E-05
    87 OT DIIS     0.15E+00   10.7     0.00000111    -19808.3974262597 -8.25E-05
    88 OT DIIS     0.15E+00   10.8     0.00000110    -19808.3974896391 -6.34E-05
    89 OT DIIS     0.15E+00   10.6     0.00000110    -19808.3976124015 -1.23E-04
    90 OT DIIS     0.15E+00   10.9     0.00000109    -19808.3976740716 -6.17E-05
    91 OT DIIS     0.15E+00   10.7     0.00000108    -19808.3977951634 -1.21E-04
    92 OT DIIS     0.15E+00   10.8     0.00000108    -19808.3978827290 -8.76E-05
    93 OT DIIS     0.15E+00   10.8     0.00000107    -19808.3979800530 -9.73E-05
    94 OT DIIS     0.15E+00   11.0     0.00000106    -19808.3980791477 -9.91E-05
    95 OT DIIS     0.15E+00   11.0     0.00000105    -19808.3982747658 -1.96E-04
    96 OT DIIS     0.15E+00   10.6     0.00000104    -19808.3983761664 -1.01E-04
    97 OT DIIS     0.15E+00   10.9     0.00000103    -19808.3985608121 -1.85E-04
    98 OT DIIS     0.15E+00   10.8     0.00000102    -19808.3986376058 -7.68E-05
    99 OT DIIS     0.15E+00   12.5     0.00000101    -19808.3987933273 -1.56E-04
   100 OT DIIS     0.15E+00   10.7     0.00000100    -19808.3988812721 -8.79E-05
   101 OT DIIS     0.15E+00   10.7     0.00000099    -19808.3989546544 -7.34E-05

  *** SCF run converged in   101 steps ***


  Electronic density on regular grids:     -10279.0023255763       -0.0023255763
  Core density on regular grids:            10278.9999869132       -0.0000130868
  Total charge density on r-space grids:       -0.0023386631
  Total charge density g-space grids:          -0.0023386631

  Overlap energy of the core charge distribution:               0.00026489908117
  Self energy of the core charge distribution:             -49683.62952043277619
  Core Hamiltonian energy:                                  14411.09813905732699
  Hartree energy:                                           20449.37385250844818
  Exchange-correlation energy:                              -4979.42211909300204
  Dispersion energy:                                           -5.81957159349566

  Total energy:                                            -19808.39895465442169

  Integrated absolute spin density  :                              20.3335683628
  Ideal and single determinant S**2 :                    0.750000      11.507373

 ENERGY| Total FORCE_EVAL ( QS ) energy [a.u.]:           -19808.399014703722059

 --------  Informations at step =     2 ------------
  Optimization Method        =                LBFGS
  Total Energy               =    -19808.3990147037
  Real energy change         =        -4.4713201458
  Decrease in energy         =                  YES
  Used time                  =             1004.728

  Convergence check :
  Max. step size             =         0.5630495137
  Conv. limit for step size  =         0.0030000000
  Convergence in step size   =                   NO
  RMS step size              =         0.0487397367
  Conv. limit for RMS step   =         0.0015000000
  Convergence in RMS step    =                   NO
  Max. gradient              =         0.0779262758
  Conv. limit for gradients  =         0.0004500000
  Conv. for gradients        =                   NO
  RMS gradient               =         0.0071707529
  Conv. limit for RMS grad.  =         0.0003000000
  Conv. for gradients        =                   NO
 ---------------------------------------------------

 --------------------------
 OPTIMIZATION STEP:      3
 --------------------------

 Spin 1

 Number of electrons:                                                       5140
 Number of occupied orbitals:                                               5140
 Number of molecular orbitals:                                              5140

 Spin 2

 Number of electrons:                                                       5139
 Number of occupied orbitals:                                               5139
 Number of molecular orbitals:                                              5139

 Number of orbital functions:                                               7696
 Number of independent orbital functions:                                   7696

 Extrapolation method: ASPC


 SCF WAVEFUNCTION OPTIMIZATION

  ----------------------------------- OT ---------------------------------------
  Minimizer      : DIIS                : direct inversion
                                         in the iterative subspace
                                         using   7 DIIS vectors
                                         safer DIIS on
  Preconditioner : FULL_KINETIC        : inversion of T + eS
  Precond_solver : DEFAULT
  stepsize       :    0.15000000                  energy_gap     :    0.20000000
  eps_taylor     :   0.10000E-15                  max_taylor     :             4
  ----------------------------------- OT ---------------------------------------

  Step     Update method      Time    Convergence         Total energy    Change
  ------------------------------------------------------------------------------
     1 OT DIIS     0.15E+00    6.5     0.00009232    -19808.9930335050 -1.98E+04
     2 OT DIIS     0.15E+00    7.2     0.00008366    -19809.0893763302 -9.63E-02
     3 OT DIIS     0.15E+00    7.8     0.00003037    -19809.5303452249 -4.41E-01
     4 OT DIIS     0.15E+00    7.9     0.00001351    -19809.5830236727 -5.27E-02
     5 OT DIIS     0.15E+00    7.8     0.00001111    -19809.5885799663 -5.56E-03
     6 OT DIIS     0.15E+00    8.0     0.00000705    -19809.5963260422 -7.75E-03
     7 OT DIIS     0.15E+00    7.9     0.00000529    -19809.6001200156 -3.79E-03
     8 OT DIIS     0.15E+00    8.0     0.00000424    -19809.6029296604 -2.81E-03
     9 OT DIIS     0.15E+00    7.9     0.00000391    -19809.6041816153 -1.25E-03
    10 OT DIIS     0.15E+00    7.8     0.00000331    -19809.6063061495 -2.12E-03
    11 OT DIIS     0.15E+00    7.9     0.00000318    -19809.6068928214 -5.87E-04
    12 OT DIIS     0.15E+00    7.9     0.00000307    -19809.6074935472 -6.01E-04
    13 OT DIIS     0.15E+00    8.0     0.00000254    -19809.6100086233 -2.52E-03
    14 OT DIIS     0.15E+00    7.9     0.00000247    -19809.6103960721 -3.87E-04
    15 OT DIIS     0.15E+00    7.9     0.00000238    -19809.6109532269 -5.57E-04
    16 OT DIIS     0.15E+00    7.8     0.00000224    -19809.6118285675 -8.75E-04
    17 OT DIIS     0.15E+00    9.6     0.00000218    -19809.6121527667 -3.24E-04
    18 OT DIIS     0.15E+00    9.2     0.00000198    -19809.6134053374 -1.25E-03
    19 OT DIIS     0.15E+00    9.4     0.00000185    -19809.6141762317 -7.71E-04
    20 OT DIIS     0.15E+00   11.5     0.00000181    -19809.6145251330 -3.49E-04
    21 OT DIIS     0.15E+00   10.9     0.00000162    -19809.6158333285 -1.31E-03
    22 OT DIIS     0.15E+00   11.6     0.00000149    -19809.6169363943 -1.10E-03
    23 OT DIIS     0.15E+00   11.2     0.00000145    -19809.6172358782 -2.99E-04
    24 OT DIIS     0.15E+00   10.7     0.00000134    -19809.6178560851 -6.20E-04
    25 OT DIIS     0.15E+00   11.5     0.00000131    -19809.6180623412 -2.06E-04
    26 OT DIIS     0.15E+00   10.9     0.00000124    -19809.6185660553 -5.04E-04
    27 OT DIIS     0.15E+00   11.0     0.00000121    -19809.6187921862 -2.26E-04
    28 OT DIIS     0.15E+00   11.0     0.00000118    -19809.6189000657 -1.08E-04
    29 OT DIIS     0.15E+00   12.7     0.00000117    -19809.6189550409 -5.50E-05
    30 OT DIIS     0.15E+00   10.9     0.00000114    -19809.6190913862 -1.36E-04
    31 OT DIIS     0.15E+00   11.2     0.00000112    -19809.6191574881 -6.61E-05
    32 OT DIIS     0.15E+00   10.6     0.00000107    -19809.6195899991 -4.33E-04
    33 OT DIIS     0.15E+00   11.5     0.00000104    -19809.6197390902 -1.49E-04
    34 OT DIIS     0.15E+00   10.9     0.00000103    -19809.6198237901 -8.47E-05
    35 OT DIIS     0.15E+00   11.0     0.00000097    -19809.6204661837 -6.42E-04

  *** SCF run converged in    35 steps ***


  Electronic density on regular grids:     -10279.0011654378       -0.0011654378
  Core density on regular grids:            10278.9999839788       -0.0000160212
  Total charge density on r-space grids:       -0.0011814590
  Total charge density g-space grids:          -0.0011814590

  Overlap energy of the core charge distribution:               0.00014258336368
  Self energy of the core charge distribution:             -49683.62952043277619
  Core Hamiltonian energy:                                  14408.22092141021858
  Hartree energy:                                           20449.17464564336842
  Exchange-correlation energy:                              -4977.56177052773091
  Dispersion energy:                                           -5.82488486018713

  Total energy:                                            -19809.62046618374734

  Integrated absolute spin density  :                              20.9100417424
  Ideal and single determinant S**2 :                    0.750000      11.904221

 ENERGY| Total FORCE_EVAL ( QS ) energy [a.u.]:           -19809.620797074145230

 --------  Informations at step =     3 ------------
  Optimization Method        =                LBFGS
  Total Energy               =    -19809.6207970741
  Real energy change         =        -1.2217823704
  Decrease in energy         =                  YES
  Used time                  =              344.349

  Convergence check :
  Max. step size             =         0.4197389327
  Conv. limit for step size  =         0.0030000000
  Convergence in step size   =                   NO
  RMS step size              =         0.0320571846
  Conv. limit for RMS step   =         0.0015000000
  Convergence in RMS step    =                   NO
  Max. gradient              =         0.0567513146
  Conv. limit for gradients  =         0.0004500000
  Conv. for gradients        =                   NO
  RMS gradient               =         0.0069891808
  Conv. limit for RMS grad.  =         0.0003000000
  Conv. for gradients        =                   NO
 ---------------------------------------------------

 --------------------------
 OPTIMIZATION STEP:      4
 --------------------------

 Spin 1

 Number of electrons:                                                       5140
 Number of occupied orbitals:                                               5140
 Number of molecular orbitals:                                              5140

 Spin 2

 Number of electrons:                                                       5139
 Number of occupied orbitals:                                               5139
 Number of molecular orbitals:                                              5139

 Number of orbital functions:                                               7696
 Number of independent orbital functions:                                   7696

 Extrapolation method: ASPC


 SCF WAVEFUNCTION OPTIMIZATION

  ----------------------------------- OT ---------------------------------------
  Minimizer      : DIIS                : direct inversion
                                         in the iterative subspace
                                         using   7 DIIS vectors
                                         safer DIIS on
  Preconditioner : FULL_KINETIC        : inversion of T + eS
  Precond_solver : DEFAULT
  stepsize       :    0.15000000                  energy_gap     :    0.20000000
  eps_taylor     :   0.10000E-15                  max_taylor     :             4
  ----------------------------------- OT ---------------------------------------

  Step     Update method      Time    Convergence         Total energy    Change
  ------------------------------------------------------------------------------
     1 OT DIIS     0.15E+00    6.5     0.00008335    -19810.0418156684 -1.98E+04
     2 OT DIIS     0.15E+00    7.1     0.00007492    -19810.1200399038 -7.82E-02
     3 OT DIIS     0.15E+00    7.4     0.00002834    -19810.4478459271 -3.28E-01
     4 OT DIIS     0.15E+00    7.9     0.00001326    -19810.4957721209 -4.79E-02
     5 OT DIIS     0.15E+00    7.9     0.00001065    -19810.5018611240 -6.09E-03
     6 OT DIIS     0.15E+00    8.0     0.00000667    -19810.5098128751 -7.95E-03
     7 OT DIIS     0.15E+00    7.9     0.00000495    -19810.5131551261 -3.34E-03
     8 OT DIIS     0.15E+00    8.0     0.00000386    -19810.5157114794 -2.56E-03
     9 OT DIIS     0.15E+00    7.8     0.00000362    -19810.5165609745 -8.49E-04
    10 OT DIIS     0.15E+00    7.9     0.00000310    -19810.5182338276 -1.67E-03
    11 OT DIIS     0.15E+00    7.9     0.00000297    -19810.5187010845 -4.67E-04
    12 OT DIIS     0.15E+00    7.9     0.00000264    -19810.5200911880 -1.39E-03
    13 OT DIIS     0.15E+00    7.9     0.00000250    -19810.5206949824 -6.04E-04
    14 OT DIIS     0.15E+00    7.8     0.00000235    -19810.5213873186 -6.92E-04
    15 OT DIIS     0.15E+00    7.9     0.00000219    -19810.5221315769 -7.44E-04
    16 OT DIIS     0.15E+00    7.9     0.00000198    -19810.5230634321 -9.32E-04
    17 OT DIIS     0.15E+00    8.0     0.00000194    -19810.5232510471 -1.88E-04
    18 OT DIIS     0.15E+00    7.9     0.00000186    -19810.5235985980 -3.48E-04
    19 OT DIIS     0.15E+00    7.9     0.00000180    -19810.5238827931 -2.84E-04
    20 OT DIIS     0.15E+00    7.9     0.00000176    -19810.5241149869 -2.32E-04
    21 OT DIIS     0.15E+00    8.0     0.00000165    -19810.5247369881 -6.22E-04
    22 OT DIIS     0.15E+00    8.0     0.00000161    -19810.5249519821 -2.15E-04
    23 OT DIIS     0.15E+00    7.9     0.00000155    -19810.5253251197 -3.73E-04
    24 OT DIIS     0.15E+00    8.0     0.00000151    -19810.5255494580 -2.24E-04
    25 OT DIIS     0.15E+00    7.9     0.00000148    -19810.5257909400 -2.41E-04
    26 OT DIIS     0.15E+00    8.0     0.00000146    -19810.5259281613 -1.37E-04
    27 OT DIIS     0.15E+00   10.0     0.00000142    -19810.5262693685 -3.41E-04
    28 OT DIIS     0.15E+00    9.5     0.00000139    -19810.5264988073 -2.29E-04
    29 OT DIIS     0.15E+00    9.5     0.00000131    -19810.5271461342 -6.47E-04
    30 OT DIIS     0.15E+00    9.3     0.00000129    -19810.5273186622 -1.73E-04
    31 OT DIIS     0.15E+00    9.6     0.00000126    -19810.5275853814 -2.67E-04
    32 OT DIIS     0.15E+00    9.4     0.00000123    -19810.5278513900 -2.66E-04
    33 OT DIIS     0.15E+00    9.6     0.00000121    -19810.5280287605 -1.77E-04
    34 OT DIIS     0.15E+00    9.4     0.00000119    -19810.5281517623 -1.23E-04
    35 OT DIIS     0.15E+00    9.4     0.00000117    -19810.5283237855 -1.72E-04
    36 OT DIIS     0.15E+00    9.3     0.00000115    -19810.5284316292 -1.08E-04
    37 OT DIIS     0.15E+00    9.6     0.00000113    -19810.5286212874 -1.90E-04
    38 OT DIIS     0.15E+00    9.3     0.00000111    -19810.5287047998 -8.35E-05
    39 OT DIIS     0.15E+00    9.5     0.00000110    -19810.5287967423 -9.19E-05
    40 OT DIIS     0.15E+00    9.3     0.00000108    -19810.5289999578 -2.03E-04
    41 OT DIIS     0.15E+00    9.7     0.00000107    -19810.5290864457 -8.65E-05
    42 OT DIIS     0.15E+00    9.4     0.00000106    -19810.5291570738 -7.06E-05
    43 OT DIIS     0.15E+00    9.4     0.00000106    -19810.5292188258 -6.18E-05
    44 OT DIIS     0.15E+00    9.4     0.00000105    -19810.5292829417 -6.41E-05
    45 OT DIIS     0.15E+00    9.8     0.00000104    -19810.5293833862 -1.00E-04
    46 OT DIIS     0.15E+00   11.0     0.00000103    -19810.5294985637 -1.15E-04
    47 OT DIIS     0.15E+00   11.2     0.00000102    -19810.5296154027 -1.17E-04
    48 OT DIIS     0.15E+00   10.9     0.00000098    -19810.5299864018 -3.71E-04

  *** SCF run converged in    48 steps ***


  Electronic density on regular grids:     -10279.0000378203       -0.0000378203
  Core density on regular grids:            10278.9999824031       -0.0000175969
  Total charge density on r-space grids:       -0.0000554172
  Total charge density g-space grids:          -0.0000554172

  Overlap energy of the core charge distribution:               0.00013886363145
  Self energy of the core charge distribution:             -49683.62952043277619
  Core Hamiltonian energy:                                  14411.18315023399555
  Hartree energy:                                           20445.93903206883988
  Exchange-correlation energy:                              -4978.19189496331819
  Dispersion energy:                                           -5.83089217219381

  Total energy:                                            -19810.52998640182705

  Integrated absolute spin density  :                              20.4631845709
  Ideal and single determinant S**2 :                    0.750000      11.494530

 ENERGY| Total FORCE_EVAL ( QS ) energy [a.u.]:           -19810.530119568014925

 --------  Informations at step =     4 ------------
  Optimization Method        =                LBFGS
  Total Energy               =    -19810.5301195680
  Real energy change         =        -0.9093224939
  Decrease in energy         =                  YES
  Used time                  =              431.031

  Convergence check :
  Max. step size             =         0.4494034127
  Conv. limit for step size  =         0.0030000000
  Convergence in step size   =                   NO
  RMS step size              =         0.0331503965
  Conv. limit for RMS step   =         0.0015000000
  Convergence in RMS step    =                   NO
  Max. gradient              =         0.0737796810
  Conv. limit for gradients  =         0.0004500000
  Conv. for gradients        =                   NO
  RMS gradient               =         0.0071425967
  Conv. limit for RMS grad.  =         0.0003000000
  Conv. for gradients        =                   NO
 ---------------------------------------------------

 --------------------------
 OPTIMIZATION STEP:      5
 --------------------------

 Spin 1

 Number of electrons:                                                       5140
 Number of occupied orbitals:                                               5140
 Number of molecular orbitals:                                              5140

 Spin 2

 Number of electrons:                                                       5139
 Number of occupied orbitals:                                               5139
 Number of molecular orbitals:                                              5139

 Number of orbital functions:                                               7696
 Number of independent orbital functions:                                   7696

 Extrapolation method: ASPC


 SCF WAVEFUNCTION OPTIMIZATION

  ----------------------------------- OT ---------------------------------------
  Minimizer      : DIIS                : direct inversion
                                         in the iterative subspace
                                         using   7 DIIS vectors
                                         safer DIIS on
  Preconditioner : FULL_KINETIC        : inversion of T + eS
  Precond_solver : DEFAULT
  stepsize       :    0.15000000                  energy_gap     :    0.20000000
  eps_taylor     :   0.10000E-15                  max_taylor     :             4
  ----------------------------------- OT ---------------------------------------

  Step     Update method      Time    Convergence         Total energy    Change
  ------------------------------------------------------------------------------
     1 OT DIIS     0.15E+00    6.5     0.00008197    -19811.0012463319 -1.98E+04
     2 OT DIIS     0.15E+00    7.3     0.00007377    -19811.0769521147 -7.57E-02
     3 OT DIIS     0.15E+00    7.3     0.00002567    -19811.4001041506 -3.23E-01
     4 OT DIIS     0.15E+00    8.0     0.00001269    -19811.4391161778 -3.90E-02
     5 OT DIIS     0.15E+00    8.0     0.00000992    -19811.4447270772 -5.61E-03
     6 OT DIIS     0.15E+00    7.8     0.00000578    -19811.4514617097 -6.73E-03
     7 OT DIIS     0.15E+00    8.0     0.00000400    -19811.4537545274 -2.29E-03
     8 OT DIIS     0.15E+00    7.9     0.00000312    -19811.4550776968 -1.32E-03
     9 OT DIIS     0.15E+00    8.0     0.00000285    -19811.4556558628 -5.78E-04
    10 OT DIIS     0.15E+00    7.9     0.00000243    -19811.4565738197 -9.18E-04
    11 OT DIIS     0.15E+00   10.0     0.00000235    -19811.4567994088 -2.26E-04
    12 OT DIIS     0.15E+00    7.9     0.00000217    -19811.4574054077 -6.06E-04
    13 OT DIIS     0.15E+00    7.9     0.00000207    -19811.4578594492 -4.54E-04
    14 OT DIIS     0.15E+00    7.8     0.00000193    -19811.4584932147 -6.34E-04
    15 OT DIIS     0.15E+00    8.0     0.00000188    -19811.4587091373 -2.16E-04
    16 OT DIIS     0.15E+00    7.8     0.00000163    -19811.4597777026 -1.07E-03
    17 OT DIIS     0.15E+00    8.0     0.00000161    -19811.4599296234 -1.52E-04
    18 OT DIIS     0.15E+00    7.8     0.00000154    -19811.4602810885 -3.51E-04
    19 OT DIIS     0.15E+00    8.1     0.00000150    -19811.4605178835 -2.37E-04
    20 OT DIIS     0.15E+00    8.0     0.00000146    -19811.4607832360 -2.65E-04
    21 OT DIIS     0.15E+00    7.9     0.00000138    -19811.4613256117 -5.42E-04
    22 OT DIIS     0.15E+00    8.0     0.00000132    -19811.4617554144 -4.30E-04
    23 OT DIIS     0.15E+00    7.9     0.00000130    -19811.4618637508 -1.08E-04
    24 OT DIIS     0.15E+00    8.0     0.00000125    -19811.4622239439 -3.60E-04
    25 OT DIIS     0.15E+00    7.9     0.00000123    -19811.4624217587 -1.98E-04
    26 OT DIIS     0.15E+00    7.9     0.00000121    -19811.4625693785 -1.48E-04
    27 OT DIIS     0.15E+00    8.0     0.00000118    -19811.4627804849 -2.11E-04
    28 OT DIIS     0.15E+00    7.9     0.00000115    -19811.4629550209 -1.75E-04
    29 OT DIIS     0.15E+00    8.0     0.00000111    -19811.4633469409 -3.92E-04
    30 OT DIIS     0.15E+00    7.9     0.00000107    -19811.4636386618 -2.92E-04
    31 OT DIIS     0.15E+00    7.9     0.00000106    -19811.4637353649 -9.67E-05
    32 OT DIIS     0.15E+00    7.9     0.00000104    -19811.4638910158 -1.56E-04
    33 OT DIIS     0.15E+00    7.9     0.00000102    -19811.4640614347 -1.70E-04
    34 OT DIIS     0.15E+00    8.0     0.00000101    -19811.4641601209 -9.87E-05
    35 OT DIIS     0.15E+00    8.0     0.00000099    -19811.4643277271 -1.68E-04

  *** SCF run converged in    35 steps ***


  Electronic density on regular grids:     -10279.0005231741       -0.0005231741
  Core density on regular grids:            10278.9999867213       -0.0000132787
  Total charge density on r-space grids:       -0.0005364527
  Total charge density g-space grids:          -0.0005364527

  Overlap energy of the core charge distribution:               0.00014857228492
  Self energy of the core charge distribution:             -49683.62952043277619
  Core Hamiltonian energy:                                  14414.79926817365049
  Hartree energy:                                           20442.50058522374093
  Exchange-correlation energy:                              -4979.30126846412168
  Dispersion energy:                                           -5.83354079988697

  Total energy:                                            -19811.46432772710978

  Integrated absolute spin density  :                              19.6529929226
  Ideal and single determinant S**2 :                    0.750000      10.921763

 ENERGY| Total FORCE_EVAL ( QS ) energy [a.u.]:           -19811.464445647074172

 --------  Informations at step =     5 ------------
  Optimization Method        =                LBFGS
  Total Energy               =    -19811.4644456471
  Real energy change         =        -0.9343260791
  Decrease in energy         =                  YES
  Used time                  =              290.925

  Convergence check :
  Max. step size             =         0.4006041254
  Conv. limit for step size  =         0.0030000000
  Convergence in step size   =                   NO
  RMS step size              =         0.0313595472
  Conv. limit for RMS step   =         0.0015000000
  Convergence in RMS step    =                   NO
  Max. gradient              =         0.0449745159
  Conv. limit for gradients  =         0.0004500000
  Conv. for gradients        =                   NO
  RMS gradient               =         0.0063593573
  Conv. limit for RMS grad.  =         0.0003000000
  Conv. for gradients        =                   NO
 ---------------------------------------------------

 --------------------------
 OPTIMIZATION STEP:      6
 --------------------------

 Spin 1

 Number of electrons:                                                       5140
 Number of occupied orbitals:                                               5140
 Number of molecular orbitals:                                              5140

 Spin 2

 Number of electrons:                                                       5139
 Number of occupied orbitals:                                               5139
 Number of molecular orbitals:                                              5139

 Number of orbital functions:                                               7696
 Number of independent orbital functions:                                   7696

 Extrapolation method: ASPC


 SCF WAVEFUNCTION OPTIMIZATION

  ----------------------------------- OT ---------------------------------------
  Minimizer      : DIIS                : direct inversion
                                         in the iterative subspace
                                         using   7 DIIS vectors
                                         safer DIIS on
  Preconditioner : FULL_KINETIC        : inversion of T + eS
  Precond_solver : DEFAULT
  stepsize       :    0.15000000                  energy_gap     :    0.20000000
  eps_taylor     :   0.10000E-15                  max_taylor     :             4
  ----------------------------------- OT ---------------------------------------

  Step     Update method      Time    Convergence         Total energy    Change
  ------------------------------------------------------------------------------
     1 OT DIIS     0.15E+00    6.6     0.00012528    -19811.7689545479 -1.98E+04
     2 OT DIIS     0.15E+00    7.4     0.00011582    -19811.9481200638 -1.79E-01
     3 OT DIIS     0.15E+00    7.9     0.00004131    -19812.9904329911 -1.04E+00
     4 OT DIIS     0.15E+00    7.9     0.00002079    -19813.0844181135 -9.40E-02
     5 OT DIIS     0.15E+00    7.9     0.00001721    -19813.1024821061 -1.81E-02
     6 OT DIIS     0.15E+00    7.9     0.00001096    -19813.1233254868 -2.08E-02
     7 OT DIIS     0.15E+00    9.4     0.00000766    -19813.1333254105 -1.00E-02
     8 OT DIIS     0.15E+00   11.1     0.00000671    -19813.1366085607 -3.28E-03
     9 OT DIIS     0.15E+00   10.9     0.00000551    -19813.1411559072 -4.55E-03
    10 OT DIIS     0.15E+00   10.8     0.00000488    -19813.1444163161 -3.26E-03
    11 OT DIIS     0.15E+00   13.5     0.00000474    -19813.1454441565 -1.03E-03
    12 OT DIIS     0.15E+00   11.0     0.00000452    -19813.1473171436 -1.87E-03
    13 OT DIIS     0.15E+00   10.6     0.00000385    -19813.1527789159 -5.46E-03
    14 OT DIIS     0.15E+00   11.4     0.00000370    -19813.1539432220 -1.16E-03
    15 OT DIIS     0.15E+00   10.8     0.00000335    -19813.1567436236 -2.80E-03
    16 OT DIIS     0.15E+00   11.0     0.00000324    -19813.1576169675 -8.73E-04
    17 OT DIIS     0.15E+00   10.9     0.00000316    -19813.1582487082 -6.32E-04
    18 OT DIIS     0.15E+00   10.6     0.00000267    -19813.1620155638 -3.77E-03
    19 OT DIIS     0.15E+00   10.9     0.00000256    -19813.1627635474 -7.48E-04
    20 OT DIIS     0.15E+00   10.8     0.00000249    -19813.1633533737 -5.90E-04
    21 OT DIIS     0.15E+00   10.8     0.00000218    -19813.1660788112 -2.73E-03
    22 OT DIIS     0.15E+00   10.9     0.00000214    -19813.1664678003 -3.89E-04
    23 OT DIIS     0.15E+00   10.5     0.00000203    -19813.1675181608 -1.05E-03
    24 OT DIIS     0.15E+00   11.1     0.00000185    -19813.1691364417 -1.62E-03
    25 OT DIIS     0.15E+00   10.7     0.00000180    -19813.1697300327 -5.94E-04
    26 OT DIIS     0.15E+00   10.9     0.00000164    -19813.1710965271 -1.37E-03
    27 OT DIIS     0.15E+00   11.0     0.00000160    -19813.1713603520 -2.64E-04
    28 OT DIIS     0.15E+00   10.8     0.00000154    -19813.1718694734 -5.09E-04
    29 OT DIIS     0.15E+00   10.8     0.00000149    -19813.1724592175 -5.90E-04
    30 OT DIIS     0.15E+00   10.6     0.00000142    -19813.1729666505 -5.07E-04
    31 OT DIIS     0.15E+00   10.8     0.00000140    -19813.1731898851 -2.23E-04
    32 OT DIIS     0.15E+00   11.3     0.00000130    -19813.1740890932 -8.99E-04
    33 OT DIIS     0.15E+00   10.6     0.00000127    -19813.1743700900 -2.81E-04
    34 OT DIIS     0.15E+00   11.5     0.00000121    -19813.1751715900 -8.02E-04
    35 OT DIIS     0.15E+00   10.9     0.00000118    -19813.1753319119 -1.60E-04
    36 OT DIIS     0.15E+00   10.6     0.00000113    -19813.1758444178 -5.13E-04
    37 OT DIIS     0.15E+00   11.2     0.00000112    -19813.1759391763 -9.48E-05
    38 OT DIIS     0.15E+00   13.0     0.00000107    -19813.1765671978 -6.28E-04
    39 OT DIIS     0.15E+00   10.8     0.00000104    -19813.1767635637 -1.96E-04
    40 OT DIIS     0.15E+00   10.9     0.00000099    -19813.1773869417 -6.23E-04

  *** SCF run converged in    40 steps ***


  Electronic density on regular grids:     -10279.0006244005       -0.0006244005
  Core density on regular grids:            10278.9999968026       -0.0000031974
  Total charge density on r-space grids:       -0.0006275979
  Total charge density g-space grids:          -0.0006275979

  Overlap energy of the core charge distribution:               0.00017320995942
  Self energy of the core charge distribution:             -49683.62952043277619
  Core Hamiltonian energy:                                  14408.17529468072462
  Hartree energy:                                           20444.43299232818390
  Exchange-correlation energy:                              -4976.33091137031261
  Dispersion energy:                                           -5.82541535749617

  Total energy:                                            -19813.17738694171567

  Integrated absolute spin density  :                              18.2487976869
  Ideal and single determinant S**2 :                    0.750000      10.261754

 ENERGY| Total FORCE_EVAL ( QS ) energy [a.u.]:           -19813.177615984077420

 --------  Informations at step =     6 ------------
  Optimization Method        =                LBFGS
  Total Energy               =    -19813.1776159841
  Real energy change         =        -1.7131703370
  Decrease in energy         =                  YES
  Used time                  =              432.985

  Convergence check :
  Max. step size             =         1.1739651393
  Conv. limit for step size  =         0.0030000000
  Convergence in step size   =                   NO
  RMS step size              =         0.1007334581
[...]
  Decrease in energy         =                  YES
  Used time                  =            10767.048

  Convergence check :
  Max. step size             =         0.0103358119
  Conv. limit for step size  =         0.0030000000
  Convergence in step size   =                   NO
  RMS step size              =         0.0003805608
  Conv. limit for RMS step   =         0.0015000000
  Convergence in RMS step    =                  YES
  Max. gradient              =         0.0124643201
  Conv. limit for gradients  =         0.0004500000
  Conv. for gradients        =                   NO
  RMS gradient               =         0.0004252675
  Conv. limit for RMS grad.  =         0.0003000000
  Conv. for gradients        =                   NO
 ---------------------------------------------------

 --------------------------
 OPTIMIZATION STEP:     96
 --------------------------

 Spin 1

 Number of electrons:                                                       5140
 Number of occupied orbitals:                                               5140
 Number of molecular orbitals:                                              5140

 Spin 2

 Number of electrons:                                                       5139
 Number of occupied orbitals:                                               5139
 Number of molecular orbitals:                                              5139

 Number of orbital functions:                                               7696
 Number of independent orbital functions:                                   7696

 Extrapolation method: ASPC


 SCF WAVEFUNCTION OPTIMIZATION

  ----------------------------------- OT ---------------------------------------
  Minimizer      : DIIS                : direct inversion
                                         in the iterative subspace
                                         using   7 DIIS vectors
                                         safer DIIS on
  Preconditioner : FULL_KINETIC        : inversion of T + eS
  Precond_solver : DEFAULT
  stepsize       :    0.15000000                  energy_gap     :    0.20000000
  eps_taylor     :   0.10000E-15                  max_taylor     :             4
  ----------------------------------- OT ---------------------------------------

  Step     Update method      Time    Convergence         Total energy    Change
  ------------------------------------------------------------------------------
     1 OT DIIS     0.15E+00   51.4     0.00001960    -19845.5928953104 -1.98E+04
     2 OT DIIS     0.15E+00   34.8     0.00001704    -19845.5971502444 -4.25E-03
     3 OT DIIS     0.15E+00   34.4     0.00000811    -19845.6102213316 -1.31E-02
     4 OT DIIS     0.15E+00   38.3     0.00000437    -19845.6153502143 -5.13E-03
     5 OT DIIS     0.15E+00   38.6     0.00000402    -19845.6158325569 -4.82E-04
     6 OT DIIS     0.15E+00   41.3     0.00000309    -19845.6173931422 -1.56E-03
     7 OT DIIS     0.15E+00   43.1     0.00000263    -19845.6186948890 -1.30E-03
     8 OT DIIS     0.15E+00   32.9     0.00000236    -19845.6195992030 -9.04E-04
     9 OT DIIS     0.15E+00   31.5     0.00000221    -19845.6201616292 -5.62E-04
    10 OT DIIS     0.15E+00   30.0     0.00000189    -19845.6214082055 -1.25E-03
    11 OT DIIS     0.15E+00   39.2     0.00000184    -19845.6216808383 -2.73E-04
    12 OT DIIS     0.15E+00   41.1     0.00000180    -19845.6218553495 -1.75E-04
    13 OT DIIS     0.15E+00   32.4     0.00000164    -19845.6227131990 -8.58E-04
    14 OT DIIS     0.15E+00   43.2     0.00000162    -19845.6228342580 -1.21E-04
    15 OT DIIS     0.15E+00   34.7     0.00000159    -19845.6230057584 -1.72E-04
    16 OT DIIS     0.15E+00   37.1     0.00000147    -19845.6240534397 -1.05E-03
    17 OT DIIS     0.15E+00   36.9     0.00000144    -19845.6243688461 -3.15E-04
    18 OT DIIS     0.15E+00   32.9     0.00000136    -19845.6251364224 -7.68E-04
    19 OT DIIS     0.15E+00   29.1     0.00000134    -19845.6253558916 -2.19E-04
    20 OT DIIS     0.15E+00   50.3     0.00000129    -19845.6257619419 -4.06E-04
    21 OT DIIS     0.15E+00   44.8     0.00000127    -19845.6259233080 -1.61E-04
    22 OT DIIS     0.15E+00   34.8     0.00000122    -19845.6264123988 -4.89E-04
    23 OT DIIS     0.15E+00   48.5     0.00000121    -19845.6265397173 -1.27E-04
    24 OT DIIS     0.15E+00   32.4     0.00000113    -19845.6274322186 -8.93E-04
    25 OT DIIS     0.15E+00   30.6     0.00000112    -19845.6275687414 -1.37E-04
    26 OT DIIS     0.15E+00   44.5     0.00000107    -19845.6280097569 -4.41E-04
    27 OT DIIS     0.15E+00   25.9     0.00000105    -19845.6281944099 -1.85E-04
    28 OT DIIS     0.15E+00   19.4     0.00000104    -19845.6283242289 -1.30E-04
    29 OT DIIS     0.15E+00   32.2     0.00000100    -19845.6287180989 -3.94E-04
    30 OT DIIS     0.15E+00   33.1     0.00000099    -19845.6288129547 -9.49E-05

  *** SCF run converged in    30 steps ***


  Electronic density on regular grids:     -10278.9909096254        0.0090903746
  Core density on regular grids:            10278.9999410839       -0.0000589161
  Total charge density on r-space grids:        0.0090314586
  Total charge density g-space grids:           0.0090314586

  Overlap energy of the core charge distribution:               0.00017067011265
  Self energy of the core charge distribution:             -49683.62952043277619
  Core Hamiltonian energy:                                  14545.11489723837440
  Hartree energy:                                           20290.03184610953758
  Exchange-correlation energy:                              -4991.58359426056450
  Dispersion energy:                                           -5.56261227941554

  Total energy:                                            -19845.62881295472835

  Integrated absolute spin density  :                              14.7304510667
  Ideal and single determinant S**2 :                    0.750000       8.838181

 ENERGY| Total FORCE_EVAL ( QS ) energy [a.u.]:           -19845.629754135457915

 Spin 1

 Number of electrons:                                                       5140
 Number of occupied orbitals:                                               5140
 Number of molecular orbitals:                                              5140

 Spin 2

 Number of electrons:                                                       5139
 Number of occupied orbitals:                                               5139
 Number of molecular orbitals:                                              5139

 Number of orbital functions:                                               7696
 Number of independent orbital functions:                                   7696

 Extrapolation method: ASPC


 SCF WAVEFUNCTION OPTIMIZATION

  ----------------------------------- OT ---------------------------------------
  Minimizer      : DIIS                : direct inversion
                                         in the iterative subspace
                                         using   7 DIIS vectors
                                         safer DIIS on
  Preconditioner : FULL_KINETIC        : inversion of T + eS
  Precond_solver : DEFAULT
  stepsize       :    0.15000000                  energy_gap     :    0.20000000
  eps_taylor     :   0.10000E-15                  max_taylor     :             4
  ----------------------------------- OT ---------------------------------------

  Step     Update method      Time    Convergence         Total energy    Change
  ------------------------------------------------------------------------------
     1 OT DIIS     0.15E+00   35.5     0.00003816    -19845.5111646626 -1.98E+04
     2 OT DIIS     0.15E+00   36.9     0.00003397    -19845.5274763656 -1.63E-02
     3 OT DIIS     0.15E+00   40.2     0.00001639    -19845.5879891531 -6.05E-02
     4 OT DIIS     0.15E+00   41.4     0.00000822    -19845.6061707282 -1.82E-02
     5 OT DIIS     0.15E+00   32.5     0.00000702    -19845.6092440019 -3.07E-03
     6 OT DIIS     0.15E+00   35.6     0.00000486    -19845.6135460661 -4.30E-03
     7 OT DIIS     0.15E+00   30.3     0.00000422    -19845.6151966187 -1.65E-03
     8 OT DIIS     0.15E+00   38.6     0.00000369    -19845.6170352383 -1.84E-03
     9 OT DIIS     0.15E+00   45.1     0.00000302    -19845.6191808227 -2.15E-03
    10 OT DIIS     0.15E+00   44.5     0.00000240    -19845.6210887515 -1.91E-03
    11 OT DIIS     0.15E+00   47.5     0.00000230    -19845.6213481082 -2.59E-04
    12 OT DIIS     0.15E+00   36.3     0.00000204    -19845.6222566625 -9.09E-04
    13 OT DIIS     0.15E+00   34.0     0.00000198    -19845.6224284845 -1.72E-04
    14 OT DIIS     0.15E+00   42.6     0.00000182    -19845.6231035825 -6.75E-04
    15 OT DIIS     0.15E+00   39.7     0.00000176    -19845.6234614730 -3.58E-04
    16 OT DIIS     0.15E+00   48.6     0.00000171    -19845.6237609126 -2.99E-04
    17 OT DIIS     0.15E+00   50.0     0.00000159    -19845.6244806056 -7.20E-04
    18 OT DIIS     0.15E+00   36.7     0.00000156    -19845.6246772862 -1.97E-04
    19 OT DIIS     0.15E+00   30.2     0.00000147    -19845.6252771113 -6.00E-04
    20 OT DIIS     0.15E+00   36.8     0.00000144    -19845.6254742865 -1.97E-04
    21 OT DIIS     0.15E+00   41.5     0.00000141    -19845.6256715806 -1.97E-04
    22 OT DIIS     0.15E+00   44.2     0.00000139    -19845.6258570145 -1.85E-04
    23 OT DIIS     0.15E+00   41.0     0.00000134    -19845.6262141284 -3.57E-04
    24 OT DIIS     0.15E+00   27.1     0.00000132    -19845.6263662405 -1.52E-04
    25 OT DIIS     0.15E+00   31.3     0.00000127    -19845.6269188459 -5.53E-04
    26 OT DIIS     0.15E+00   52.3     0.00000125    -19845.6270797693 -1.61E-04
    27 OT DIIS     0.15E+00   49.0     0.00000123    -19845.6272633641 -1.84E-04
    28 OT DIIS     0.15E+00   48.3     0.00000120    -19845.6276278571 -3.64E-04
    29 OT DIIS     0.15E+00   47.8     0.00000118    -19845.6278287663 -2.01E-04
    30 OT DIIS     0.15E+00   40.6     0.00000115    -19845.6282149115 -3.86E-04
    31 OT DIIS     0.15E+00   44.1     0.00000113    -19845.6284916732 -2.77E-04
    32 OT DIIS     0.15E+00   44.1     0.00000112    -19845.6286004380 -1.09E-04
    33 OT DIIS     0.15E+00   53.0     0.00000110    -19845.6287790226 -1.79E-04
    34 OT DIIS     0.15E+00   44.6     0.00000109    -19845.6289469693 -1.68E-04
    35 OT DIIS     0.15E+00   45.3     0.00000108    -19845.6290658637 -1.19E-04
    36 OT DIIS     0.15E+00   42.0     0.00000104    -19845.6295667424 -5.01E-04
    37 OT DIIS     0.15E+00   41.6     0.00000103    -19845.6297282473 -1.62E-04
    38 OT DIIS     0.15E+00   46.8     0.00000101    -19845.6298998720 -1.72E-04
    39 OT DIIS     0.15E+00   39.8     0.00000100    -19845.6300691628 -1.69E-04
    40 OT DIIS     0.15E+00   37.4     0.00000099    -19845.6301613797 -9.22E-05

  *** SCF run converged in    40 steps ***


  Electronic density on regular grids:     -10278.9908577896        0.0091422104
  Core density on regular grids:            10278.9999405879       -0.0000594121
  Total charge density on r-space grids:        0.0090827984
  Total charge density g-space grids:           0.0090827984

  Overlap energy of the core charge distribution:               0.00017075182162
  Self energy of the core charge distribution:             -49683.62952043277619
  Core Hamiltonian energy:                                  14545.06700048853236
  Hartree energy:                                           20290.08167117248377
  Exchange-correlation energy:                              -4991.58670408994476
  Dispersion energy:                                           -5.56277926981771

  Total energy:                                            -19845.63016137970044

  Integrated absolute spin density  :                              15.2299864921
  Ideal and single determinant S**2 :                    0.750000       9.147214

 ENERGY| Total FORCE_EVAL ( QS ) energy [a.u.]:           -19845.630290055803925

 Spin 1

 Number of electrons:                                                       5140
 Number of occupied orbitals:                                               5140
 Number of molecular orbitals:                                              5140

 Spin 2

 Number of electrons:                                                       5139
 Number of occupied orbitals:                                               5139
 Number of molecular orbitals:                                              5139

 Number of orbital functions:                                               7696
 Number of independent orbital functions:                                   7696

 Extrapolation method: ASPC


 SCF WAVEFUNCTION OPTIMIZATION

  ----------------------------------- OT ---------------------------------------
  Minimizer      : DIIS                : direct inversion
                                         in the iterative subspace
                                         using   7 DIIS vectors
                                         safer DIIS on
  Preconditioner : FULL_KINETIC        : inversion of T + eS
  Precond_solver : DEFAULT
  stepsize       :    0.15000000                  energy_gap     :    0.20000000
  eps_taylor     :   0.10000E-15                  max_taylor     :             4
  ----------------------------------- OT ---------------------------------------

  Step     Update method      Time    Convergence         Total energy    Change
  ------------------------------------------------------------------------------
     1 OT DIIS     0.15E+00   60.5     0.00002955    -19845.5530132795 -1.98E+04
     2 OT DIIS     0.15E+00   37.5     0.00002663    -19845.5628567592 -9.84E-03
     3 OT DIIS     0.15E+00   38.3     0.00001255    -19845.6043664271 -4.15E-02
     4 OT DIIS     0.15E+00   43.8     0.00000525    -19845.6158854689 -1.15E-02
     5 OT DIIS     0.15E+00   41.4     0.00000459    -19845.6166337448 -7.48E-04
     6 OT DIIS     0.15E+00   37.2     0.00000321    -19845.6182611451 -1.63E-03
     7 OT DIIS     0.15E+00   38.2     0.00000271    -19845.6192417288 -9.81E-04
     8 OT DIIS     0.15E+00   36.0     0.00000247    -19845.6198798953 -6.38E-04
     9 OT DIIS     0.15E+00   44.0     0.00000228    -19845.6205990778 -7.19E-04
    10 OT DIIS     0.15E+00   42.5     0.00000195    -19845.6218316329 -1.23E-03
    11 OT DIIS     0.15E+00   37.6     0.00000190    -19845.6220387441 -2.07E-04
    12 OT DIIS     0.15E+00   29.4     0.00000174    -19845.6227657427 -7.27E-04
    13 OT DIIS     0.15E+00   41.8     0.00000164    -19845.6233435545 -5.78E-04
    14 OT DIIS     0.15E+00   24.1     0.00000162    -19845.6234503525 -1.07E-04
    15 OT DIIS     0.15E+00   41.5     0.00000155    -19845.6240551551 -6.05E-04
    16 OT DIIS     0.15E+00   19.2     0.00000151    -19845.6244754738 -4.20E-04
    17 OT DIIS     0.15E+00   27.4     0.00000149    -19845.6246287622 -1.53E-04
    18 OT DIIS     0.15E+00   23.0     0.00000141    -19845.6256222898 -9.94E-04
    19 OT DIIS     0.15E+00   28.8     0.00000139    -19845.6258852642 -2.63E-04
    20 OT DIIS     0.15E+00   41.7     0.00000138    -19845.6261118130 -2.27E-04
    21 OT DIIS     0.15E+00   49.1     0.00000130    -19845.6271792272 -1.07E-03
    22 OT DIIS     0.15E+00   44.8     0.00000129    -19845.6274195252 -2.40E-04
    23 OT DIIS     0.15E+00   45.0     0.00000127    -19845.6276138275 -1.94E-04
    24 OT DIIS     0.15E+00   36.6     0.00000122    -19845.6284822970 -8.68E-04
    25 OT DIIS     0.15E+00   15.4     0.00000121    -19845.6286662411 -1.84E-04
    26 OT DIIS     0.15E+00   39.8     0.00000116    -19845.6293038089 -6.38E-04
    27 OT DIIS     0.15E+00   37.7     0.00000113    -19845.6298759220 -5.72E-04
    28 OT DIIS     0.15E+00   42.6     0.00000107    -19845.6307462987 -8.70E-04
    29 OT DIIS     0.15E+00   29.1     0.00000106    -19845.6309274315 -1.81E-04
    30 OT DIIS     0.15E+00   36.6     0.00000101    -19845.6316853592 -7.58E-04
    31 OT DIIS     0.15E+00   49.9     0.00000099    -19845.6318939390 -2.09E-04

  *** SCF run converged in    31 steps ***


  Electronic density on regular grids:     -10278.9908833112        0.0091166888
  Core density on regular grids:            10278.9999405068       -0.0000594932
  Total charge density on r-space grids:        0.0090571956
  Total charge density g-space grids:           0.0090571956

  Overlap energy of the core charge distribution:               0.00017078506417
  Self energy of the core charge distribution:             -49683.62952043277619
  Core Hamiltonian energy:                                  14545.02964100634563
  Hartree energy:                                           20290.11499312575324
  Exchange-correlation energy:                              -4991.58432598198124
  Dispersion energy:                                           -5.56285244140208

  Total energy:                                            -19845.63189393900029

  Integrated absolute spin density  :                              15.2568198711
  Ideal and single determinant S**2 :                    0.750000       9.025680

 ENERGY| Total FORCE_EVAL ( QS ) energy [a.u.]:           -19845.632230587161757

 --------  Informations at step =    96 ------------
  Optimization Method        =                LBFGS
  Total Energy               =    -19845.6322305872
  Real energy change         =        -0.0017425935
  Decrease in energy         =                  YES
  Used time                  =             4149.966

  Convergence check :
  Max. step size             =         0.0219660867
  Conv. limit for step size  =         0.0030000000
  Convergence in step size   =                   NO
  RMS step size              =         0.0007717519
  Conv. limit for RMS step   =         0.0015000000
  Convergence in RMS step    =                  YES
  Max. gradient              =         0.0093947283
  Conv. limit for gradients  =         0.0004500000
  Conv. for gradients        =                   NO
  RMS gradient               =         0.0003906922
  Conv. limit for RMS grad.  =         0.0003000000
  Conv. for gradients        =                   NO
 ---------------------------------------------------

 --------------------------
 OPTIMIZATION STEP:     97
 --------------------------

 Spin 1

 Number of electrons:                                                       5140
 Number of occupied orbitals:                                               5140
 Number of molecular orbitals:                                              5140

 Spin 2

 Number of electrons:                                                       5139
 Number of occupied orbitals:                                               5139
 Number of molecular orbitals:                                              5139

 Number of orbital functions:                                               7696
 Number of independent orbital functions:                                   7696

 Extrapolation method: ASPC


 SCF WAVEFUNCTION OPTIMIZATION

  ----------------------------------- OT ---------------------------------------
  Minimizer      : DIIS                : direct inversion
                                         in the iterative subspace
                                         using   7 DIIS vectors
                                         safer DIIS on
  Preconditioner : FULL_KINETIC        : inversion of T + eS
  Precond_solver : DEFAULT
  stepsize       :    0.15000000                  energy_gap     :    0.20000000
  eps_taylor     :   0.10000E-15                  max_taylor     :             4
  ----------------------------------- OT ---------------------------------------

  Step     Update method      Time    Convergence         Total energy    Change
  ------------------------------------------------------------------------------
     1 OT DIIS     0.15E+00   61.4     0.00002360    -19845.5853940209 -1.98E+04
     2 OT DIIS     0.15E+00   40.9     0.00002013    -19845.5915105628 -6.12E-03
