# Projected DOS for atomic kind H at iteration step i = 0, E(Fermi) =    -0.179239 a.u.
#     MO Eigenvalue [a.u.]      Occupation                 s
       1         -0.970724        1.000000        0.27202736
       2         -0.966869        1.000000        0.26645778
       3         -0.956546        1.000000        0.27238071
       4         -0.933962        1.000000        0.28231783
       5         -0.931311        1.000000        0.28182594
       6         -0.927841        1.000000        0.28050085
       7         -0.917296        1.000000        0.28082131
       8         -0.706184        1.000000        0.33775072
       9         -0.704722        1.000000        0.33095642
      10         -0.692533        1.000000        0.33892039
      11         -0.676647        1.000000        0.34603502
      12         -0.675489        1.000000        0.34465178
      13         -0.672480        1.000000        0.34437995
      14         -0.665403        1.000000        0.34850739
      15         -0.620433        1.000000        0.00578629
      16         -0.607707        1.000000        0.00538004
      17         -0.599314        1.000000        0.10788699
      18         -0.599119        1.000000        0.02529940
      19         -0.597713        1.000000        0.28731031
      20         -0.597339        1.000000        0.20630178
      21         -0.595089        1.000000        0.02659246
      22         -0.592512        1.000000        0.01209969
      23         -0.588537        1.000000        0.07791020
      24         -0.585986        1.000000        0.13106756
      25         -0.584591        1.000000        0.09575559
      26         -0.583834        1.000000        0.11989287
      27         -0.582519        1.000000        0.12754456
      28         -0.581830        1.000000        0.04659375
      29         -0.581307        1.000000        0.22455152
      30         -0.579355        1.000000        0.04913898
      31         -0.578959        1.000000        0.06869015
      32         -0.578442        1.000000        0.03406919
      33         -0.576895        1.000000        0.03486463
      34         -0.576237        1.000000        0.03340323
      35         -0.574381        1.000000        0.00464063
      36         -0.573250        1.000000        0.22994813
      37         -0.572810        1.000000        0.01934712
      38         -0.571274        1.000000        0.19813479
      39         -0.570386        1.000000        0.04936333
      40         -0.570255        1.000000        0.09842073
      41         -0.569886        1.000000        0.06791359
      42         -0.567319        1.000000        0.00326221
      43         -0.566962        1.000000        0.02828624
      44         -0.565151        1.000000        0.00175170
      45         -0.564656        1.000000        0.00321296
      46         -0.564308        1.000000        0.01329877
      47         -0.563862        1.000000        0.00274076
      48         -0.561692        1.000000        0.03830803
      49         -0.561418        1.000000        0.00188224
      50         -0.560542        1.000000        0.00102222
      51         -0.560243        1.000000        0.00228330
      52         -0.558313        1.000000        0.02288453
      53         -0.557842        1.000000        0.03679887
      54         -0.557250        1.000000        0.01382925
      55         -0.554914        1.000000        0.24727363
      56         -0.552868        1.000000        0.00001853
      57         -0.549951        1.000000        0.01841518
      58         -0.549569        1.000000        0.26803566
      59         -0.548627        1.000000        0.24789735
      60         -0.546943        1.000000        0.27808080
      61         -0.546106        1.000000        0.26277046
      62         -0.540929        1.000000        0.25275976
      63         -0.537765        1.000000        0.23304453
      64         -0.526560        1.000000        0.24931193
      65         -0.491930        1.000000        0.19263019
      66         -0.490910        1.000000        0.19517411
      67         -0.476926        1.000000        0.18574565
      68         -0.464327        1.000000        0.00102313
      69         -0.459663        1.000000        0.01685829
      70         -0.458164        1.000000        0.03028062
      71         -0.456938        1.000000        0.11203226
      72         -0.455712        1.000000        0.12995040
      73         -0.454198        1.000000        0.01120462
      74         -0.453497        1.000000        0.10598664
      75         -0.452984        1.000000        0.08578865
      76         -0.452469        1.000000        0.03392673
      77         -0.447041        1.000000        0.00946272
      78         -0.444918        1.000000        0.07159827
      79         -0.443616        1.000000        0.10752853
      80         -0.419484        1.000000        0.42064025
      81         -0.416723        1.000000        0.42344012
      82         -0.415067        1.000000        0.42042490
      83         -0.413910        1.000000        0.41913413
      84         -0.406930        1.000000        0.42165760
      85         -0.406026        1.000000        0.41705258
      86         -0.394568        1.000000        0.42083100
      87         -0.393381        1.000000        0.41933758
      88         -0.391995        1.000000        0.42373699
      89         -0.391078        1.000000        0.42000305
      90         -0.390736        1.000000        0.42552044
      91         -0.386024        1.000000        0.41952530
      92         -0.384185        1.000000        0.42365243
      93         -0.381740        1.000000        0.42042376
      94         -0.300193        1.000000        0.00034753
      95         -0.282245        1.000000        0.00049490
      96         -0.281419        1.000000        0.00047328
      97         -0.278490        1.000000        0.00052332
      98         -0.275273        1.000000        0.00026678
      99         -0.271917        1.000000        0.00037492
     100         -0.271445        1.000000        0.00040202
     101         -0.269033        1.000000        0.00026593
     102         -0.266647        1.000000        0.00058843
     103         -0.265507        1.000000        0.00094066
     104         -0.264503        1.000000        0.00036231
     105         -0.257092        1.000000        0.00060723
     106         -0.255943        1.000000        0.00075037
     107         -0.253932        1.000000        0.00059917
     108         -0.250399        1.000000        0.00081569
     109         -0.247015        1.000000        0.00053265
     110         -0.245401        1.000000        0.00027930
     111         -0.244913        1.000000        0.00039612
     112         -0.243112        1.000000        0.00045952
     113         -0.240869        1.000000        0.00047896
     114         -0.239118        1.000000        0.00080544
     115         -0.238414        1.000000        0.00107236
     116         -0.236497        1.000000        0.00175475
     117         -0.232565        1.000000        0.00225174
     118         -0.230704        1.000000        0.00111778
     119         -0.229339        1.000000        0.00129839
     120         -0.227632        1.000000        0.00102445
     121         -0.226537        1.000000        0.00171012
     122         -0.224573        1.000000        0.00111559
     123         -0.222382        1.000000        0.00099409
     124         -0.220203        1.000000        0.00079210
     125         -0.219664        1.000000        0.00090831
     126         -0.218710        1.000000        0.00078622
     127         -0.217959        1.000000        0.00110180
     128         -0.217092        1.000000        0.00123081
     129         -0.216593        1.000000        0.00221989
     130         -0.215193        1.000000        0.00160010
     131         -0.213401        1.000000        0.00123468
     132         -0.212931        1.000000        0.00112427
     133         -0.211168        1.000000        0.00090656
     134         -0.210628        1.000000        0.00116942
     135         -0.210445        1.000000        0.00135817
     136         -0.209192        1.000000        0.00110265
     137         -0.207428        1.000000        0.00080113
     138         -0.206441        1.000000        0.00145552
     139         -0.206131        1.000000        0.00058152
     140         -0.205624        1.000000        0.00184771
     141         -0.204600        1.000000        0.00122921
     142         -0.203948        1.000000        0.00039130
     143         -0.203178        1.000000        0.00063674
     144         -0.202402        1.000000        0.00081301
     145         -0.201309        1.000000        0.00091066
     146         -0.200619        1.000000        0.00033401
     147         -0.200351        1.000000        0.00060316
     148         -0.199795        1.000000        0.00071220
     149         -0.198866        1.000000        0.00058896
     150         -0.198341        1.000000        0.00151830
     151         -0.197458        1.000000        0.00124997
     152         -0.196473        1.000000        0.00135754
     153         -0.196403        1.000000        0.00090227
     154         -0.195968        1.000000        0.00051643
     155         -0.195328        1.000000        0.00029430
     156         -0.194439        1.000000        0.00043421
     157         -0.193762        1.000000        0.00112758
     158         -0.193653        1.000000        0.00050153
     159         -0.192750        1.000000        0.00067296
     160         -0.192354        1.000000        0.00038215
     161         -0.192022        1.000000        0.00080033
     162         -0.191628        1.000000        0.00047569
     163         -0.190713        1.000000        0.00049104
     164         -0.189997        1.000000        0.00038466
     165         -0.189715        1.000000        0.00069820
     166         -0.189538        1.000000        0.00034524
     167         -0.189022        1.000000        0.00050577
     168         -0.188777        1.000000        0.00057555
     169         -0.188254        1.000000        0.00083604
     170         -0.188016        1.000000        0.00091707
     171         -0.187724        1.000000        0.00034287
     172         -0.187505        1.000000        0.00033213
     173         -0.186968        1.000000        0.00042045
     174         -0.186248        1.000000        0.00119266
     175         -0.185454        1.000000        0.00032618
     176         -0.185158        1.000000        0.00028572
     177         -0.184965        1.000000        0.00040920
     178         -0.184667        1.000000        0.00031049
     179         -0.184367        1.000000        0.00037182
     180         -0.184028        1.000000        0.00031025
     181         -0.183502        1.000000        0.00029081
     182         -0.183328        1.000000        0.00029617
     183         -0.183012        1.000000        0.00015869
     184         -0.182897        1.000000        0.00022536
     185         -0.182321        1.000000        0.00035852
     186         -0.182079        1.000000        0.00019508
     187         -0.181944        1.000000        0.00020973
     188         -0.181638        1.000000        0.00029086
     189         -0.181376        1.000000        0.00025459
     190         -0.181079        1.000000        0.00020821
     191         -0.180503        1.000000        0.00021407
     192         -0.180445        1.000000        0.00018901
     193         -0.179982        1.000000        0.00027938
     194         -0.179565        1.000000        0.00043231
     195         -0.179239        1.000000        0.00006904
     196         -0.179134        0.000000        0.00007713
     197         -0.178669        0.000000        0.00013010
     198         -0.177939        0.000000        0.00014236
     199         -0.177882        0.000000        0.00017716
     200         -0.175609        0.000000        0.00006029
     201         -0.171294        0.000000        0.00009892
     202         -0.076117        0.000000        0.00034541
     203         -0.069531        0.000000        0.00008151
     204         -0.062626        0.000000        0.00027914
     205         -0.057258        0.000000        0.00012581
     206         -0.053836        0.000000        0.00016084
     207         -0.050668        0.000000        0.00009528
     208         -0.050116        0.000000        0.00022106
     209         -0.047679        0.000000        0.00014311
     210         -0.043420        0.000000        0.00010676
     211         -0.042832        0.000000        0.00007706
     212         -0.038999        0.000000        0.00010802
     213         -0.038105        0.000000        0.00012875
     214         -0.035140        0.000000        0.00015067
     215         -0.034170        0.000000        0.00017689
     216         -0.028802        0.000000        0.00013689
     217         -0.024876        0.000000        0.00049329
     218         -0.018231        0.000000        0.00013604
     219         -0.016718        0.000000        0.00017674
     220         -0.013309        0.000000        0.00013614
     221         -0.012009        0.000000        0.00014307
     222         -0.009114        0.000000        0.00016929
     223         -0.006503        0.000000        0.00019615
     224         -0.003026        0.000000        0.00018530
     225          0.004681        0.000000        0.00005107
     226          0.081561        0.000000        0.08720122
     227          0.092502        0.000000        0.00804487
     228          0.098477        0.000000        0.00805097
     229          0.113989        0.000000        0.00409593
     230          0.116169        0.000000        0.00320983
     231          0.120619        0.000000        0.00411953
     232          0.124630        0.000000        0.58422607
     233          0.127792        0.000000        0.00384886
     234          0.188723        0.000000        0.66117192
     235          0.195890        0.000000        0.65589766
     236          0.253134        0.000000        0.65578846
     237          0.279035        0.000000        0.66592205
     238          0.289793        0.000000        0.66422728
     239          0.299180        0.000000        0.65172640
     240          0.301278        0.000000        0.66191509
     241          0.301542        0.000000        0.66185683
     242          0.306590        0.000000        0.65148124
     243          0.306795        0.000000        0.65160262
     244          0.307428        0.000000        0.66163644
     245          0.309590        0.000000        0.66292380
     246          0.311279        0.000000        0.66258200
     247          0.315892        0.000000        0.64475062
     248          0.316396        0.000000        0.66015446
     249          0.329013        0.000000        0.65935860
     250          0.343144        0.000000        0.63276431
     251          0.349354        0.000000        0.63043542
     252          0.351283        0.000000        0.63068055
     253          0.365270        0.000000        0.62876330
     254          0.444263        0.000000        0.58894040
     255          0.446964        0.000000        0.58408488
     256          0.450005        0.000000        0.58623143
     257          0.457250        0.000000        0.58924730
     258          0.458345        0.000000        0.58641450
     259          0.464776        0.000000        0.58693663
     260          0.477127        0.000000        0.58068766
     261          0.478660        0.000000        0.58363480
     262          0.479257        0.000000        0.58044181
     263          0.480049        0.000000        0.58268143
     264          0.481070        0.000000        0.58214578
     265          0.482972        0.000000        0.58074328
     266          0.484773        0.000000        0.57971895
     267          0.490496        0.000000        0.57958614
     268          0.553749        0.000000        0.55240208
     269          0.559826        0.000000        0.55242733
     270          0.569162        0.000000        0.55195336
     271          0.573825        0.000000        0.55318628
     272          0.578578        0.000000        0.55255620
     273          0.580571        0.000000        0.55138290
     274          0.584244        0.000000        0.55176514
