# Projected DOS for atomic kind Pb at iteration step i = 0, E(Fermi) =    -0.178893 a.u.
#     MO Eigenvalue [a.u.]      Occupation                 s                py                pz                px
       1         -0.970675        1.000000        0.00000004        0.00000050        0.00000078        0.00000064
       2         -0.966823        1.000000        0.00000000        0.00000015        0.00000001        0.00000003
       3         -0.956495        1.000000        0.00000005        0.00000115        0.00000126        0.00000053
       4         -0.933948        1.000000        0.00000092        0.00000808        0.00001252        0.00000771
       5         -0.931262        1.000000        0.00000137        0.00001391        0.00001477        0.00000767
       6         -0.927813        1.000000        0.00000084        0.00000958        0.00000859        0.00000556
       7         -0.917248        1.000000        0.00000282        0.00001846        0.00004870        0.00000957
       8         -0.706127        1.000000        0.00000102        0.00000342        0.00000052        0.00000019
       9         -0.704670        1.000000        0.00000985        0.00002278        0.00002574        0.00000695
      10         -0.692458        1.000000        0.00001947        0.00001751        0.00001004        0.00001196
      11         -0.676611        1.000000        0.00012293        0.00010159        0.00008065        0.00005045
      12         -0.675439        1.000000        0.00003696        0.00002708        0.00004376        0.00001616
      13         -0.672420        1.000000        0.00009278        0.00006778        0.00005593        0.00001715
      14         -0.665353        1.000000        0.00008940        0.00004389        0.00010666        0.00003622
      15         -0.617420        1.000000        0.00744525        0.00067243        0.00014861        0.00599005
      16         -0.607882        1.000000        0.05384533        0.00670934        0.00866227        0.01309783
      17         -0.599383        1.000000        0.10351364        0.00537564        0.00203372        0.00128179
      18         -0.598820        1.000000        0.07926015        0.00799570        0.00765463        0.00306468
      19         -0.597670        1.000000        0.01024519        0.00082438        0.00072076        0.00028990
      20         -0.597208        1.000000        0.02639930        0.00270269        0.00091495        0.00090007
      21         -0.595023        1.000000        0.07953351        0.01092290        0.00663465        0.00221789
      22         -0.592386        1.000000        0.09128496        0.01931057        0.00186632        0.00106484
      23         -0.588055        1.000000        0.04645242        0.00441020        0.01181716        0.00093860
      24         -0.585693        1.000000        0.02756730        0.00780055        0.00234286        0.00135484
      25         -0.584085        1.000000        0.01623102        0.00988149        0.01406575        0.00415137
      26         -0.583382        1.000000        0.02004227        0.00367404        0.00722271        0.00132334
      27         -0.581526        1.000000        0.01393979        0.00074880        0.00635212        0.00175519
      28         -0.581129        1.000000        0.02987220        0.00375097        0.01398942        0.00308884
      29         -0.579663        1.000000        0.00484672        0.00207904        0.00139096        0.00435982
      30         -0.578870        1.000000        0.01590366        0.00682877        0.01102599        0.00385090
      31         -0.577928        1.000000        0.04522135        0.00428086        0.01614372        0.00566313
      32         -0.577251        1.000000        0.06710455        0.01824585        0.00504217        0.00897637
      33         -0.576889        1.000000        0.02192385        0.00522515        0.01293373        0.01068176
      34         -0.576179        1.000000        0.02197935        0.01892397        0.01147798        0.00192651
      35         -0.573492        1.000000        0.01087844        0.00184713        0.00501975        0.01741953
      36         -0.572956        1.000000        0.03733459        0.00487012        0.01034171        0.01210279
      37         -0.572006        1.000000        0.03392881        0.00959314        0.00278303        0.00119089
      38         -0.570954        1.000000        0.00259480        0.00455618        0.00427878        0.01934088
      39         -0.570739        1.000000        0.00853510        0.00828964        0.00126531        0.00422849
      40         -0.570476        1.000000        0.00600414        0.00465113        0.01534163        0.00981318
      41         -0.570275        1.000000        0.01372749        0.00397533        0.00928668        0.01637670
      42         -0.567653        1.000000        0.01888452        0.00157026        0.00649166        0.02229185
      43         -0.565936        1.000000        0.00041618        0.01176917        0.00488964        0.00030983
      44         -0.565674        1.000000        0.00020757        0.00094306        0.01205195        0.00675611
      45         -0.564585        1.000000        0.00139809        0.00088896        0.01915546        0.01439705
      46         -0.563042        1.000000        0.00203657        0.00218259        0.01110076        0.00862053
      47         -0.561244        1.000000        0.00156923        0.01903400        0.00021846        0.00296138
      48         -0.560819        1.000000        0.02553719        0.00485759        0.00302039        0.00814097
      49         -0.560798        1.000000        0.01398032        0.00791835        0.00255801        0.00435398
      50         -0.559610        1.000000        0.00880967        0.01378655        0.00049334        0.01039806
      51         -0.559475        1.000000        0.01591884        0.00794484        0.00090658        0.01207550
      52         -0.558784        1.000000        0.01931516        0.00121418        0.00108442        0.01996195
      53         -0.555813        1.000000        0.00125042        0.00312247        0.00743936        0.00735868
      54         -0.555118        1.000000        0.00205601        0.00197116        0.00804752        0.00683844
      55         -0.554244        1.000000        0.00132172        0.00436340        0.00341569        0.00355201
      56         -0.552318        1.000000        0.00000821        0.00005502        0.00000959        0.00000195
      57         -0.549558        1.000000        0.00489638        0.00050468        0.00267025        0.00179514
      58         -0.549149        1.000000        0.00508283        0.00075096        0.00983817        0.00125777
      59         -0.548550        1.000000        0.00211886        0.00028060        0.00418227        0.00115978
      60         -0.546562        1.000000        0.00251677        0.00050347        0.00368770        0.00044926
      61         -0.546174        1.000000        0.00176814        0.00026836        0.00145564        0.00258686
      62         -0.540611        1.000000        0.00733866        0.00013880        0.00521338        0.00044850
      63         -0.537476        1.000000        0.00274768        0.00326670        0.00007244        0.00029636
      64         -0.526398        1.000000        0.00100416        0.00135764        0.00183023        0.00005150
      65         -0.491869        1.000000        0.00028223        0.00002443        0.00000045        0.00000019
      66         -0.490862        1.000000        0.00065556        0.00000703        0.00003350        0.00002393
      67         -0.476858        1.000000        0.00540331        0.00002483        0.00002743        0.00000477
      68         -0.464332        1.000000        0.67763207        0.00110621        0.00237480        0.00195008
      69         -0.459572        1.000000        0.64113697        0.00071196        0.00143584        0.00107874
      70         -0.458020        1.000000        0.60726597        0.00120877        0.00114390        0.00067716
      71         -0.456843        1.000000        0.24771217        0.00022963        0.00038803        0.00036603
      72         -0.455610        1.000000        0.22120848        0.00017030        0.00006734        0.00027585
      73         -0.454048        1.000000        0.69870639        0.00091636        0.00053226        0.00141534
      74         -0.453416        1.000000        0.28844749        0.00005414        0.00009595        0.00035174
      75         -0.452902        1.000000        0.34593394        0.00031519        0.00008574        0.00026191
      76         -0.452191        1.000000        0.67510224        0.00053699        0.00057541        0.00078175
      77         -0.446916        1.000000        0.72121471        0.00058107        0.00056983        0.00017069
      78         -0.444796        1.000000        0.43505887        0.00021128        0.00004600        0.00021739
      79         -0.443514        1.000000        0.33398791        0.00020416        0.00008978        0.00007169
      80         -0.419417        1.000000        0.00001596        0.00000376        0.00000299        0.00001371
      81         -0.416664        1.000000        0.00003488        0.00000671        0.00000418        0.00000442
      82         -0.415023        1.000000        0.00053175        0.00005858        0.00014725        0.00011710
      83         -0.413852        1.000000        0.00001552        0.00000764        0.00003630        0.00001397
      84         -0.406841        1.000000        0.00020620        0.00005594        0.00009266        0.00005335
      85         -0.405956        1.000000        0.00163444        0.00010652        0.00014639        0.00005708
      86         -0.394521        1.000000        0.00034356        0.00023765        0.00005294        0.00009523
      87         -0.393338        1.000000        0.00038616        0.00017999        0.00013278        0.00008951
      88         -0.391958        1.000000        0.00010273        0.00003064        0.00005585        0.00007523
      89         -0.391017        1.000000        0.00009200        0.00005733        0.00013229        0.00009769
      90         -0.390661        1.000000        0.00012679        0.00000834        0.00004863        0.00000557
      91         -0.385958        1.000000        0.00002922        0.00013276        0.00011318        0.00008610
      92         -0.384122        1.000000        0.00010509        0.00011171        0.00002345        0.00003556
      93         -0.381681        1.000000        0.00017524        0.00020241        0.00016827        0.00018004
      94         -0.295167        1.000000        0.00090093        0.00408917        0.00219045        0.02126241
      95         -0.282102        1.000000        0.00549592        0.07355637        0.13340211        0.04802822
      96         -0.281378        1.000000        0.00521023        0.04072912        0.11595855        0.05217752
      97         -0.278456        1.000000        0.00769337        0.07945709        0.16752250        0.03559380
      98         -0.275210        1.000000        0.01430534        0.18742277        0.03303230        0.06006068
      99         -0.272227        1.000000        0.00259910        0.02678524        0.04095563        0.21684128
     100         -0.271140        1.000000        0.01055184        0.05062589        0.07628033        0.10235676
     101         -0.268634        1.000000        0.00234041        0.10267478        0.06250084        0.07372042
     102         -0.266516        1.000000        0.00762373        0.11507252        0.04683600        0.06170028
     103         -0.264833        1.000000        0.00082547        0.09414635        0.02059235        0.16082537
     104         -0.264127        1.000000        0.00062706        0.01344318        0.11844050        0.11649080
     105         -0.256694        1.000000        0.00933244        0.08034853        0.10009333        0.08240751
     106         -0.255676        1.000000        0.00565866        0.10114751        0.07786215        0.05444939
     107         -0.253214        1.000000        0.00201094        0.04157533        0.15732065        0.05164538
     108         -0.250336        1.000000        0.00376061        0.07331557        0.04139307        0.11089764
     109         -0.246846        1.000000        0.00359672        0.07209651        0.02682606        0.10529091
     110         -0.245043        1.000000        0.00129041        0.11599722        0.06245634        0.04543238
     111         -0.244708        1.000000        0.00883121        0.04051641        0.08273007        0.06646710
     112         -0.242724        1.000000        0.00618393        0.06779837        0.08791387        0.07517198
     113         -0.240617        1.000000        0.00315487        0.05418987        0.10205790        0.01864943
     114         -0.238517        1.000000        0.00266995        0.03804959        0.08985043        0.01332535
     115         -0.237573        1.000000        0.00232468        0.02760222        0.02788816        0.10349736
     116         -0.235728        1.000000        0.00213993        0.02660863        0.07103572        0.05178029
     117         -0.231895        1.000000        0.00613881        0.05416501        0.02417593        0.05231572
     118         -0.230173        1.000000        0.00574371        0.03005287        0.05832546        0.02404163
     119         -0.229060        1.000000        0.00615012        0.03634076        0.04385389        0.03188220
     120         -0.227047        1.000000        0.00766587        0.03427018        0.03865918        0.03252482
     121         -0.226065        1.000000        0.00294775        0.04011150        0.01466807        0.01483634
     122         -0.223811        1.000000        0.00943789        0.05809253        0.02209087        0.03211116
     123         -0.221704        1.000000        0.00350242        0.01446118        0.02627527        0.02932187
     124         -0.220306        1.000000        0.01307647        0.04151032        0.01270865        0.02285214
     125         -0.219647        1.000000        0.00218796        0.01051393        0.01032974        0.00618989
     126         -0.218361        1.000000        0.00528401        0.04299718        0.00628378        0.01065239
     127         -0.217812        1.000000        0.00627512        0.01768875        0.01298687        0.01395405
     128         -0.216321        1.000000        0.02704497        0.05344618        0.00960510        0.01626266
     129         -0.215904        1.000000        0.00104929        0.01138835        0.00526284        0.00514507
     130         -0.214290        1.000000        0.00328845        0.00492043        0.00284920        0.00516660
     131         -0.213141        1.000000        0.00367364        0.01810799        0.00077753        0.00331537
     132         -0.211928        1.000000        0.00199123        0.00945328        0.00254930        0.00306888
     133         -0.211038        1.000000        0.00260636        0.00751407        0.00381391        0.00191113
     134         -0.210362        1.000000        0.00334332        0.00443875        0.00603963        0.00720406
     135         -0.209921        1.000000        0.00188463        0.00827777        0.00141557        0.00108009
     136         -0.208866        1.000000        0.00185163        0.00591707        0.00182924        0.00859156
     137         -0.207449        1.000000        0.00263140        0.00245146        0.00212456        0.00358986
     138         -0.206086        1.000000        0.00114645        0.00534963        0.00290306        0.00259733
     139         -0.205760        1.000000        0.00311255        0.00249672        0.00301525        0.00423108
     140         -0.204945        1.000000        0.00308737        0.00401691        0.00410620        0.00342450
     141         -0.204335        1.000000        0.00248257        0.00421673        0.00094718        0.00329764
     142         -0.203997        1.000000        0.00482983        0.00568277        0.00646763        0.00265464
     143         -0.202580        1.000000        0.00353325        0.00349131        0.00418383        0.00228901
     144         -0.201481        1.000000        0.00181120        0.00260177        0.00209807        0.00134511
     145         -0.200600        1.000000        0.00201024        0.00172997        0.00022906        0.00035725
     146         -0.199535        1.000000        0.00333878        0.00257184        0.00115330        0.00056281
     147         -0.199003        1.000000        0.00439783        0.00264182        0.00250188        0.00157536
     148         -0.197898        1.000000        0.00290829        0.00244335        0.00036935        0.00204371
     149         -0.197143        1.000000        0.00263046        0.00356213        0.00102777        0.00082042
     150         -0.196723        1.000000        0.00930060        0.00133809        0.00160926        0.00157185
     151         -0.196564        1.000000        0.00189949        0.00055668        0.00097455        0.00051284
     152         -0.196041        1.000000        0.00248780        0.00144380        0.00046506        0.00062324
     153         -0.195819        1.000000        0.00090712        0.00109547        0.00013370        0.00044804
     154         -0.194696        1.000000        0.00345261        0.00081740        0.00092536        0.00206256
     155         -0.194036        1.000000        0.00638841        0.00289224        0.00202921        0.00102287
     156         -0.193829        1.000000        0.00151510        0.00092102        0.00035287        0.00042867
     157         -0.193188        1.000000        0.00522282        0.00155671        0.00167074        0.00119462
     158         -0.192619        1.000000        0.00356605        0.00124943        0.00086959        0.00080922
     159         -0.192027        1.000000        0.00902238        0.00321913        0.00192800        0.00118276
     160         -0.191753        1.000000        0.00602347        0.00372437        0.00178471        0.00073811
     161         -0.191256        1.000000        0.00381406        0.00277961        0.00080316        0.00061339
     162         -0.190544        1.000000        0.00690394        0.00235963        0.00235833        0.00252298
     163         -0.190081        1.000000        0.00363290        0.00110253        0.00086593        0.00062846
     164         -0.189863        1.000000        0.00464954        0.00102469        0.00126124        0.00085603
     165         -0.189236        1.000000        0.01050069        0.00205165        0.00191852        0.00121948
     166         -0.189024        1.000000        0.00291169        0.00110434        0.00074014        0.00103273
     167         -0.188797        1.000000        0.00738165        0.00098371        0.00283050        0.00282521
     168         -0.187587        1.000000        0.00333495        0.00058303        0.00075550        0.00081446
     169         -0.187380        1.000000        0.00901498        0.00087014        0.00133160        0.00108542
     170         -0.187009        1.000000        0.00849001        0.00148526        0.00226418        0.00160831
     171         -0.186808        1.000000        0.00660188        0.00178602        0.00104923        0.00150973
     172         -0.186333        1.000000        0.00394705        0.00191881        0.00025899        0.00056784
     173         -0.185608        1.000000        0.00366522        0.00149632        0.00055050        0.00026992
     174         -0.185307        1.000000        0.01053685        0.00125293        0.00158814        0.00086004
     175         -0.185094        1.000000        0.00253963        0.00021405        0.00056627        0.00081438
     176         -0.184585        1.000000        0.00718704        0.00178151        0.00222076        0.00062087
     177         -0.184379        1.000000        0.00499725        0.00044643        0.00110968        0.00055156
     178         -0.184233        1.000000        0.00371723        0.00084658        0.00040583        0.00024083
     179         -0.184024        1.000000        0.00584308        0.00029560        0.00050996        0.00079375
     180         -0.183465        1.000000        0.01600124        0.00083742        0.00067677        0.00133261
     181         -0.183128        1.000000        0.01779027        0.00064637        0.00252755        0.00193589
     182         -0.182912        1.000000        0.00089767        0.00011150        0.00017633        0.00007485
     183         -0.182624        1.000000        0.00893314        0.00102841        0.00058906        0.00021393
     184         -0.182402        1.000000        0.01264152        0.00218330        0.00083571        0.00051318
     185         -0.181892        1.000000        0.00477637        0.00074626        0.00041799        0.00045515
     186         -0.181618        1.000000        0.00543017        0.00059231        0.00043225        0.00053131
     187         -0.181476        1.000000        0.00282741        0.00026272        0.00052013        0.00025764
     188         -0.181370        1.000000        0.02182824        0.00222402        0.00231976        0.00251577
     189         -0.180926        1.000000        0.00648915        0.00042779        0.00125473        0.00054540
     190         -0.180791        1.000000        0.00657780        0.00046482        0.00084316        0.00076940
     191         -0.180109        1.000000        0.02195494        0.00223113        0.00295882        0.00205184
     192         -0.179366        1.000000        0.01261536        0.00099651        0.00050478        0.00103888
     193         -0.179104        1.000000        0.00979289        0.00082214        0.00034469        0.00045784
     194         -0.178893        1.000000        0.02423336        0.00165255        0.00123590        0.00066425
     195         -0.178564        0.000000        0.04226169        0.00151561        0.00185327        0.00293160
     196         -0.178450        0.000000        0.01331261        0.00100654        0.00032787        0.00046384
     197         -0.178036        0.000000        0.04081486        0.00142335        0.00379646        0.00079647
     198         -0.177364        0.000000        0.06421372        0.00157624        0.00279629        0.00359673
     199         -0.174911        0.000000        0.08941472        0.00336326        0.00151414        0.00243354
     200         -0.172481        0.000000        0.00392521        0.00064927        0.00012438        0.00136129
     201         -0.171587        0.000000        0.13693227        0.00101455        0.00156993        0.00147110
     202         -0.075875        0.000000        0.00362008        0.71029928        0.02548993        0.02062378
     203         -0.069329        0.000000        0.00876064        0.18997872        0.42203615        0.12715903
     204         -0.062426        0.000000        0.00904462        0.17187483        0.38656539        0.16120183
     205         -0.057099        0.000000        0.00190613        0.38496087        0.17233228        0.16702800
     206         -0.053567        0.000000        0.00228069        0.16733158        0.02055620        0.52006866
     207         -0.050563        0.000000        0.00545494        0.53914113        0.02697749        0.12849276
     208         -0.049804        0.000000        0.00609396        0.08520461        0.45585244        0.16380532
     209         -0.047444        0.000000        0.00249637        0.11683021        0.21094244        0.37157149
     210         -0.043289        0.000000        0.00802806        0.03842160        0.55890446        0.09160393
     211         -0.042573        0.000000        0.00374466        0.08226427        0.07779407        0.55092322
     212         -0.038870        0.000000        0.00683821        0.32262932        0.15303170        0.21934973
     213         -0.038024        0.000000        0.00542489        0.21558858        0.11610533        0.36163819
     214         -0.034774        0.000000        0.00295259        0.24126786        0.05026867        0.40166543
     215         -0.033991        0.000000        0.00093917        0.25327135        0.18344875        0.25926518
     216         -0.028540        0.000000        0.00186086        0.04224975        0.32804520        0.32717315
     217         -0.024711        0.000000        0.00199787        0.63613800        0.03338321        0.01392592
     218         -0.017902        0.000000        0.00118894        0.07744864        0.43195861        0.17160832
     219         -0.016525        0.000000        0.00013520        0.22220866        0.03197184        0.41508311
     220         -0.013150        0.000000        0.00044932        0.03460411        0.61784256        0.02174785
     221         -0.011771        0.000000        0.00025671        0.05319112        0.49106713        0.13389085
     222         -0.009113        0.000000        0.00021313        0.47907899        0.06322385        0.12991715
     223         -0.006499        0.000000        0.00011768        0.05621709        0.03884737        0.57513310
     224         -0.003027        0.000000        0.00093308        0.42835343        0.03923190        0.20868895
     225          0.004749        0.000000        0.00010892        0.03205401        0.60856954        0.02031745
     226          0.081611        0.000000        0.00000184        0.00013001        0.00001824        0.00006441
     227          0.092540        0.000000        0.00000219        0.00001977        0.00010345        0.00012476
     228          0.098544        0.000000        0.00000206        0.00001181        0.00003738        0.00000171
     229          0.114021        0.000000        0.00000135        0.00003182        0.00012797        0.00008504
     230          0.116191        0.000000        0.00000197        0.00014002        0.00004526        0.00003275
     231          0.120669        0.000000        0.00000069        0.00003951        0.00004644        0.00000779
     232          0.124697        0.000000        0.00000040        0.00001276        0.00000092        0.00000031
     233          0.127827        0.000000        0.00000032        0.00007628        0.00005740        0.00000833
     234          0.188790        0.000000        0.00000111        0.00000290        0.00000036        0.00002523
     235          0.195958        0.000000        0.00000243        0.00000739        0.00002005        0.00000217
     236          0.253192        0.000000        0.00000051        0.00000196        0.00000552        0.00000642
     237          0.279107        0.000000        0.00000483        0.00000368        0.00000039        0.00007070
     238          0.289837        0.000000        0.00000309        0.00013150        0.00006825        0.00000378
     239          0.299283        0.000000        0.00000701        0.00000799        0.00000665        0.00011972
     240          0.301327        0.000000        0.00000286        0.00009650        0.00002659        0.00002135
     241          0.301600        0.000000        0.00000226        0.00000950        0.00003971        0.00002933
     242          0.306635        0.000000        0.00000778        0.00011284        0.00001404        0.00004457
     243          0.306847        0.000000        0.00000787        0.00005269        0.00000564        0.00006346
     244          0.307439        0.000000        0.00000277        0.00005707        0.00003721        0.00000804
     245          0.309597        0.000000        0.00000055        0.00006381        0.00005916        0.00002760
     246          0.311352        0.000000        0.00000538        0.00002854        0.00008845        0.00005517
     247          0.315944        0.000000        0.00001049        0.00004771        0.00004849        0.00000636
     248          0.316418        0.000000        0.00000369        0.00007821        0.00003544        0.00000453
     249          0.329055        0.000000        0.00000046        0.00000652        0.00003977        0.00001333
     250          0.343178        0.000000        0.00000991        0.00011144        0.00008906        0.00001134
     251          0.349442        0.000000        0.00000311        0.00000104        0.00009447        0.00003798
     252          0.351300        0.000000        0.00000309        0.00003775        0.00006585        0.00000614
     253          0.365331        0.000000        0.00000421        0.00003084        0.00000655        0.00001634
     254          0.444313        0.000000        0.00000034        0.00000055        0.00000132        0.00000337
     255          0.447023        0.000000        0.00000004        0.00000180        0.00000039        0.00000752
     256          0.450042        0.000000        0.00000025        0.00000713        0.00001019        0.00001311
     257          0.457293        0.000000        0.00000086        0.00001859        0.00000386        0.00000340
     258          0.458429        0.000000        0.00000337        0.00000729        0.00000567        0.00001948
     259          0.464825        0.000000        0.00000169        0.00001186        0.00002101        0.00000787