# Projected DOS for atomic kind C at iteration step i = 0, E(Fermi) =    -0.178893 a.u.
#     MO Eigenvalue [a.u.]      Occupation                 s                py                pz                px
       1         -0.970675        1.000000        0.05980140        0.00574309        0.00028457        0.04001398
       2         -0.966823        1.000000        0.06307799        0.00001530        0.00470593        0.04207306
       3         -0.956495        1.000000        0.06142239        0.00563388        0.00987565        0.03063606
       4         -0.933948        1.000000        0.06042778        0.00078484        0.01804058        0.02536085
       5         -0.931262        1.000000        0.06091820        0.00000525        0.00728669        0.03684659
       6         -0.927813        1.000000        0.06165186        0.00017201        0.01683849        0.02752884
       7         -0.917248        1.000000        0.06306139        0.00000081        0.00190068        0.04270032
       8         -0.706127        1.000000        0.43196344        0.00021666        0.00002978        0.00083046
       9         -0.704670        1.000000        0.42962589        0.00005457        0.00010040        0.00021797
      10         -0.692458        1.000000        0.43401075        0.00015900        0.00011415        0.00065347
      11         -0.676611        1.000000        0.43684603        0.00002581        0.00056857        0.00091906
      12         -0.675439        1.000000        0.43902081        0.00001029        0.00012400        0.00111737
      13         -0.672420        1.000000        0.43678408        0.00000013        0.00066629        0.00058295
      14         -0.665353        1.000000        0.43741768        0.00001580        0.00004061        0.00167292
      15         -0.617420        1.000000        0.00003794        0.00005389        0.00151809        0.00009585
      16         -0.607882        1.000000        0.00046162        0.00061304        0.00026758        0.00029412
      17         -0.599383        1.000000        0.00081391        0.00205120        0.00995762        0.00198202
      18         -0.598820        1.000000        0.00031297        0.00191529        0.00249187        0.00041813
      19         -0.597670        1.000000        0.00012488        0.04020658        0.00212595        0.00671728
      20         -0.597208        1.000000        0.00021622        0.00767055        0.02836398        0.00404465
      21         -0.595023        1.000000        0.00046710        0.00142101        0.00330214        0.00133492
      22         -0.592386        1.000000        0.00095380        0.00069213        0.00142553        0.00037323
      23         -0.588055        1.000000        0.00038086        0.00703913        0.00292286        0.00036831
      24         -0.585693        1.000000        0.00041688        0.01293881        0.01341688        0.00066865
      25         -0.584085        1.000000        0.00038233        0.00697910        0.00378081        0.00048088
      26         -0.583382        1.000000        0.00069402        0.01748829        0.01145198        0.00173819
      27         -0.581526        1.000000        0.00067704        0.00171308        0.03877499        0.00136097
      28         -0.581129        1.000000        0.00056783        0.00624557        0.01043154        0.00089060
      29         -0.579663        1.000000        0.00017477        0.00778772        0.00150545        0.00057454
      30         -0.578870        1.000000        0.00034746        0.00762521        0.00549379        0.00399205
      31         -0.577928        1.000000        0.00015974        0.00261306        0.00075325        0.00060850
      32         -0.577251        1.000000        0.00005586        0.00088900        0.00055822        0.00008365
      33         -0.576889        1.000000        0.00011866        0.00150123        0.00265703        0.00144469
      34         -0.576179        1.000000        0.00038212        0.00064634        0.00267873        0.00040496
      35         -0.573492        1.000000        0.00057839        0.02273947        0.00643102        0.00009082
      36         -0.572956        1.000000        0.00022297        0.00709489        0.00264247        0.00039294
      37         -0.572006        1.000000        0.00011409        0.00099726        0.01002163        0.00246209
      38         -0.570954        1.000000        0.00038404        0.02060153        0.00607662        0.00171424
      39         -0.570739        1.000000        0.00010933        0.00459097        0.02392227        0.00853474
      40         -0.570476        1.000000        0.00010205        0.00618211        0.00293594        0.00081891
      41         -0.570275        1.000000        0.00016105        0.00184571        0.00174445        0.00047798
      42         -0.567653        1.000000        0.00014461        0.00224415        0.00185273        0.00042761
      43         -0.565936        1.000000        0.00006499        0.00068641        0.00037316        0.00009185
      44         -0.565674        1.000000        0.00020336        0.00085991        0.00003803        0.00019292
      45         -0.564585        1.000000        0.00002589        0.00005403        0.00012730        0.00002817
      46         -0.563042        1.000000        0.00012415        0.00010713        0.00019453        0.00003369
      47         -0.561244        1.000000        0.00008623        0.00023875        0.00032750        0.00018547
      48         -0.560819        1.000000        0.00002205        0.00085755        0.00265167        0.00015493
      49         -0.560798        1.000000        0.00001741        0.00050745        0.00136872        0.00009011
      50         -0.559610        1.000000        0.00002550        0.00097355        0.00071340        0.00042421
      51         -0.559475        1.000000        0.00012920        0.00129385        0.00129700        0.00047915
      52         -0.558784        1.000000        0.00006425        0.00153216        0.00185941        0.00080864
      53         -0.555813        1.000000        0.00006012        0.00314122        0.01137482        0.00592205
      54         -0.555118        1.000000        0.00002828        0.00255484        0.00869409        0.00588358
      55         -0.554244        1.000000        0.00039216        0.00009489        0.01118161        0.00782892
      56         -0.552318        1.000000        0.00000137        0.00000135        0.00000230        0.00000131
      57         -0.549558        1.000000        0.00011375        0.05180792        0.00204233        0.00027544
      58         -0.549149        1.000000        0.00000535        0.00281900        0.00003588        0.00094688
      59         -0.548550        1.000000        0.00011079        0.04915985        0.00049649        0.00265697
      60         -0.546562        1.000000        0.00017987        0.00233022        0.03266456        0.02199579
      61         -0.546174        1.000000        0.00009165        0.00470764        0.04510913        0.00815351
      62         -0.540611        1.000000        0.00000413        0.05305461        0.00085469        0.00162008
      63         -0.537476        1.000000        0.00009107        0.00030242        0.04597514        0.00122536
      64         -0.526398        1.000000        0.00015095        0.06650807        0.00026727        0.00110437
      65         -0.491869        1.000000        0.02923851        0.00058486        0.03492645        0.30182909
      66         -0.490862        1.000000        0.03405017        0.03647058        0.00452129        0.29497862
      67         -0.476858        1.000000        0.02804712        0.04658402        0.07299726        0.21529652
      68         -0.464332        1.000000        0.00009525        0.00030986        0.00049150        0.00067713
      69         -0.459572        1.000000        0.00234980        0.00021537        0.00759491        0.02738680
      70         -0.458020        1.000000        0.00403941        0.00070414        0.01548556        0.04465587
      71         -0.456843        1.000000        0.01487128        0.00529484        0.08559591        0.13281053
      72         -0.455610        1.000000        0.01714688        0.00123343        0.04886376        0.19030706
      73         -0.454048        1.000000        0.00168640        0.00065149        0.00621269        0.01578599
      74         -0.453416        1.000000        0.01475167        0.00100903        0.05694792        0.14601368
      75         -0.452902        1.000000        0.01389147        0.00083348        0.06292416        0.11742571
      76         -0.452191        1.000000        0.00276404        0.00023563        0.01442695        0.02442829
      77         -0.446916        1.000000        0.00138830        0.00047934        0.00730516        0.01154611
      78         -0.444796        1.000000        0.00986454        0.00020975        0.00690069        0.14870774
      79         -0.443514        1.000000        0.01253813        0.00009377        0.00822935        0.18575035
      80         -0.419417        1.000000        0.00000588        0.09579745        0.39810763        0.05033360
      81         -0.416664        1.000000        0.00002996        0.43541434        0.08639828        0.00871484
      82         -0.415023        1.000000        0.00000263        0.20167707        0.29077326        0.04690011
      83         -0.413852        1.000000        0.00002008        0.28169367        0.24025582        0.02145969
      84         -0.406841        1.000000        0.00001019        0.00373294        0.40772722        0.12462720
      85         -0.405956        1.000000        0.00004183        0.46076511        0.00757769        0.06940353
      86         -0.394521        1.000000        0.00000418        0.29885118        0.17135049        0.05493012
      87         -0.393338        1.000000        0.00000300        0.21805352        0.15098289        0.15874525
      88         -0.391958        1.000000        0.00000155        0.17881948        0.29365494        0.05631049
      89         -0.391017        1.000000        0.00001424        0.35552843        0.15459135        0.02514116
      90         -0.390661        1.000000        0.00000935        0.03100790        0.31716353        0.17911578
      91         -0.385958        1.000000        0.00000104        0.49775178        0.01370393        0.01981286
      92         -0.384122        1.000000        0.00002502        0.30125784        0.21352243        0.00807693
      93         -0.381681        1.000000        0.00002076        0.21745153        0.29542785        0.01270278
      94         -0.295167        1.000000        0.00010455        0.00042352        0.00036853        0.00018003
      95         -0.282102        1.000000        0.00002232        0.00042167        0.00011363        0.00016414
      96         -0.281378        1.000000        0.00001947        0.00082787        0.00018361        0.00010101
      97         -0.278456        1.000000        0.00001627        0.00072828        0.00011715        0.00013786
      98         -0.275210        1.000000        0.00005945        0.00013311        0.00011647        0.00010279
      99         -0.272227        1.000000        0.00004404        0.00023499        0.00009468        0.00009414
     100         -0.271140        1.000000        0.00007268        0.00020856        0.00010157        0.00036535
     101         -0.268634        1.000000        0.00006636        0.00013319        0.00008271        0.00004689
     102         -0.266516        1.000000        0.00008983        0.00042010        0.00077439        0.00023313
     103         -0.264833        1.000000        0.00025530        0.00100578        0.00071647        0.00018935
     104         -0.264127        1.000000        0.00005777        0.00010563        0.00059507        0.00008163
     105         -0.256694        1.000000        0.00005349        0.00027311        0.00004101        0.00025188
     106         -0.255676        1.000000        0.00021945        0.00034724        0.00044635        0.00063035
     107         -0.253214        1.000000        0.00025202        0.00035984        0.00044095        0.00019167
     108         -0.250336        1.000000        0.00018416        0.00025965        0.00082787        0.00079057
     109         -0.246846        1.000000        0.00024838        0.00014902        0.00078605        0.00033578
     110         -0.245043        1.000000        0.00008148        0.00035832        0.00024363        0.00006710
     111         -0.244708        1.000000        0.00082879        0.00035958        0.00014221        0.00031363
     112         -0.242724        1.000000        0.00016137        0.00028603        0.00030181        0.00028946
     113         -0.240617        1.000000        0.00017456        0.00019052        0.00084801        0.00019353
     114         -0.238517        1.000000        0.00011257        0.00020934        0.00013143        0.00072010
     115         -0.237573        1.000000        0.00050441        0.00035469        0.00014847        0.00098053
     116         -0.235728        1.000000        0.00023701        0.00028460        0.00126312        0.00088018
     117         -0.231895        1.000000        0.00045544        0.00037611        0.00103938        0.00068156
     118         -0.230173        1.000000        0.00060063        0.00049879        0.00075312        0.00069037
     119         -0.229060        1.000000        0.00055011        0.00015781        0.00114648        0.00038393
     120         -0.227047        1.000000        0.00094461        0.00014729        0.00020978        0.00089785
     121         -0.226065        1.000000        0.00090134        0.00033277        0.00075663        0.00161629
     122         -0.223811        1.000000        0.00026396        0.00039112        0.00062447        0.00038112
     123         -0.221704        1.000000        0.00039888        0.00054986        0.00045949        0.00029859
     124         -0.220306        1.000000        0.00051401        0.00013020        0.00050866        0.00015659
     125         -0.219647        1.000000        0.00085696        0.00045820        0.00092002        0.00044635
     126         -0.218361        1.000000        0.00031074        0.00007608        0.00071277        0.00016250
     127         -0.217812        1.000000        0.00010413        0.00105438        0.00017171        0.00047517
     128         -0.216321        1.000000        0.00057863        0.00021022        0.00029353        0.00031402
     129         -0.215904        1.000000        0.00017698        0.00047134        0.00073665        0.00105552
     130         -0.214290        1.000000        0.00034998        0.00027943        0.00102322        0.00022477
     131         -0.213141        1.000000        0.00012615        0.00012047        0.00023251        0.00047878
     132         -0.211928        1.000000        0.00044449        0.00145880        0.00067595        0.00005635
     133         -0.211038        1.000000        0.00031386        0.00043778        0.00047582        0.00058115
     134         -0.210362        1.000000        0.00039113        0.00061179        0.00033382        0.00098976
     135         -0.209921        1.000000        0.00010806        0.00006704        0.00050283        0.00018686
     136         -0.208866        1.000000        0.00009592        0.00008326        0.00044872        0.00035834
     137         -0.207449        1.000000        0.00013666        0.00019821        0.00023190        0.00016853
     138         -0.206086        1.000000        0.00011368        0.00021735        0.00047559        0.00070800
     139         -0.205760        1.000000        0.00015741        0.00010811        0.00009529        0.00024042
     140         -0.204945        1.000000        0.00029950        0.00032214        0.00055635        0.00046858
     141         -0.204335        1.000000        0.00010993        0.00019439        0.00030202        0.00026114
     142         -0.203997        1.000000        0.00015461        0.00028239        0.00013969        0.00025495
     143         -0.202580        1.000000        0.00014047        0.00009264        0.00009065        0.00028210
     144         -0.201481        1.000000        0.00035924        0.00013913        0.00020378        0.00039235
     145         -0.200600        1.000000        0.00005439        0.00005400        0.00009554        0.00013057
     146         -0.199535        1.000000        0.00009959        0.00021492        0.00034275        0.00025606
     147         -0.199003        1.000000        0.00007793        0.00017163        0.00008262        0.00007798
     148         -0.197898        1.000000        0.00005158        0.00025858        0.00016549        0.00019108
     149         -0.197143        1.000000        0.00030965        0.00005504        0.00042166        0.00018680
     150         -0.196723        1.000000        0.00003806        0.00023743        0.00021941        0.00027012
     151         -0.196564        1.000000        0.00006875        0.00033373        0.00006077        0.00004002
     152         -0.196041        1.000000        0.00012950        0.00015376        0.00027533        0.00007122
     153         -0.195819        1.000000        0.00007065        0.00007397        0.00011545        0.00008928
     154         -0.194696        1.000000        0.00011376        0.00033839        0.00021017        0.00008203
     155         -0.194036        1.000000        0.00007836        0.00007441        0.00027822        0.00005371
     156         -0.193829        1.000000        0.00008868        0.00022208        0.00014572        0.00006695
     157         -0.193188        1.000000        0.00023176        0.00033800        0.00073586        0.00002473
     158         -0.192619        1.000000        0.00017195        0.00131150        0.00018748        0.00019998
     159         -0.192027        1.000000        0.00002936        0.00003975        0.00005427        0.00007981
     160         -0.191753        1.000000        0.00006051        0.00007391        0.00005211        0.00008009
     161         -0.191256        1.000000        0.00031960        0.00096567        0.00028932        0.00009610
     162         -0.190544        1.000000        0.00007540        0.00043219        0.00016386        0.00024730
     163         -0.190081        1.000000        0.00024353        0.00030864        0.00030072        0.00014039
     164         -0.189863        1.000000        0.00015911        0.00099209        0.00049091        0.00014003
     165         -0.189236        1.000000        0.00014997        0.00023285        0.00010927        0.00018360
     166         -0.189024        1.000000        0.00005555        0.00033040        0.00028197        0.00010070
     167         -0.188797        1.000000        0.00014379        0.00016098        0.00025159        0.00024479
     168         -0.187587        1.000000        0.00014985        0.00013579        0.00015399        0.00002796
     169         -0.187380        1.000000        0.00011862        0.00053381        0.00022138        0.00015817
     170         -0.187009        1.000000        0.00005186        0.00004083        0.00019893        0.00012390
     171         -0.186808        1.000000        0.00018452        0.00018717        0.00015354        0.00011531
     172         -0.186333        1.000000        0.00008124        0.00009264        0.00014628        0.00008217
     173         -0.185608        1.000000        0.00009566        0.00011837        0.00021207        0.00015057
     174         -0.185307        1.000000        0.00010478        0.00002376        0.00007396        0.00005443
     175         -0.185094        1.000000        0.00002048        0.00019217        0.00016664        0.00011777
     176         -0.184585        1.000000        0.00001097        0.00015888        0.00006832        0.00001818
     177         -0.184379        1.000000        0.00006226        0.00006744        0.00008265        0.00016810
     178         -0.184233        1.000000        0.00007674        0.00011147        0.00014436        0.00009023
     179         -0.184024        1.000000        0.00008540        0.00008804        0.00007713        0.00011636
     180         -0.183465        1.000000        0.00009602        0.00011846        0.00003392        0.00009472
     181         -0.183128        1.000000        0.00005604        0.00004199        0.00006732        0.00007337
     182         -0.182912        1.000000        0.00000492        0.00008076        0.00002795        0.00006662
     183         -0.182624        1.000000        0.00012539        0.00025285        0.00009546        0.00002557
     184         -0.182402        1.000000        0.00012971        0.00020475        0.00012310        0.00003325
     185         -0.181892        1.000000        0.00005548        0.00089450        0.00001202        0.00002790
     186         -0.181618        1.000000        0.00008038        0.00009184        0.00007617        0.00006540
     187         -0.181476        1.000000        0.00011423        0.00022745        0.00009474        0.00003897
     188         -0.181370        1.000000        0.00004689        0.00004662        0.00009706        0.00001737
     189         -0.180926        1.000000        0.00031981        0.00029729        0.00017600        0.00023245
     190         -0.180791        1.000000        0.00017621        0.00011011        0.00020545        0.00013849
     191         -0.180109        1.000000        0.00012372        0.00018402        0.00024725        0.00007349
     192         -0.179366        1.000000        0.00009470        0.00012526        0.00022362        0.00004447
     193         -0.179104        1.000000        0.00012700        0.00010123        0.00022296        0.00001366
     194         -0.178893        1.000000        0.00003669        0.00001437        0.00003881        0.00002004
     195         -0.178564        0.000000        0.00003209        0.00026592        0.00007310        0.00003527
     196         -0.178450        0.000000        0.00001708        0.00003396        0.00003149        0.00000267
     197         -0.178036        0.000000        0.00004514        0.00019831        0.00007037        0.00005292
     198         -0.177364        0.000000        0.00002918        0.00009646        0.00006893        0.00003499
     199         -0.174911        0.000000        0.00003151        0.00009981        0.00002203        0.00001473
     200         -0.172481        0.000000        0.00000238        0.00004553        0.00002758        0.00002951
     201         -0.171587        0.000000        0.00001607        0.00005032        0.00010400        0.00001661
     202         -0.075875        0.000000        0.00000241        0.00000581        0.00001005        0.00000159
     203         -0.069329        0.000000        0.00003391        0.00003486        0.00001663        0.00003150
     204         -0.062426        0.000000        0.00001959        0.00000724        0.00003925        0.00004584
     205         -0.057099        0.000000        0.00003524        0.00000719        0.00007376        0.00002633
     206         -0.053567        0.000000        0.00001098        0.00001109        0.00001354        0.00002738
     207         -0.050563        0.000000        0.00003028        0.00002689        0.00003856        0.00003809
     208         -0.049804        0.000000        0.00002083        0.00000398        0.00000710        0.00005693
     209         -0.047444        0.000000        0.00002503        0.00001343        0.00002708        0.00002718
     210         -0.043289        0.000000        0.00001733        0.00006152        0.00002714        0.00002388
     211         -0.042573        0.000000        0.00004968        0.00003547        0.00000588        0.00002783
     212         -0.038870        0.000000        0.00007221        0.00003349        0.00001439        0.00002422
     213         -0.038024        0.000000        0.00006678        0.00005922        0.00002923        0.00001790
     214         -0.034774        0.000000        0.00001017        0.00000694        0.00000729        0.00001981
     215         -0.033991        0.000000        0.00002026        0.00004250        0.00000460        0.00004700
     216         -0.028540        0.000000        0.00001379        0.00001735        0.00000297        0.00002844
     217         -0.024711        0.000000        0.00001554        0.00002066        0.00006813        0.00005594
     218         -0.017902        0.000000        0.00000497        0.00000404        0.00000264        0.00001398
     219         -0.016525        0.000000        0.00005767        0.00002268        0.00004455        0.00005938
     220         -0.013150        0.000000        0.00002078        0.00003351        0.00001415        0.00009583
     221         -0.011771        0.000000        0.00001523        0.00001346        0.00002122        0.00004453
     222         -0.009113        0.000000        0.00002386        0.00004147        0.00001958        0.00005271
     223         -0.006499        0.000000        0.00003309        0.00004795        0.00002439        0.00004619
     224         -0.003027        0.000000        0.00002199        0.00000877        0.00000333        0.00005134
     225          0.004749        0.000000        0.00001705        0.00002336        0.00002744        0.00003344
     226          0.081611        0.000000        0.07350817        0.00034892        0.04870788        0.43807286
     227          0.092540        0.000000        0.08191427        0.07569357        0.00435138        0.47319441
     228          0.098544        0.000000        0.08216789        0.06832240        0.11962677        0.36296601
     229          0.114021        0.000000        0.07909970        0.00010904        0.08678254        0.46470765
     230          0.116191        0.000000        0.07900714        0.00946488        0.22328004        0.31946739
     231          0.120669        0.000000        0.07895092        0.00170310        0.21525336        0.33389104
     232          0.124697        0.000000        0.01452810        0.00001661        0.00711453        0.05538947
     233          0.127827        0.000000        0.07965076        0.00013782        0.02224247        0.52514124
     234          0.188790        0.000000        0.00132808        0.00000070        0.00050411        0.00165098
     235          0.195958        0.000000        0.00231348        0.00073621        0.00251258        0.00113701
     236          0.253192        0.000000        0.00182690        0.00086789        0.00174387        0.00224601
     237          0.279107        0.000000        0.00000517        0.00123608        0.00547749        0.00039913
     238          0.289837        0.000000        0.00000933        0.00453683        0.00100791        0.00004402
     239          0.299283        0.000000        0.00286187        0.00351674        0.00010635        0.00031683
     240          0.301327        0.000000        0.00001019        0.00509435        0.00128906        0.00073507
     241          0.301600        0.000000        0.00001454        0.00484059        0.00186819        0.00067777
     242          0.306635        0.000000        0.00130273        0.00196260        0.00185278        0.00153923
     243          0.306847        0.000000        0.00220462        0.00248957        0.00132997        0.00091958
     244          0.307439        0.000000        0.00003586        0.00187624        0.00236880        0.00163988
     245          0.309597        0.000000        0.00000566        0.00487488        0.00095546        0.00124782
     246          0.311352        0.000000        0.00002955        0.00460804        0.00312092        0.00187675
     247          0.315944        0.000000        0.00325781        0.00038898        0.00214034        0.00060264
     248          0.316418        0.000000        0.00025775        0.00765563        0.00004091        0.00013191
     249          0.329055        0.000000        0.00003294        0.00002818        0.01015680        0.00109460
     250          0.343178        0.000000        0.00416903        0.00034177        0.00011998        0.00006046
     251          0.349442        0.000000        0.00558589        0.00001167        0.00008911        0.00001959
     252          0.351300        0.000000        0.00539889        0.00001430        0.00002415        0.00012961
     253          0.365331        0.000000        0.00520508        0.00049645        0.00005527        0.00012730
     254          0.444313        0.000000        0.00037713        0.38939855        0.00198688        0.00000587
     255          0.447023        0.000000        0.00004424        0.00188572        0.35067691        0.03812415
     256          0.450042        0.000000        0.00018968        0.32879536        0.01560396        0.04487539
     257          0.457293        0.000000        0.00001958        0.00898585        0.37246301        0.01272232
     258          0.458429        0.000000        0.00004981        0.01300257        0.26496931        0.11635489
     259          0.464825        0.000000        0.00015465        0.33093005        0.04301622        0.01560961