# Projected DOS for atomic kind N at iteration step i = 0, E(Fermi) =    -0.179239 a.u.
#     MO Eigenvalue [a.u.]      Occupation                 s                py                pz                px
       1         -0.970724        1.000000        0.62161972        0.00002218        0.00021240        0.00008201
       2         -0.966869        1.000000        0.62208854        0.00107448        0.00024512        0.00003983
       3         -0.956546        1.000000        0.61915401        0.00007839        0.00024175        0.00021215
       4         -0.933962        1.000000        0.61146980        0.00001221        0.00025084        0.00000360
       5         -0.931311        1.000000        0.61168130        0.00010582        0.00003236        0.00005876
       6         -0.927841        1.000000        0.61201855        0.00000921        0.00013579        0.00000174
       7         -0.917296        1.000000        0.60973173        0.00001609        0.00000090        0.00003404
       8         -0.706184        1.000000        0.01780014        0.00260708        0.01697320        0.19144385
       9         -0.704722        1.000000        0.01493612        0.02892070        0.00422459        0.18994052
      10         -0.692533        1.000000        0.01796271        0.02347871        0.03657134        0.14645212
      11         -0.676647        1.000000        0.01680827        0.00324253        0.07837413        0.11023764
      12         -0.675489        1.000000        0.01655470        0.00007032        0.03018869        0.16515498
      13         -0.672480        1.000000        0.01669265        0.00064939        0.07829431        0.11791280
      14         -0.665403        1.000000        0.01768026        0.00000891        0.00690554        0.18217230
      15         -0.620433        1.000000        0.00007201        0.00022999        0.00745782        0.00118860
      16         -0.607707        1.000000        0.00018381        0.00452226        0.00124890        0.00024942
      17         -0.599314        1.000000        0.00033767        0.02468474        0.15222418        0.01750043
      18         -0.599119        1.000000        0.00012303        0.01893377        0.01136996        0.00459730
      19         -0.597713        1.000000        0.00008902        0.44446427        0.02090963        0.06711610
      20         -0.597339        1.000000        0.00018715        0.09206361        0.24988214        0.03802513
      21         -0.595089        1.000000        0.00044805        0.01627429        0.01085559        0.01060390
      22         -0.592512        1.000000        0.00062598        0.00690648        0.00704409        0.00429471
      23         -0.588537        1.000000        0.00051699        0.08284903        0.02431926        0.00663828
      24         -0.585986        1.000000        0.00058788        0.11866183        0.10594019        0.00194455
      25         -0.584591        1.000000        0.00024389        0.11479421        0.04925452        0.00325118
      26         -0.583834        1.000000        0.00077967        0.14189907        0.05785603        0.00604330
      27         -0.582519        1.000000        0.00049586        0.06874366        0.16716446        0.00423156
      28         -0.581830        1.000000        0.00029916        0.04363214        0.02459433        0.00252514
      29         -0.581307        1.000000        0.00085920        0.02681107        0.38565670        0.00833462
      30         -0.579355        1.000000        0.00052299        0.02403126        0.03020054        0.02133108
      31         -0.578959        1.000000        0.00036281        0.07511977        0.01800051        0.02996555
      32         -0.578442        1.000000        0.00013906        0.03714590        0.00547704        0.00607421
      33         -0.576895        1.000000        0.00066764        0.01536590        0.02802039        0.01133423
      34         -0.576237        1.000000        0.00017474        0.01077414        0.02990684        0.01007581
      35         -0.574381        1.000000        0.00022141        0.00084884        0.00420051        0.00123088
      36         -0.573250        1.000000        0.00278467        0.35905633        0.06799282        0.00630273
      37         -0.572810        1.000000        0.00023191        0.00860465        0.01328977        0.00677961
      38         -0.571274        1.000000        0.00060572        0.02296737        0.23895777        0.10129707
      39         -0.570386        1.000000        0.00030052        0.01693658        0.05045390        0.01669680
      40         -0.570255        1.000000        0.00047705        0.02887044        0.10618867        0.02818236
      41         -0.569886        1.000000        0.00051998        0.10941396        0.01582038        0.00301794
      42         -0.567319        1.000000        0.00001604        0.00215044        0.00130805        0.00257130
      43         -0.566962        1.000000        0.00015205        0.02754639        0.00800248        0.00774421
      44         -0.565151        1.000000        0.00000675        0.00174933        0.00032800        0.00044616
      45         -0.564656        1.000000        0.00001907        0.00353333        0.00128681        0.00069641
      46         -0.564308        1.000000        0.00019399        0.00662364        0.00989776        0.00381195
      47         -0.563862        1.000000        0.00001068        0.00300438        0.00078532        0.00030498
      48         -0.561692        1.000000        0.00003166        0.00510366        0.05148650        0.00328912
      49         -0.561418        1.000000        0.00000705        0.00192942        0.00080203        0.00040638
      50         -0.560542        1.000000        0.00000674        0.00145975        0.00020261        0.00017378
      51         -0.560243        1.000000        0.00004603        0.00119852        0.00179130        0.00107023
      52         -0.558313        1.000000        0.00067098        0.02837953        0.00586625        0.00133281
      53         -0.557842        1.000000        0.00014962        0.01408787        0.02931825        0.02418152
      54         -0.557250        1.000000        0.00004931        0.00285155        0.01406618        0.00837027
      55         -0.554914        1.000000        0.00075848        0.03346649        0.25966340        0.16407108
      56         -0.552868        1.000000        0.00000062        0.00000279        0.00002211        0.00000558
      57         -0.549951        1.000000        0.00004831        0.03478094        0.00081501        0.00695573
      58         -0.549569        1.000000        0.00005753        0.48582536        0.01384237        0.00503876
      59         -0.548627        1.000000        0.00016104        0.44837881        0.00588449        0.02024172
      60         -0.546943        1.000000        0.00034386        0.02919079        0.31213196        0.18177224
      61         -0.546106        1.000000        0.00002894        0.03472339        0.38826823        0.08118557
      62         -0.540929        1.000000        0.00008290        0.47000132        0.01003991        0.01600014
      63         -0.537765        1.000000        0.00005890        0.00124787        0.41987496        0.02093468
      64         -0.526560        1.000000        0.00033272        0.49128401        0.00359821        0.00092178
      65         -0.491930        1.000000        0.00741300        0.00015686        0.04618903        0.38452796
      66         -0.490910        1.000000        0.00927902        0.05516714        0.00048174        0.36401825
      67         -0.476926        1.000000        0.00707414        0.05542774        0.09957056        0.27790197
      68         -0.464327        1.000000        0.00003091        0.00040728        0.00082682        0.00104244
      69         -0.459663        1.000000        0.00090225        0.00067029        0.01207449        0.02820441
      70         -0.458164        1.000000        0.00171238        0.00120483        0.02118873        0.05054260
      71         -0.456938        1.000000        0.00552711        0.00447301        0.10785794        0.16620884
      72         -0.455712        1.000000        0.00668812        0.00200914        0.08113804        0.23329341
      73         -0.454198        1.000000        0.00061627        0.00061571        0.00783156        0.01679858
      74         -0.453497        1.000000        0.00504634        0.00105184        0.07648214        0.18162008
      75         -0.452984        1.000000        0.00435577        0.00062091        0.07591547        0.12959995
      76         -0.452469        1.000000        0.00164311        0.00085565        0.03060968        0.05024869
      77         -0.447041        1.000000        0.00025847        0.00013190        0.00757784        0.01620083
      78         -0.444918        1.000000        0.00362103        0.00015237        0.00942728        0.16451130
      79         -0.443616        1.000000        0.00476453        0.00040704        0.01560307        0.25497002
      80         -0.419484        1.000000        0.00000001        0.00650482        0.02342945        0.00327797
      81         -0.416723        1.000000        0.00019166        0.03741300        0.00688704        0.00045974
      82         -0.415067        1.000000        0.00005031        0.01180304        0.02206303        0.00246840
      83         -0.413910        1.000000        0.00000128        0.01717846        0.01579317        0.00040410
      84         -0.406930        1.000000        0.00005374        0.00007551        0.02810710        0.00925153
      85         -0.406026        1.000000        0.00002394        0.02898651        0.00045088        0.00532604
      86         -0.394568        1.000000        0.00001755        0.02100822        0.01321121        0.00358051
      87         -0.393381        1.000000        0.00000281        0.01541820        0.01034367        0.01073220
      88         -0.391995        1.000000        0.00000261        0.01261433        0.02439543        0.00434876
      89         -0.391078        1.000000        0.00000049        0.02375058        0.01077391        0.00158672
      90         -0.390736        1.000000        0.00001661        0.00249341        0.02597687        0.01228924
      91         -0.386024        1.000000        0.00000031        0.03564554        0.00101071        0.00147148
      92         -0.384185        1.000000        0.00000889        0.02540776        0.01584776        0.00082620
      93         -0.381740        1.000000        0.00000635        0.01836845        0.02036656        0.00068215
      94         -0.300193        1.000000        0.00005485        0.00003368        0.00017338        0.00006208
      95         -0.282245        1.000000        0.00010965        0.00005078        0.00006541        0.00009457
      96         -0.281419        1.000000        0.00005055        0.00015484        0.00002589        0.00004876
      97         -0.278490        1.000000        0.00003520        0.00006062        0.00028326        0.00005929
      98         -0.275273        1.000000        0.00008285        0.00149384        0.00014019        0.00014730
      99         -0.271917        1.000000        0.00019268        0.00045465        0.00034173        0.00013787
     100         -0.271445        1.000000        0.00027586        0.00012474        0.00042142        0.00004847
     101         -0.269033        1.000000        0.00009406        0.00034231        0.00004888        0.00009738
     102         -0.266647        1.000000        0.00018220        0.00037386        0.00038907        0.00012400
     103         -0.265507        1.000000        0.00048705        0.00132514        0.00020760        0.00013701
     104         -0.264503        1.000000        0.00002625        0.00004433        0.00009545        0.00006318
     105         -0.257092        1.000000        0.00038145        0.00158322        0.00010625        0.00040310
     106         -0.255943        1.000000        0.00076269        0.00221900        0.00051043        0.00086021
     107         -0.253932        1.000000        0.00020339        0.00046005        0.00031702        0.00036715
     108         -0.250399        1.000000        0.00047246        0.00044340        0.00059710        0.00028471
     109         -0.247015        1.000000        0.00042530        0.00011859        0.00039383        0.00024648
     110         -0.245401        1.000000        0.00015426        0.00012136        0.00011878        0.00020183
     111         -0.244913        1.000000        0.00008436        0.00018150        0.00040065        0.00025875
     112         -0.243112        1.000000        0.00006350        0.00034648        0.00016529        0.00010983
     113         -0.240869        1.000000        0.00023359        0.00048649        0.00032260        0.00026873
     114         -0.239118        1.000000        0.00108368        0.00106941        0.00059591        0.00089838
     115         -0.238414        1.000000        0.00164930        0.00349770        0.00022306        0.00189165
     116         -0.236497        1.000000        0.00321685        0.00368842        0.00033720        0.00278736
     117         -0.232565        1.000000        0.00238418        0.00358741        0.00013512        0.00157643
     118         -0.230704        1.000000        0.00151998        0.00175531        0.00070701        0.00072277
     119         -0.229339        1.000000        0.00147574        0.00064274        0.00107809        0.00071033
     120         -0.227632        1.000000        0.00107733        0.00077816        0.00067357        0.00171328
     121         -0.226537        1.000000        0.00134831        0.00068839        0.00074626        0.00216616
     122         -0.224573        1.000000        0.00128182        0.00180134        0.00036383        0.00119754
     123         -0.222382        1.000000        0.00054095        0.00133590        0.00040493        0.00204364
     124         -0.220203        1.000000        0.00047814        0.00068264        0.00061706        0.00063063
     125         -0.219664        1.000000        0.00018269        0.00198629        0.00104116        0.00065132
     126         -0.218710        1.000000        0.00031453        0.00293495        0.00065927        0.00093564
     127         -0.217959        1.000000        0.00090943        0.00127822        0.00146054        0.00017800
     128         -0.217092        1.000000        0.00089591        0.00238063        0.00052797        0.00067704
     129         -0.216593        1.000000        0.00206908        0.00928600        0.00047534        0.00193405
     130         -0.215193        1.000000        0.00103752        0.00668167        0.00018894        0.00058648
     131         -0.213401        1.000000        0.00100871        0.00197186        0.00084104        0.00102933
     132         -0.212931        1.000000        0.00032700        0.00225357        0.00032637        0.00108028
     133         -0.211168        1.000000        0.00046176        0.00075044        0.00060463        0.00007750
     134         -0.210628        1.000000        0.00037472        0.00220288        0.00026761        0.00091078
     135         -0.210445        1.000000        0.00075171        0.00468138        0.00049430        0.00040677
     136         -0.209192        1.000000        0.00158184        0.00037711        0.00036397        0.00124239
     137         -0.207428        1.000000        0.00073524        0.00118106        0.00026503        0.00072639
     138         -0.206441        1.000000        0.00067183        0.00270347        0.00019091        0.00060081
     139         -0.206131        1.000000        0.00046147        0.00082185        0.00012437        0.00012531
     140         -0.205624        1.000000        0.00165230        0.00234430        0.00080750        0.00247412
     141         -0.204600        1.000000        0.00089273        0.00322160        0.00078290        0.00089457
     142         -0.203948        1.000000        0.00007559        0.00051070        0.00063173        0.00008819
     143         -0.203178        1.000000        0.00053202        0.00057156        0.00041552        0.00010400
     144         -0.202402        1.000000        0.00026751        0.00098361        0.00120611        0.00070586
     145         -0.201309        1.000000        0.00095765        0.00057298        0.00093205        0.00071190
     146         -0.200619        1.000000        0.00015577        0.00099802        0.00022629        0.00012188
     147         -0.200351        1.000000        0.00028071        0.00219317        0.00024311        0.00015671
     148         -0.199795        1.000000        0.00040867        0.00178888        0.00092893        0.00015189
     149         -0.198866        1.000000        0.00016192        0.00224860        0.00049296        0.00024391
     150         -0.198341        1.000000        0.00087891        0.00384441        0.00116860        0.00129404
     151         -0.197458        1.000000        0.00087602        0.00121563        0.00354648        0.00027906
     152         -0.196473        1.000000        0.00050690        0.00585858        0.00048051        0.00065391
     153         -0.196403        1.000000        0.00036050        0.00170457        0.00367308        0.00050681
     154         -0.195968        1.000000        0.00025626        0.00075986        0.00073791        0.00020260
     155         -0.195328        1.000000        0.00006984        0.00042788        0.00016891        0.00022045
     156         -0.194439        1.000000        0.00015147        0.00063452        0.00011828        0.00006215
     157         -0.193762        1.000000        0.00062440        0.00058340        0.00140113        0.00111610
     158         -0.193653        1.000000        0.00030948        0.00056234        0.00032449        0.00058196
     159         -0.192750        1.000000        0.00039437        0.00027156        0.00087225        0.00040044
     160         -0.192354        1.000000        0.00018185        0.00048694        0.00031406        0.00012326
     161         -0.192022        1.000000        0.00013146        0.00054027        0.00048433        0.00003158
     162         -0.191628        1.000000        0.00036703        0.00020825        0.00019167        0.00026171
     163         -0.190713        1.000000        0.00024339        0.00036375        0.00028618        0.00050494
     164         -0.189997        1.000000        0.00017504        0.00039574        0.00013081        0.00017668
     165         -0.189715        1.000000        0.00057752        0.00099005        0.00016348        0.00024762
     166         -0.189538        1.000000        0.00016920        0.00082850        0.00034364        0.00015866
     167         -0.189022        1.000000        0.00030909        0.00054135        0.00031416        0.00027130
     168         -0.188777        1.000000        0.00038508        0.00093156        0.00031197        0.00014870
     169         -0.188254        1.000000        0.00030304        0.00164087        0.00192619        0.00058819
     170         -0.188016        1.000000        0.00069934        0.00126691        0.00136115        0.00056514
     171         -0.187724        1.000000        0.00017659        0.00038723        0.00003507        0.00024453
     172         -0.187505        1.000000        0.00017768        0.00048198        0.00010164        0.00026139
     173         -0.186968        1.000000        0.00018305        0.00046526        0.00034902        0.00034003
     174         -0.186248        1.000000        0.00069274        0.00219593        0.00069509        0.00048845
     175         -0.185454        1.000000        0.00022779        0.00069498        0.00020462        0.00020660
     176         -0.185158        1.000000        0.00015546        0.00054501        0.00030566        0.00019031
     177         -0.184965        1.000000        0.00017096        0.00052308        0.00009086        0.00017510
     178         -0.184667        1.000000        0.00023962        0.00050884        0.00004627        0.00017472
     179         -0.184367        1.000000        0.00019866        0.00092579        0.00143278        0.00009821
     180         -0.184028        1.000000        0.00005308        0.00024770        0.00222487        0.00019533
     181         -0.183502        1.000000        0.00010664        0.00042014        0.00039457        0.00015783
     182         -0.183328        1.000000        0.00006393        0.00017681        0.00009188        0.00001382
     183         -0.183012        1.000000        0.00001788        0.00019173        0.00030618        0.00006640
     184         -0.182897        1.000000        0.00012575        0.00016423        0.00038657        0.00008022
     185         -0.182321        1.000000        0.00009538        0.00036314        0.00002402        0.00036136
     186         -0.182079        1.000000        0.00008062        0.00038564        0.00057656        0.00006123
     187         -0.181944        1.000000        0.00006678        0.00012719        0.00004400        0.00017656
     188         -0.181638        1.000000        0.00000845        0.00019941        0.00012466        0.00033554
     189         -0.181376        1.000000        0.00010917        0.00029566        0.00023547        0.00003707
     190         -0.181079        1.000000        0.00006930        0.00021025        0.00003324        0.00025732
     191         -0.180503        1.000000        0.00009424        0.00024412        0.00001872        0.00008041
     192         -0.180445        1.000000        0.00004593        0.00008389        0.00010178        0.00008782
     193         -0.179982        1.000000        0.00015797        0.00020103        0.00022172        0.00032252
     194         -0.179565        1.000000        0.00013852        0.00076080        0.00009903        0.00014051
     195         -0.179239        1.000000        0.00000964        0.00010231        0.00006485        0.00002339
     196         -0.179134        0.000000        0.00000567        0.00002433        0.00004278        0.00002600
     197         -0.178669        0.000000        0.00003938        0.00008692        0.00005661        0.00005747
     198         -0.177939        0.000000        0.00003720        0.00008627        0.00013933        0.00006125
     199         -0.177882        0.000000        0.00003116        0.00006342        0.00012184        0.00004360
     200         -0.175609        0.000000        0.00001546        0.00015277        0.00004095        0.00003295
     201         -0.171294        0.000000        0.00001333        0.00001931        0.00006746        0.00001192
     202         -0.076117        0.000000        0.00008048        0.00023274        0.00012720        0.00010293
     203         -0.069531        0.000000        0.00001609        0.00002157        0.00002137        0.00002334
     204         -0.062626        0.000000        0.00016145        0.00012231        0.00003256        0.00008125
     205         -0.057258        0.000000        0.00003813        0.00008755        0.00003114        0.00005229
     206         -0.053836        0.000000        0.00008613        0.00007956        0.00000729        0.00002256
     207         -0.050668        0.000000        0.00001696        0.00003638        0.00004188        0.00010513
     208         -0.050116        0.000000        0.00006418        0.00011723        0.00002059        0.00002579
     209         -0.047679        0.000000        0.00003045        0.00006611        0.00002014        0.00003040
     210         -0.043420        0.000000        0.00004810        0.00002722        0.00005120        0.00002260
     211         -0.042832        0.000000        0.00000427        0.00002127        0.00000807        0.00000416
     212         -0.038999        0.000000        0.00002211        0.00003972        0.00001622        0.00001556
     213         -0.038105        0.000000        0.00003753        0.00003624        0.00005909        0.00000893
     214         -0.035140        0.000000        0.00004547        0.00007600        0.00005782        0.00000441
     215         -0.034170        0.000000        0.00007065        0.00015719        0.00001862        0.00004133
     216         -0.028802        0.000000        0.00003677        0.00002267        0.00003980        0.00003759
     217         -0.024876        0.000000        0.00022699        0.00002555        0.00027074        0.00014492
     218         -0.018231        0.000000        0.00005117        0.00006790        0.00002630        0.00001051
     219         -0.016718        0.000000        0.00010871        0.00011465        0.00001320        0.00001661
     220         -0.013309        0.000000        0.00008074        0.00007143        0.00002199        0.00002026
     221         -0.012009        0.000000        0.00009191        0.00006147        0.00001526        0.00000232
     222         -0.009114        0.000000        0.00005346        0.00008006        0.00005673        0.00005960
     223         -0.006503        0.000000        0.00010610        0.00008219        0.00004713        0.00001307
     224         -0.003026        0.000000        0.00002728        0.00022387        0.00001849        0.00000969
     225          0.004681        0.000000        0.00004348        0.00000278        0.00000967        0.00002005
     226          0.081561        0.000000        0.14720189        0.02715790        0.00462888        0.17123774
     227          0.092502        0.000000        0.11871555        0.04002558        0.00199276        0.19315782
     228          0.098477        0.000000        0.10822397        0.02331522        0.03901141        0.18553883
     229          0.113989        0.000000        0.10191490        0.00031200        0.04854380        0.21211678
     230          0.116169        0.000000        0.09726016        0.00403846        0.10833982        0.15088115
     231          0.120619        0.000000        0.10392620        0.00102405        0.10029970        0.15797884
     232          0.124630        0.000000        0.01476355        0.17609581        0.07307676        0.07456306
     233          0.127792        0.000000        0.10172795        0.00010795        0.01429199        0.24951517
     234          0.188723        0.000000        0.03650665        0.00449813        0.23858238        0.05512270
     235          0.195890        0.000000        0.05266020        0.07225683        0.19899648        0.01275199
     236          0.253134        0.000000        0.05100415        0.11443973        0.07598520        0.09575647
     237          0.279035        0.000000        0.00002165        0.04564630        0.25145305        0.02649705
     238          0.289793        0.000000        0.00004015        0.23387988        0.08878169        0.00126910
     239          0.299180        0.000000        0.14152261        0.16785974        0.01742512        0.00866660
     240          0.301278        0.000000        0.00042486        0.17651462        0.11085588        0.03157209
     241          0.301542        0.000000        0.00036200        0.15092236        0.13477514        0.03234624
     242          0.306590        0.000000        0.09269696        0.08202817        0.07263782        0.08674060
     243          0.306795        0.000000        0.09284886        0.08032412        0.07507466        0.08572994
     244          0.307428        0.000000        0.00096136        0.10985375        0.13977860        0.07251099
     245          0.309590        0.000000        0.00042003        0.20352616        0.06090476        0.04948539
     246          0.311279        0.000000        0.00026802        0.21782293        0.07085073        0.02644073
     247          0.315892        0.000000        0.18557169        0.00087916        0.01011733        0.14438916
     248          0.316396        0.000000        0.01133870        0.27316672        0.01666297        0.00615349
     249          0.329013        0.000000        0.00084677        0.01025957        0.28806820        0.01886619
     250          0.343144        0.000000        0.23827232        0.00932567        0.02137421        0.07282171
     251          0.349354        0.000000        0.24479680        0.00110641        0.02090768        0.07922743
     252          0.351283        0.000000        0.24298371        0.00027012        0.03725109        0.06599720
     253          0.365270        0.000000        0.23608970        0.00615734        0.00693335        0.08801089
     254          0.444263        0.000000        0.00079354        0.01775517        0.00008168        0.00037925
     255          0.446964        0.000000        0.00012442        0.00028952        0.02092698        0.00320761
     256          0.450005        0.000000        0.00009706        0.02121899        0.00046945        0.00199510
     257          0.457250        0.000000        0.00013249        0.00029763        0.01536663        0.00017019
     258          0.458345        0.000000        0.00057010        0.00045631        0.01065717        0.00707925
     259          0.464776        0.000000        0.00001972        0.01781873        0.00344143        0.00072045