# Projected DOS for atomic kind I at iteration step i = 0, E(Fermi) =    -0.179239 a.u.
#     MO Eigenvalue [a.u.]      Occupation                 s                py                pz                px
       1         -0.970724        1.000000        0.00001774        0.00009652        0.00006492        0.00000990
       2         -0.966869        1.000000        0.00002047        0.00002706        0.00014030        0.00003475
       3         -0.956546        1.000000        0.00003452        0.00014758        0.00007955        0.00008364
       4         -0.933962        1.000000        0.00022270        0.00049998        0.00020968        0.00035739
       5         -0.931311        1.000000        0.00021266        0.00051454        0.00024896        0.00022271
       6         -0.927841        1.000000        0.00017976        0.00035826        0.00021043        0.00034956
       7         -0.917296        1.000000        0.00035695        0.00061790        0.00047149        0.00020137
       8         -0.706184        1.000000        0.00013122        0.00001632        0.00008668        0.00014880
       9         -0.704722        1.000000        0.00041312        0.00015700        0.00011487        0.00027968
      10         -0.692533        1.000000        0.00082098        0.00021407        0.00028271        0.00030322
      11         -0.676647        1.000000        0.00441003        0.00056472        0.00098414        0.00063701
      12         -0.675489        1.000000        0.00206847        0.00047627        0.00022904        0.00022493
      13         -0.672480        1.000000        0.00266287        0.00046252        0.00040309        0.00030275
      14         -0.665403        1.000000        0.00392552        0.00064318        0.00046317        0.00030121
      15         -0.620433        1.000000        0.95223529        0.01314465        0.00145120        0.00388931
      16         -0.607707        1.000000        0.89652272        0.00184733        0.00187163        0.00288053
      17         -0.599314        1.000000        0.57013133        0.00626049        0.00398736        0.00370991
      18         -0.599119        1.000000        0.81961434        0.00341046        0.00872883        0.00396510
      19         -0.597713        1.000000        0.11297662        0.00147026        0.00136718        0.00072602
      20         -0.597339        1.000000        0.32557180        0.00363744        0.00262224        0.00221679
      21         -0.595089        1.000000        0.81547697        0.00563328        0.00517028        0.00374728
      22         -0.592512        1.000000        0.83625978        0.00458760        0.00501985        0.00476477
      23         -0.588537        1.000000        0.72335925        0.00544418        0.00229565        0.00313556
      24         -0.585986        1.000000        0.56417893        0.00249837        0.00197272        0.00269549
      25         -0.584591        1.000000        0.67427662        0.00387761        0.00215759        0.00174677
      26         -0.583834        1.000000        0.61468800        0.00308651        0.00178447        0.00185647
      27         -0.582519        1.000000        0.58657186        0.00549667        0.00125257        0.00125053
      28         -0.581830        1.000000        0.81024785        0.00363313        0.00264296        0.00189578
      29         -0.581307        1.000000        0.28799682        0.00163536        0.00105170        0.00116719
      30         -0.579355        1.000000        0.79180437        0.00238467        0.00292543        0.00335330
      31         -0.578959        1.000000        0.72146997        0.00356724        0.00261173        0.00325913
      32         -0.578442        1.000000        0.82656089        0.00405779        0.00429156        0.00362320
      33         -0.576895        1.000000        0.85265708        0.00124772        0.00257046        0.00276439
      34         -0.576237        1.000000        0.84590845        0.00248105        0.00258492        0.00204387
      35         -0.574381        1.000000        0.90442872        0.00193375        0.00303880        0.00310318
      36         -0.573250        1.000000        0.26361334        0.00071643        0.00057292        0.00067179
      37         -0.572810        1.000000        0.89837013        0.00133145        0.00187321        0.00172403
      38         -0.571274        1.000000        0.36885487        0.00139606        0.00214858        0.00110089
      39         -0.570386        1.000000        0.81547363        0.00119771        0.00345411        0.00078732
      40         -0.570255        1.000000        0.66740259        0.00327974        0.00418559        0.00160137
      41         -0.569886        1.000000        0.74757800        0.00058296        0.00081688        0.00126335
      42         -0.567319        1.000000        0.95263043        0.00054311        0.00060600        0.00156410
      43         -0.566962        1.000000        0.86142342        0.00211111        0.00066270        0.00444172
      44         -0.565151        1.000000        0.96976281        0.00062259        0.00058468        0.00112428
      45         -0.564656        1.000000        0.96900945        0.00070158        0.00041974        0.00112518
      46         -0.564308        1.000000        0.92293108        0.00129152        0.00101786        0.00224172
      47         -0.563862        1.000000        0.96742729        0.00034290        0.00146008        0.00062818
      48         -0.561692        1.000000        0.84700823        0.00127994        0.00324586        0.00229869
      49         -0.561418        1.000000        0.96355420        0.00203051        0.00017552        0.00051702
      50         -0.560542        1.000000        0.97893039        0.00097211        0.00036923        0.00038600
      51         -0.560243        1.000000        0.96759952        0.00062979        0.00061870        0.00110562
      52         -0.558313        1.000000        0.91067230        0.00175545        0.00174906        0.00115598
      53         -0.557842        1.000000        0.84151340        0.00113670        0.00104518        0.00324389
      54         -0.557250        1.000000        0.92628709        0.00095782        0.00068658        0.00096928
      55         -0.554914        1.000000        0.23394916        0.00341202        0.00111554        0.00176770
      56         -0.552868        1.000000        0.99978760        0.00005899        0.00000252        0.00002595
      57         -0.549951        1.000000        0.91606417        0.00130034        0.00075266        0.00025922
      58         -0.549569        1.000000        0.15566631        0.00333315        0.00111611        0.00266795
      59         -0.548627        1.000000        0.20957237        0.00660684        0.00026639        0.00124769
      60         -0.546943        1.000000        0.12976732        0.00098802        0.00148105        0.00171266
      61         -0.546106        1.000000        0.16475937        0.00224709        0.00068189        0.00092822
      62         -0.540929        1.000000        0.17740666        0.00219194        0.00087324        0.00213510
      63         -0.537765        1.000000        0.26594766        0.00019604        0.00209387        0.00049522
      64         -0.526560        1.000000        0.17394765        0.00515253        0.00097449        0.00215226
      65         -0.491930        1.000000        0.00122149        0.00021667        0.00045474        0.00029574
      66         -0.490910        1.000000        0.00285702        0.00059633        0.00048091        0.00115988
      67         -0.476926        1.000000        0.00161484        0.00137978        0.00150799        0.00134174
      68         -0.464327        1.000000        0.16429454        0.05067725        0.05301596        0.04401287
      69         -0.459663        1.000000        0.13393108        0.03397766        0.04783948        0.03917034
      70         -0.458164        1.000000        0.10718889        0.03809796        0.04210646        0.02712106
      71         -0.456938        1.000000        0.05873630        0.01804489        0.01708424        0.01501459
      72         -0.455712        1.000000        0.04142385        0.01506524        0.00931181        0.01107295
      73         -0.454198        1.000000        0.12088771        0.03642517        0.02689784        0.04914310
      74         -0.453497        1.000000        0.07264557        0.01562276        0.01573310        0.01669786
      75         -0.452984        1.000000        0.08343582        0.02287349        0.01572389        0.02028126
      76         -0.452469        1.000000        0.10685462        0.02900335        0.02844719        0.02866621
      77         -0.447041        1.000000        0.13252579        0.02295377        0.03890922        0.02689895
      78         -0.444918        1.000000        0.07615747        0.01119975        0.02026673        0.02031842
      79         -0.443616        1.000000        0.06217901        0.01168213        0.01158112        0.01204952
      80         -0.419484        1.000000        0.00031207        0.00017064        0.00027205        0.00115955
      81         -0.416723        1.000000        0.00012877        0.00025825        0.00026717        0.00035357
      82         -0.415067        1.000000        0.00039125        0.00028725        0.00146619        0.00085767
      83         -0.413910        1.000000        0.00064678        0.00047766        0.00123542        0.00161515
      84         -0.406930        1.000000        0.00046226        0.00091248        0.00155770        0.00149936
      85         -0.406026        1.000000        0.00179648        0.00222949        0.00113092        0.00325799
      86         -0.394568        1.000000        0.00212746        0.00432987        0.00295653        0.00610509
      87         -0.393381        1.000000        0.00212105        0.00464108        0.00222519        0.00664997
      88         -0.391995        1.000000        0.00100857        0.00252966        0.00153580        0.00075628
      89         -0.391078        1.000000        0.00112200        0.00437656        0.00149057        0.00128779
      90         -0.390736        1.000000        0.00123015        0.00236079        0.00134384        0.00133343
      91         -0.386024        1.000000        0.00190493        0.00471456        0.00043239        0.00371063
      92         -0.384185        1.000000        0.00173145        0.00514232        0.00249769        0.00183143
      93         -0.381740        1.000000        0.00196266        0.00538485        0.00531093        0.00114691
      94         -0.300193        1.000000        0.01724733        0.76949682        0.02592476        0.16180420
      95         -0.282245        1.000000        0.01744576        0.29774668        0.33229578        0.08410175
      96         -0.281419        1.000000        0.01346429        0.16260072        0.37980030        0.23351404
      97         -0.278490        1.000000        0.01733332        0.16979814        0.43394763        0.08453815
      98         -0.275273        1.000000        0.01032040        0.47459946        0.06925233        0.14943367
      99         -0.271917        1.000000        0.01657905        0.06907942        0.12089149        0.50361645
     100         -0.271445        1.000000        0.00932796        0.21967969        0.18014186        0.34830052
     101         -0.269033        1.000000        0.01194990        0.21939377        0.17246018        0.35428867
     102         -0.266647        1.000000        0.01323093        0.38717119        0.20427955        0.16092322
     103         -0.265507        1.000000        0.01600530        0.22462807        0.08721695        0.39409502
     104         -0.264503        1.000000        0.01405441        0.09924959        0.27586047        0.36106655
     105         -0.257092        1.000000        0.01510776        0.24235623        0.34226448        0.12927790
     106         -0.255943        1.000000        0.01345750        0.34246037        0.19544709        0.19532329
     107         -0.253932        1.000000        0.01217256        0.13429049        0.49528324        0.10663711
     108         -0.250399        1.000000        0.01959274        0.15989491        0.19009372        0.39770399
     109         -0.247015        1.000000        0.01803186        0.22432286        0.11699004        0.42614315
     110         -0.245401        1.000000        0.01890841        0.33686715        0.32595752        0.09847854
     111         -0.244913        1.000000        0.01721387        0.20497516        0.33217833        0.24798747
     112         -0.243112        1.000000        0.01782528        0.34422632        0.22162457        0.18184436
     113         -0.240869        1.000000        0.01771514        0.11940518        0.56113472        0.10133074
     114         -0.239118        1.000000        0.01118760        0.18650382        0.55735559        0.09477514
     115         -0.238414        1.000000        0.01514324        0.20905857        0.15007781        0.44131999
     116         -0.236497        1.000000        0.00957345        0.28256863        0.40289308        0.15149080
     117         -0.232565        1.000000        0.00832824        0.39137030        0.16611525        0.28338765
     118         -0.230704        1.000000        0.00832078        0.25853321        0.28824941        0.29440085
     119         -0.229339        1.000000        0.00851082        0.37422836        0.14207408        0.37392419
     120         -0.227632        1.000000        0.00695325        0.26414239        0.27337407        0.33387714
     121         -0.226537        1.000000        0.00434259        0.43472132        0.34177544        0.14441537
     122         -0.224573        1.000000        0.00580037        0.24646141        0.28688232        0.34010396
     123         -0.222382        1.000000        0.00639806        0.17321530        0.34032068        0.37875226
     124         -0.220203        1.000000        0.00486807        0.27734041        0.19468945        0.42271156
     125         -0.219664        1.000000        0.00225585        0.18477057        0.31541620        0.45256013
     126         -0.218710        1.000000        0.00374808        0.36237917        0.24134993        0.33380171
     127         -0.217959        1.000000        0.00283565        0.22026554        0.26140635        0.47130433
     128         -0.217092        1.000000        0.00326468        0.25537499        0.37202466        0.29243925
     129         -0.216593        1.000000        0.00203304        0.43296016        0.20920754        0.28415483
     130         -0.215193        1.000000        0.00141856        0.31411248        0.32193110        0.33295431
     131         -0.213401        1.000000        0.00137538        0.21568619        0.41266753        0.34295347
     132         -0.212931        1.000000        0.00117489        0.30472918        0.50465220        0.17100573
     133         -0.211168        1.000000        0.00132747        0.43596628        0.28539919        0.25587268
     134         -0.210628        1.000000        0.00229689        0.31134019        0.38912406        0.27115786
     135         -0.210445        1.000000        0.00133736        0.36024039        0.38701037        0.23040420
     136         -0.209192        1.000000        0.00173877        0.28858878        0.22512707        0.45888458
     137         -0.207428        1.000000        0.00101650        0.19904843        0.29765173        0.49030742
     138         -0.206441        1.000000        0.00128634        0.14984005        0.14805268        0.67973015
     139         -0.206131        1.000000        0.00077987        0.20498597        0.28207205        0.50068255
     140         -0.205624        1.000000        0.00100094        0.50157160        0.26872514        0.20467570
     141         -0.204600        1.000000        0.00120547        0.24420695        0.41037117        0.31569584
     142         -0.203948        1.000000        0.00073082        0.33493393        0.29271341        0.36229297
     143         -0.203178        1.000000        0.00082702        0.22488797        0.25597219        0.50153150
     144         -0.202402        1.000000        0.00090913        0.35088193        0.41336228        0.22391368
     145         -0.201309        1.000000        0.00116504        0.22465535        0.34295755        0.41529477
     146         -0.200619        1.000000        0.00032295        0.63822221        0.10300274        0.25346627
     147         -0.200351        1.000000        0.00074608        0.44380607        0.17127444        0.37127280
     148         -0.199795        1.000000        0.00094278        0.26720049        0.39405978        0.32731499
     149         -0.198866        1.000000        0.00102779        0.22683517        0.38574168        0.37614294
     150         -0.198341        1.000000        0.00157397        0.31009155        0.19057970        0.48395140
     151         -0.197458        1.000000        0.00135805        0.32804726        0.49876697        0.15811548
     152         -0.196473        1.000000        0.00149361        0.32704693        0.37396936        0.27561491
     153         -0.196403        1.000000        0.00152430        0.28799215        0.33038666        0.36715107
     154         -0.195968        1.000000        0.00156825        0.26919226        0.35124013        0.35791246
     155         -0.195328        1.000000        0.00061468        0.45059437        0.30361780        0.23667801
     156         -0.194439        1.000000        0.00082138        0.33582161        0.23510476        0.41249351
     157         -0.193762        1.000000        0.00132375        0.47010986        0.27652370        0.24144982
     158         -0.193653        1.000000        0.00070678        0.39407158        0.30145480        0.29683618
     159         -0.192750        1.000000        0.00089874        0.44631392        0.18982081        0.34914003
     160         -0.192354        1.000000        0.00102398        0.19736184        0.40015118        0.38864860
     161         -0.192022        1.000000        0.00080754        0.28162463        0.38725757        0.31997002
     162         -0.191628        1.000000        0.00072225        0.30624285        0.36033458        0.31813132
     163         -0.190713        1.000000        0.00094811        0.26966671        0.38018517        0.33411660
     164         -0.189997        1.000000        0.00064753        0.53862057        0.21599734        0.23289035
     165         -0.189715        1.000000        0.00128186        0.37259876        0.28591886        0.32363537
     166         -0.189538        1.000000        0.00088628        0.50471798        0.22860482        0.24958373
     167         -0.189022        1.000000        0.00088981        0.36470591        0.30859837        0.30948192
     168         -0.188777        1.000000        0.00134622        0.47877218        0.17217194        0.33625344
     169         -0.188254        1.000000        0.00098651        0.21422371        0.43644974        0.33587975
     170         -0.188016        1.000000        0.00087735        0.24546089        0.58713076        0.15541639
     171         -0.187724        1.000000        0.00051585        0.35740540        0.25843612        0.37570760
     172         -0.187505        1.000000        0.00054849        0.39189684        0.32039269        0.27488392
     173         -0.186968        1.000000        0.00090835        0.21114992        0.31932408        0.43934876
     174         -0.186248        1.000000        0.00172454        0.51932529        0.23714070        0.22644254
     175         -0.185454        1.000000        0.00080361        0.44969234        0.33274595        0.20934973
     176         -0.185158        1.000000        0.00075618        0.16672717        0.52718792        0.28109084
     177         -0.184965        1.000000        0.00070915        0.39295178        0.34572487        0.24318199
     178         -0.184667        1.000000        0.00077222        0.32035430        0.38351982        0.28366200
     179         -0.184367        1.000000        0.00087781        0.36132716        0.37325042        0.25352439
     180         -0.184028        1.000000        0.00083170        0.24824345        0.42387923        0.31839422
     181         -0.183502        1.000000        0.00073162        0.36124896        0.24081269        0.38479751
     182         -0.183328        1.000000        0.00096804        0.18089618        0.34684036        0.45831100
     183         -0.183012        1.000000        0.00069063        0.31984198        0.32201281        0.34614803
     184         -0.182897        1.000000        0.00043563        0.19462442        0.33581347        0.45048378
     185         -0.182321        1.000000        0.00055409        0.28513549        0.47403083        0.22901391
     186         -0.182079        1.000000        0.00029792        0.18069321        0.41586520        0.38814983
     187         -0.181944        1.000000        0.00032345        0.33240092        0.33919109        0.31499203
     188         -0.181638        1.000000        0.00028025        0.34798049        0.27930602        0.35947647
     189         -0.181376        1.000000        0.00043190        0.36045144        0.23778224        0.38145506
     190         -0.181079        1.000000        0.00026944        0.38186873        0.29501310        0.30761009
     191         -0.180503        1.000000        0.00055599        0.27798064        0.31221370        0.36474522
     192         -0.180445        1.000000        0.00165085        0.33079912        0.17023621        0.49133223
     193         -0.179982        1.000000        0.00049315        0.39235776        0.50917531        0.08967594
     194         -0.179565        1.000000        0.00112606        0.22707502        0.42755259        0.33680336
     195         -0.179239        1.000000        0.00031913        0.28675890        0.30788003        0.38854545
     196         -0.179134        0.000000        0.00021676        0.11082357        0.78481107        0.09664621
     197         -0.178669        0.000000        0.00353863        0.51976456        0.11408631        0.32121542
     198         -0.177939        0.000000        0.00243940        0.40322807        0.25293479        0.28774244
     199         -0.177882        0.000000        0.00065677        0.43996174        0.21535187        0.27949522
     200         -0.175609        0.000000        0.00071102        0.17682882        0.40222168        0.32452952
     201         -0.171294        0.000000        0.00034430        0.32778642        0.24659443        0.27724470
     202         -0.076117        0.000000        0.02294847        0.17946258        0.01719967        0.02147282
     203         -0.069531        0.000000        0.02295009        0.02201568        0.07842913        0.12603789
     204         -0.062626        0.000000        0.02872417        0.06867511        0.12311489        0.04736257
     205         -0.057258        0.000000        0.02723880        0.12050271        0.06008379        0.06241410
     206         -0.053836        0.000000        0.02751483        0.04704891        0.02039154        0.18870707
     207         -0.050668        0.000000        0.02351696        0.20293073        0.01973760        0.05022067
     208         -0.050116        0.000000        0.02146760        0.03679331        0.14143043        0.08575216
     209         -0.047679        0.000000        0.02171110        0.07392116        0.07406151        0.12723545
     210         -0.043420        0.000000        0.03267812        0.01060138        0.21727000        0.04174259
     211         -0.042832        0.000000        0.02129608        0.04454702        0.11789817        0.09895883
     212         -0.038999        0.000000        0.02080435        0.13687076        0.07425950        0.06359152
     213         -0.038105        0.000000        0.02536361        0.08530656        0.03939236        0.15136331
     214         -0.035140        0.000000        0.01439524        0.09692170        0.02330593        0.16885476
     215         -0.034170        0.000000        0.01824393        0.11479464        0.05126255        0.11852505
     216         -0.028802        0.000000        0.01363917        0.02703884        0.09394699        0.16405347
     217         -0.024876        0.000000        0.02345082        0.20442127        0.01398523        0.07334437
     218         -0.018231        0.000000        0.01796399        0.03778406        0.21736922        0.04216786
     219         -0.016718        0.000000        0.01695948        0.10794283        0.01756171        0.18530014
     220         -0.013309        0.000000        0.02144767        0.02309854        0.25642523        0.02162911
     221         -0.012009        0.000000        0.01843448        0.03710908        0.22375141        0.04113857
     222         -0.009114        0.000000        0.01869492        0.20260338        0.02465278        0.08161098
     223         -0.006503        0.000000        0.01796354        0.07840648        0.00967065        0.22385706
     224         -0.003026        0.000000        0.01335181        0.17441442        0.01098061        0.12338680
     225          0.004681        0.000000        0.01703419        0.02110175        0.29804059        0.00365632
     226          0.081561        0.000000        0.00002484        0.00041857        0.00093614        0.00043642
     227          0.092502        0.000000        0.00017198        0.00079461        0.00035569        0.00136330
     228          0.098477        0.000000        0.00011733        0.00091532        0.00112421        0.00061137
     229          0.113989        0.000000        0.00005250        0.00115411        0.00037493        0.00050389
     230          0.116169        0.000000        0.00021464        0.00076557        0.00260782        0.00127589
     231          0.120619        0.000000        0.00009355        0.00099181        0.00098540        0.00071917
     232          0.124630        0.000000        0.00000405        0.00004335        0.00007628        0.00001697
     233          0.127792        0.000000        0.00013646        0.00082233        0.00142560        0.00081891
     234          0.188723        0.000000        0.00001437        0.00034286        0.00019033        0.00005310
     235          0.195890        0.000000        0.00001666        0.00028246        0.00023497        0.00016517
     236          0.253134        0.000000        0.00000861        0.00004492        0.00023774        0.00003429
     237          0.279035        0.000000        0.00006576        0.00060415        0.00196887        0.00061989
     238          0.289793        0.000000        0.00016472        0.00321794        0.00143115        0.00118304
     239          0.299180        0.000000        0.00014717        0.00185631        0.00373583        0.00011964
     240          0.301278        0.000000        0.00164161        0.00342394        0.00129136        0.00501028
     241          0.301542        0.000000        0.00130985        0.00564220        0.00149908        0.00387963
     242          0.306590        0.000000        0.00035144        0.00236624        0.00200079        0.00274028
     243          0.306795        0.000000        0.00034802        0.00260068        0.00194190        0.00257472
     244          0.307428        0.000000        0.00037137        0.00414107        0.00047950        0.00423485
     245          0.309590        0.000000        0.00074992        0.00784400        0.00022627        0.00667591
     246          0.311279        0.000000        0.00057100        0.00616809        0.00136644        0.00411694
     247          0.315892        0.000000        0.00024651        0.00410628        0.00169385        0.00173543
     248          0.316396        0.000000        0.00069004        0.01692955        0.00351470        0.00317944
     249          0.329013        0.000000        0.00053652        0.00035585        0.00934173        0.00098963
     250          0.343144        0.000000        0.00123490        0.01043810        0.00209504        0.00676327
     251          0.349354        0.000000        0.00085860        0.00952539        0.00302215        0.00428080
     252          0.351283        0.000000        0.00081121        0.00769051        0.00073056        0.00789953
     253          0.365270        0.000000        0.00112625        0.01589836        0.00781152        0.00326808
     254          0.444263        0.000000        0.00001311        0.00012120        0.00008241        0.00005129
     255          0.446964        0.000000        0.00004191        0.00008960        0.00036533        0.00009791
     256          0.450005        0.000000        0.00001286        0.00007138        0.00022894        0.00017978
     257          0.457250        0.000000        0.00001617        0.00006410        0.00030750        0.00016589
     258          0.458345        0.000000        0.00001286        0.00014486        0.00014085        0.00010726
     259          0.464776        0.000000        0.00004128        0.00045197        0.00012014        0.00073162