# Projected DOS for atomic kind Pb at iteration step i = 0, E(Fermi) =    -0.179239 a.u.
#     MO Eigenvalue [a.u.]      Occupation                 s                py                pz                px
       1         -0.970724        1.000000        0.00000004        0.00000050        0.00000078        0.00000064
       2         -0.966869        1.000000        0.00000000        0.00000015        0.00000001        0.00000003
       3         -0.956546        1.000000        0.00000005        0.00000116        0.00000126        0.00000053
       4         -0.933962        1.000000        0.00000092        0.00000808        0.00001253        0.00000772
       5         -0.931311        1.000000        0.00000137        0.00001392        0.00001477        0.00000768
       6         -0.927841        1.000000        0.00000084        0.00000959        0.00000860        0.00000557
       7         -0.917296        1.000000        0.00000283        0.00001847        0.00004883        0.00000959
       8         -0.706184        1.000000        0.00000101        0.00000340        0.00000052        0.00000019
       9         -0.704722        1.000000        0.00000992        0.00002281        0.00002583        0.00000699
      10         -0.692533        1.000000        0.00001964        0.00001762        0.00001010        0.00001205
      11         -0.676647        1.000000        0.00012308        0.00010164        0.00008091        0.00005046
      12         -0.675489        1.000000        0.00003680        0.00002705        0.00004358        0.00001626
      13         -0.672480        1.000000        0.00009348        0.00006796        0.00005649        0.00001725
      14         -0.665403        1.000000        0.00009043        0.00004406        0.00010755        0.00003667
      15         -0.620433        1.000000        0.00647667        0.00069471        0.00012421        0.00579304
      16         -0.607707        1.000000        0.05554354        0.00691766        0.00877189        0.01232046
      17         -0.599314        1.000000        0.08501998        0.00495694        0.00168892        0.00129355
      18         -0.599119        1.000000        0.08086035        0.00760557        0.00714325        0.00366752
      19         -0.597713        1.000000        0.01342749        0.00119451        0.00076069        0.00027620
      20         -0.597339        1.000000        0.03826239        0.00395170        0.00123829        0.00085005
      21         -0.595089        1.000000        0.07861443        0.01110607        0.00647924        0.00238108
      22         -0.592512        1.000000        0.09362983        0.01838079        0.00197181        0.00106499
      23         -0.588537        1.000000        0.04706683        0.00350707        0.01159653        0.00120878
      24         -0.585986        1.000000        0.03437839        0.00827190        0.00261509        0.00167720
      25         -0.584591        1.000000        0.01924937        0.00530249        0.01030054        0.00364691
      26         -0.583834        1.000000        0.01573391        0.00418880        0.00865548        0.00198947
      27         -0.582519        1.000000        0.00635144        0.00184038        0.00154266        0.00247210
      28         -0.581830        1.000000        0.02675883        0.00617829        0.01979416        0.00345691
      29         -0.581307        1.000000        0.01179706        0.00326513        0.00259914        0.00070570
      30         -0.579355        1.000000        0.03749736        0.01027481        0.01027673        0.00685689
      31         -0.578959        1.000000        0.04009343        0.01330070        0.00660815        0.00622156
      32         -0.578442        1.000000        0.05036322        0.00361115        0.01727718        0.00352723
      33         -0.576895        1.000000        0.01791811        0.00687500        0.00746133        0.01173653
      34         -0.576237        1.000000        0.02459764        0.01149660        0.01844576        0.00286706
      35         -0.574381        1.000000        0.03882027        0.00938320        0.01357508        0.01351889
      36         -0.573250        1.000000        0.00236114        0.00035272        0.00229410        0.00854872
      37         -0.572810        1.000000        0.01361756        0.00518703        0.00888181        0.01765362
      38         -0.571274        1.000000        0.01946985        0.00490005        0.00147466        0.00085568
      39         -0.570386        1.000000        0.00577650        0.00533740        0.01564941        0.00953369
      40         -0.570255        1.000000        0.02735674        0.01364833        0.00091434        0.00327296
      41         -0.569886        1.000000        0.00214538        0.00424969        0.00354514        0.02821127
      42         -0.567319        1.000000        0.00095985        0.00104271        0.01918475        0.01377038
      43         -0.566962        1.000000        0.02498390        0.00145468        0.00469833        0.02415314
      44         -0.565151        1.000000        0.00098218        0.00557529        0.00974965        0.00658834
      45         -0.564656        1.000000        0.00185418        0.00904224        0.00394761        0.00427115
      46         -0.564308        1.000000        0.01507478        0.00331618        0.00302329        0.01478726
      47         -0.563862        1.000000        0.00070787        0.00080843        0.01431456        0.00656323
      48         -0.561692        1.000000        0.02731780        0.00205391        0.00574626        0.00696651
      49         -0.561418        1.000000        0.00386577        0.02003439        0.00064283        0.00313765
      50         -0.560542        1.000000        0.00243778        0.01156564        0.00185574        0.00028660
      51         -0.560243        1.000000        0.00108336        0.01852248        0.00024016        0.00312238
      52         -0.558313        1.000000        0.00619034        0.00734621        0.00130059        0.00662705
      53         -0.557842        1.000000        0.02042515        0.00151032        0.00264518        0.01693652
      54         -0.557250        1.000000        0.00081588        0.00057378        0.01092013        0.01710277
      55         -0.554914        1.000000        0.00222194        0.00096338        0.00196717        0.00337328
      56         -0.552868        1.000000        0.00000923        0.00005272        0.00000796        0.00000200
      57         -0.549951        1.000000        0.00400726        0.00071513        0.01033584        0.00149771
      58         -0.549569        1.000000        0.00506109        0.00044284        0.00274243        0.00186290
      59         -0.548627        1.000000        0.00202284        0.00022755        0.00356183        0.00148456
      60         -0.546943        1.000000        0.00207781        0.00050584        0.00312855        0.00028843
      61         -0.546106        1.000000        0.00216496        0.00032420        0.00128160        0.00292916
      62         -0.540929        1.000000        0.00668861        0.00013281        0.00490687        0.00038911
      63         -0.537765        1.000000        0.00319781        0.00304951        0.00010167        0.00040458
      64         -0.526560        1.000000        0.00094146        0.00141277        0.00176866        0.00006188
      65         -0.491930        1.000000        0.00028511        0.00002520        0.00000046        0.00000018
      66         -0.490910        1.000000        0.00066978        0.00000728        0.00003297        0.00002501
      67         -0.476926        1.000000        0.00545685        0.00002433        0.00002673        0.00000483
      68         -0.464327        1.000000        0.67768742        0.00110179        0.00239145        0.00196581
      69         -0.459663        1.000000        0.64895938        0.00071984        0.00148788        0.00102610
      70         -0.458164        1.000000        0.61651002        0.00118951        0.00109360        0.00070823
      71         -0.456938        1.000000        0.26320139        0.00022851        0.00036231        0.00039566
      72         -0.455712        1.000000        0.20309324        0.00016288        0.00005241        0.00026526
      73         -0.454198        1.000000        0.70464684        0.00093762        0.00051162        0.00139761
      74         -0.453497        1.000000        0.28973882        0.00006711        0.00008906        0.00037026
      75         -0.452984        1.000000        0.38481024        0.00036500        0.00012241        0.00026908
      76         -0.452469        1.000000        0.61859604        0.00044994        0.00053512        0.00077581
      77         -0.447041        1.000000        0.72349811        0.00057459        0.00054012        0.00016420
      78         -0.444918        1.000000        0.47556159        0.00023505        0.00005040        0.00023811
      79         -0.443616        1.000000        0.29288970        0.00018282        0.00008258        0.00006290
      80         -0.419484        1.000000        0.00001573        0.00000370        0.00000295        0.00001368
      81         -0.416723        1.000000        0.00003473        0.00000676        0.00000420        0.00000436
      82         -0.415067        1.000000        0.00053308        0.00005884        0.00014796        0.00011885
      83         -0.413910        1.000000        0.00001563        0.00000760        0.00003620        0.00001392
      84         -0.406930        1.000000        0.00020752        0.00005654        0.00009457        0.00005371
      85         -0.406026        1.000000        0.00161727        0.00010475        0.00014431        0.00005704
      86         -0.394568        1.000000        0.00034395        0.00023850        0.00005280        0.00009522
      87         -0.393381        1.000000        0.00038783        0.00018019        0.00013208        0.00008974
      88         -0.391995        1.000000        0.00010346        0.00003088        0.00005625        0.00007652
      89         -0.391078        1.000000        0.00009292        0.00005775        0.00013343        0.00009643
      90         -0.390736        1.000000        0.00012697        0.00000836        0.00004813        0.00000553
      91         -0.386024        1.000000        0.00003077        0.00013251        0.00011324        0.00008633
      92         -0.384185        1.000000        0.00010600        0.00011102        0.00002357        0.00003605
      93         -0.381740        1.000000        0.00017770        0.00020474        0.00016878        0.00018202
      94         -0.300193        1.000000        0.00093137        0.00353254        0.00105804        0.01830640
      95         -0.282245        1.000000        0.00513119        0.08958260        0.11579499        0.05620467
      96         -0.281419        1.000000        0.00554123        0.03412723        0.11769761        0.05142726
      97         -0.278490        1.000000        0.00775392        0.06547910        0.18650942        0.03274841
      98         -0.275273        1.000000        0.01443979        0.18215718        0.03739827        0.05984687
      99         -0.271917        1.000000        0.00267602        0.02889125        0.05668024        0.19961044
     100         -0.271445        1.000000        0.00963971        0.04553693        0.07140683        0.11393626
     101         -0.269033        1.000000        0.00251164        0.09639607        0.05478939        0.08703972
     102         -0.266647        1.000000        0.00768120        0.11692803        0.04737220        0.05923269
     103         -0.265507        1.000000        0.00080446        0.09986458        0.02200019        0.15006976
     104         -0.264503        1.000000        0.00058677        0.01781910        0.11292036        0.11704159
     105         -0.257092        1.000000        0.00805145        0.06872620        0.10735040        0.08310680
     106         -0.255943        1.000000        0.00725430        0.11628040        0.07102073        0.05216967
     107         -0.253932        1.000000        0.00203913        0.04365442        0.14855473        0.05414492
     108         -0.250399        1.000000        0.00334013        0.07644971        0.03979859        0.10835662
     109         -0.247015        1.000000        0.00343545        0.07344170        0.02759414        0.10682006
     110         -0.245401        1.000000        0.00142056        0.11182608        0.05701385        0.04787349
     111         -0.244913        1.000000        0.00818305        0.03893050        0.07718148        0.07045993
     112         -0.243112        1.000000        0.00626664        0.06629326        0.08651470        0.07312647
     113         -0.240869        1.000000        0.00377319        0.05422759        0.11733573        0.02191039
     114         -0.239118        1.000000        0.00347509        0.03692796        0.09256490        0.01162013
     115         -0.238414        1.000000        0.00280818        0.02476695        0.02815523        0.11870656
     116         -0.236497        1.000000        0.00203743        0.03205406        0.06686070        0.03776058
     117         -0.232565        1.000000        0.00683066        0.05417589        0.02370573        0.05370517
     118         -0.230704        1.000000        0.00761721        0.04022924        0.07025913        0.02461212
     119         -0.229339        1.000000        0.00583659        0.03245903        0.03351298        0.02140526
     120         -0.227632        1.000000        0.00712670        0.03853513        0.03217623        0.03651241
     121         -0.226537        1.000000        0.00281435        0.03704495        0.01255162        0.01194056
     122         -0.224573        1.000000        0.00830116        0.05155049        0.02418657        0.02904200
     123         -0.222382        1.000000        0.00592822        0.02538150        0.03274443        0.03005909
     124         -0.220203        1.000000        0.01438346        0.03587431        0.01451963        0.03067982
     125         -0.219664        1.000000        0.00492342        0.02038426        0.00915459        0.00374690
     126         -0.218710        1.000000        0.00558483        0.02067736        0.00783771        0.01811414
     127         -0.217959        1.000000        0.00331306        0.02219319        0.00740478        0.00440845
     128         -0.217092        1.000000        0.01520451        0.03274590        0.00867975        0.01227393
     129         -0.216593        1.000000        0.00691017        0.03700129        0.00569811        0.00452248
     130         -0.215193        1.000000        0.00291890        0.00604918        0.00211181        0.00606850
     131         -0.213401        1.000000        0.00250733        0.01357191        0.00083664        0.00340506
     132         -0.212931        1.000000        0.00094777        0.00426955        0.00314044        0.00251128
     133         -0.211168        1.000000        0.00307857        0.00837824        0.00160093        0.00443311
     134         -0.210628        1.000000        0.00361269        0.00870234        0.00358625        0.00361195
     135         -0.210445        1.000000        0.00107047        0.00484258        0.00225381        0.00319235
     136         -0.209192        1.000000        0.00264317        0.00690537        0.00250608        0.00782471
     137         -0.207428        1.000000        0.00185966        0.00173661        0.00177894        0.00221698
     138         -0.206441        1.000000        0.00154365        0.00575440        0.00433212        0.00233548
     139         -0.206131        1.000000        0.00177929        0.00181411        0.00161691        0.00333596
     140         -0.205624        1.000000        0.00235889        0.00526652        0.00270944        0.00280579
     141         -0.204600        1.000000        0.00510911        0.00767428        0.00415716        0.00377673
     142         -0.203948        1.000000        0.00150519        0.00300454        0.00173747        0.00100683
     143         -0.203178        1.000000        0.00440408        0.00411192        0.00243603        0.00306833
     144         -0.202402        1.000000        0.00156435        0.00195652        0.00128660        0.00083573
     145         -0.201309        1.000000        0.00425227        0.00434770        0.00098419        0.00162433
     146         -0.200619        1.000000        0.00123531        0.00074226        0.00037668        0.00042210
     147         -0.200351        1.000000        0.00346341        0.00340741        0.00092818        0.00074504
     148         -0.199795        1.000000        0.00278257        0.00126270        0.00086592        0.00119144
     149         -0.198866        1.000000        0.00203391        0.00155779        0.00078969        0.00141283
     150         -0.198341        1.000000        0.00184005        0.00091222        0.00042544        0.00124990
     151         -0.197458        1.000000        0.00251534        0.00123693        0.00133476        0.00058953
     152         -0.196473        1.000000        0.00621715        0.00476962        0.00142367        0.00017190
     153         -0.196403        1.000000        0.00243793        0.00117007        0.00100349        0.00083975
     154         -0.195968        1.000000        0.00860425        0.00378816        0.00290480        0.00162089
     155         -0.195328        1.000000        0.00266082        0.00271092        0.00084092        0.00040087
     156         -0.194439        1.000000        0.00771631        0.00162039        0.00236716        0.00186602
     157         -0.193762        1.000000        0.00132853        0.00114602        0.00083469        0.00074072
     158         -0.193653        1.000000        0.00234003        0.00038705        0.00088456        0.00036085
     159         -0.192750        1.000000        0.00657032        0.00035672        0.00215340        0.00132973
     160         -0.192354        1.000000        0.00668199        0.00039765        0.00120173        0.00194373
     161         -0.192022        1.000000        0.00393150        0.00190960        0.00094039        0.00098503
     162         -0.191628        1.000000        0.00800411        0.00050882        0.00320400        0.00103374
     163         -0.190713        1.000000        0.00616756        0.00172956        0.00256179        0.00194973
     164         -0.189997        1.000000        0.00552087        0.00060494        0.00115921        0.00097042
     165         -0.189715        1.000000        0.00744377        0.00204879        0.00218786        0.00131032
     166         -0.189538        1.000000        0.00836707        0.00335414        0.00113077        0.00079341
     167         -0.189022        1.000000        0.00963457        0.00138483        0.00155000        0.00150640
     168         -0.188777        1.000000        0.00375343        0.00224592        0.00079845        0.00193897
     169         -0.188254        1.000000        0.00360992        0.00082416        0.00112210        0.00024931
     170         -0.188016        1.000000        0.00453953        0.00059123        0.00015321        0.00052294
     171         -0.187724        1.000000        0.00393685        0.00086953        0.00040120        0.00084552
     172         -0.187505        1.000000        0.00635311        0.00143178        0.00145227        0.00110456
     173         -0.186968        1.000000        0.02018823        0.00157754        0.00203767        0.00302484
     174         -0.186248        1.000000        0.00578141        0.00167773        0.00149764        0.00063545
     175         -0.185454        1.000000        0.00276924        0.00082713        0.00053472        0.00082706
     176         -0.185158        1.000000        0.01623223        0.00243143        0.00124014        0.00248864
     177         -0.184965        1.000000        0.01168924        0.00170827        0.00080161        0.00121749
     178         -0.184667        1.000000        0.00733617        0.00172414        0.00055532        0.00035062
     179         -0.184367        1.000000        0.00532723        0.00065430        0.00098692        0.00068231
     180         -0.184028        1.000000        0.00306613        0.00154439        0.00031088        0.00035603
     181         -0.183502        1.000000        0.00849507        0.00054324        0.00088515        0.00093833
     182         -0.183328        1.000000        0.00935124        0.00036886        0.00112960        0.00104134
     183         -0.183012        1.000000        0.00599426        0.00169825        0.00116843        0.00068900
     184         -0.182897        1.000000        0.01417869        0.00094633        0.00123384        0.00104554
     185         -0.182321        1.000000        0.00662859        0.00182611        0.00051951        0.00033985
     186         -0.182079        1.000000        0.01232515        0.00044901        0.00026876        0.00047023
     187         -0.181944        1.000000        0.00943014        0.00157400        0.00067009        0.00045734
     188         -0.181638        1.000000        0.00918371        0.00073751        0.00059720        0.00081490
     189         -0.181376        1.000000        0.01614384        0.00093759        0.00026889        0.00132279
     190         -0.181079        1.000000        0.01193403        0.00070088        0.00054730        0.00100028
     191         -0.180503        1.000000        0.03614336        0.00357795        0.00143348        0.00223562
     192         -0.180445        1.000000        0.00374934        0.00065574        0.00056230        0.00024585
     193         -0.179982        1.000000        0.00448866        0.00040797        0.00024018        0.00029188
     194         -0.179565        1.000000        0.00448234        0.00035443        0.00039977        0.00043782
     195         -0.179239        1.000000        0.01354630        0.00130450        0.00067039        0.00061837
     196         -0.179134        0.000000        0.00621205        0.00022712        0.00045611        0.00026769
     197         -0.178669        0.000000        0.03338280        0.00225019        0.00231916        0.00286586
     198         -0.177939        0.000000        0.04645330        0.00123920        0.00211550        0.00327532
     199         -0.177882        0.000000        0.05674622        0.00091529        0.00483002        0.00134359
     200         -0.175609        0.000000        0.08738507        0.00326513        0.00180201        0.00281759
     201         -0.171294        0.000000        0.14299797        0.00094851        0.00192793        0.00179400
     202         -0.076117        0.000000        0.00366519        0.70747086        0.02608870        0.02078305
     203         -0.069531        0.000000        0.00881113        0.19079785        0.42455957        0.12611938
     204         -0.062626        0.000000        0.00890818        0.16969740        0.39057725        0.16215166
     205         -0.057258        0.000000        0.00194677        0.38526399        0.16921760        0.17285240
     206         -0.053836        0.000000        0.00236454        0.16692157        0.01966761        0.52696396
     207         -0.050668        0.000000        0.00555675        0.53170669        0.04634120        0.11956618
     208         -0.050116        0.000000        0.00586444        0.10212742        0.44607514        0.15994512
     209         -0.047679        0.000000        0.00249415        0.11882143        0.20215434        0.37921841
     210         -0.043420        0.000000        0.00781834        0.04250561        0.53162730        0.11536604
     211         -0.042832        0.000000        0.00396096        0.08144535        0.10782723        0.52383583
     212         -0.038999        0.000000        0.00692508        0.33120190        0.16386628        0.20213441
     213         -0.038105        0.000000        0.00521972        0.20441114        0.10786928        0.38063624
     214         -0.035140        0.000000        0.00305116        0.23842260        0.05186664        0.40280383
     215         -0.034170        0.000000        0.00094029        0.25181074        0.18281672        0.26102833
     216         -0.028802        0.000000        0.00186681        0.04202196        0.33106634        0.32603045
     217         -0.024876        0.000000        0.00198278        0.63555499        0.03287630        0.01305871
     218         -0.018231        0.000000        0.00119534        0.07457186        0.43291887        0.17571152
     219         -0.016718        0.000000        0.00013519        0.22112233        0.02935286        0.42101408
     220         -0.013309        0.000000        0.00047456        0.03752967        0.62068745        0.01822416
     221         -0.012009        0.000000        0.00023018        0.04689049        0.49824797        0.13377596
     222         -0.009114        0.000000        0.00019375        0.48801337        0.05935081        0.12432239
     223         -0.006503        0.000000        0.00013036        0.05097169        0.03861240        0.57978706
     224         -0.003026        0.000000        0.00093936        0.43266115        0.03791025        0.20580692
     225          0.004681        0.000000        0.00010637        0.03145239        0.60821704        0.02016314
     226          0.081561        0.000000        0.00000185        0.00013340        0.00001838        0.00006465
     227          0.092502        0.000000        0.00000219        0.00002000        0.00010373        0.00012446
     228          0.098477        0.000000        0.00000206        0.00001199        0.00003715        0.00000173
     229          0.113989        0.000000        0.00000136        0.00003149        0.00012760        0.00008476
     230          0.116169        0.000000        0.00000197        0.00013943        0.00004543        0.00003260
     231          0.120619        0.000000        0.00000069        0.00003979        0.00004644        0.00000777
     232          0.124630        0.000000        0.00000040        0.00001287        0.00000093        0.00000031
     233          0.127792        0.000000        0.00000032        0.00007650        0.00005747        0.00000849
     234          0.188723        0.000000        0.00000112        0.00000291        0.00000036        0.00002537
     235          0.195890        0.000000        0.00000242        0.00000733        0.00001997        0.00000217
     236          0.253134        0.000000        0.00000051        0.00000195        0.00000558        0.00000645
     237          0.279035        0.000000        0.00000489        0.00000361        0.00000039        0.00007133
     238          0.289793        0.000000        0.00000306        0.00013116        0.00006846        0.00000379
     239          0.299180        0.000000        0.00000701        0.00000796        0.00000689        0.00011967
     240          0.301278        0.000000        0.00000258        0.00009557        0.00002610        0.00002209
     241          0.301542        0.000000        0.00000255        0.00001020        0.00003997        0.00002836
     242          0.306590        0.000000        0.00000692        0.00009267        0.00001156        0.00005446
     243          0.306795        0.000000        0.00000867        0.00007241        0.00000801        0.00005335
     244          0.307428        0.000000        0.00000279        0.00005730        0.00003696        0.00000768
     245          0.309590        0.000000        0.00000053        0.00006301        0.00005963        0.00002767
     246          0.311279        0.000000        0.00000535        0.00002857        0.00008812        0.00005503
     247          0.315892        0.000000        0.00001047        0.00004764        0.00004871        0.00000642
     248          0.316396        0.000000        0.00000367        0.00007834        0.00003553        0.00000466
     249          0.329013        0.000000        0.00000044        0.00000632        0.00003991        0.00001327
     250          0.343144        0.000000        0.00000988        0.00011100        0.00008930        0.00001130
     251          0.349354        0.000000        0.00000310        0.00000110        0.00009411        0.00003766
     252          0.351283        0.000000        0.00000309        0.00003762        0.00006599        0.00000607
     253          0.365270        0.000000        0.00000420        0.00003096        0.00000658        0.00001641
     254          0.444263        0.000000        0.00000034        0.00000054        0.00000133        0.00000337
     255          0.446964        0.000000        0.00000004        0.00000181        0.00000039        0.00000751
     256          0.450005        0.000000        0.00000025        0.00000713        0.00001020        0.00001313
     257          0.457250        0.000000        0.00000086        0.00001849        0.00000391        0.00000348
     258          0.458345        0.000000        0.00000333        0.00000731        0.00000562        0.00001941
     259          0.464776        0.000000        0.00000168        0.00001184        0.00002092        0.00000784