# Projected DOS for atomic kind N at iteration step i = 0, E(Fermi) =    -0.178893 a.u.
#     MO Eigenvalue [a.u.]      Occupation                 s                py                pz                px
       1         -0.970675        1.000000        0.62166240        0.00002202        0.00021217        0.00008201
       2         -0.966823        1.000000        0.62210752        0.00107236        0.00024685        0.00003990
       3         -0.956495        1.000000        0.61918888        0.00007797        0.00024186        0.00021224
       4         -0.933948        1.000000        0.61148986        0.00001219        0.00025099        0.00000355
       5         -0.931262        1.000000        0.61172299        0.00010485        0.00003236        0.00005854
       6         -0.927813        1.000000        0.61202203        0.00000953        0.00013547        0.00000183
       7         -0.917248        1.000000        0.60974807        0.00001605        0.00000060        0.00003451
       8         -0.706127        1.000000        0.01780261        0.00260435        0.01696066        0.19147839
       9         -0.704670        1.000000        0.01494044        0.02892026        0.00422443        0.18993963
      10         -0.692458        1.000000        0.01795646        0.02347943        0.03656430        0.14648761
      11         -0.676611        1.000000        0.01680347        0.00324021        0.07840205        0.11024090
      12         -0.675439        1.000000        0.01655843        0.00006895        0.03016234        0.16515826
      13         -0.672420        1.000000        0.01668463        0.00064938        0.07829492        0.11795479
      14         -0.665353        1.000000        0.01768162        0.00000922        0.00688528        0.18220925
      15         -0.617420        1.000000        0.00007646        0.00032059        0.00923426        0.00142799
      16         -0.607882        1.000000        0.00016947        0.00405202        0.00121952        0.00022955
      17         -0.599383        1.000000        0.00039012        0.01881875        0.10280360        0.01179077
      18         -0.598820        1.000000        0.00009694        0.02218210        0.01328577        0.00504158
      19         -0.597670        1.000000        0.00007720        0.45578804        0.02282741        0.06893549
      20         -0.597208        1.000000        0.00014785        0.08706697        0.30775201        0.04281905
      21         -0.595023        1.000000        0.00042179        0.01526724        0.01186652        0.01009516
      22         -0.592386        1.000000        0.00065097        0.00727793        0.00671671        0.00498626
      23         -0.588055        1.000000        0.00053331        0.08582333        0.02580824        0.00590857
      24         -0.585693        1.000000        0.00054639        0.14850315        0.12001631        0.00161518
      25         -0.584085        1.000000        0.00028321        0.07484987        0.03648716        0.00498374
      26         -0.583382        1.000000        0.00086448        0.17787780        0.11020323        0.00766241
      27         -0.581526        1.000000        0.00068800        0.01649008        0.38066737        0.00407599
      28         -0.581129        1.000000        0.00054187        0.06243362        0.10709595        0.00839817
      29         -0.579663        1.000000        0.00068255        0.07047349        0.02265297        0.00322845
      30         -0.578870        1.000000        0.00073304        0.07662792        0.04161124        0.04550657
      31         -0.577928        1.000000        0.00033928        0.03660034        0.00883026        0.00556442
      32         -0.577251        1.000000        0.00006188        0.01326847        0.00524980        0.00412309
      33         -0.576889        1.000000        0.00046121        0.01274367        0.02882377        0.00939715
      34         -0.576179        1.000000        0.00015569        0.00582683        0.02013914        0.00871027
      35         -0.573492        1.000000        0.00155373        0.18102944        0.05077772        0.00433449
      36         -0.572956        1.000000        0.00055870        0.05653126        0.02477889        0.00405640
      37         -0.572006        1.000000        0.00044280        0.01029899        0.10522377        0.02223732
      38         -0.570954        1.000000        0.00102914        0.17817732        0.04413326        0.01490908
      39         -0.570739        1.000000        0.00076289        0.03625194        0.21916569        0.10679516
      40         -0.570476        1.000000        0.00042245        0.05183478        0.02973897        0.00517830
      41         -0.570275        1.000000        0.00017641        0.02100182        0.01631165        0.00779074
      42         -0.567653        1.000000        0.00025058        0.02190979        0.01314171        0.01165645
      43         -0.565936        1.000000        0.00004628        0.00498424        0.00123697        0.00057391
      44         -0.565674        1.000000        0.00001411        0.00512869        0.00096013        0.00007900
      45         -0.564585        1.000000        0.00000716        0.00126497        0.00041224        0.00126774
      46         -0.563042        1.000000        0.00001187        0.00057657        0.00024605        0.00026464
      47         -0.561244        1.000000        0.00003989        0.00157688        0.00189274        0.00128795
      48         -0.560819        1.000000        0.00001868        0.00968381        0.02677516        0.00188481
      49         -0.560798        1.000000        0.00001889        0.00430736        0.01381396        0.00116370
      50         -0.559610        1.000000        0.00004778        0.00695730        0.00287894        0.00264777
      51         -0.559475        1.000000        0.00012898        0.01155177        0.00896711        0.00664873
      52         -0.558784        1.000000        0.00011528        0.01395444        0.01773385        0.01107130
      53         -0.555813        1.000000        0.00021431        0.02974544        0.11724156        0.05894138
      54         -0.555118        1.000000        0.00021108        0.02404293        0.09103842        0.05597972
      55         -0.554244        1.000000        0.00094728        0.00068453        0.11799095        0.07002109
      56         -0.552318        1.000000        0.00000104        0.00000901        0.00000489        0.00000538
      57         -0.549558        1.000000        0.00006128        0.48305731        0.01664055        0.00562927
      58         -0.549149        1.000000        0.00004794        0.03287323        0.00064932        0.00663952
      59         -0.548550        1.000000        0.00019090        0.44918684        0.00507127        0.01933525
      60         -0.546562        1.000000        0.00037781        0.01942316        0.31266787        0.17529370
      61         -0.546174        1.000000        0.00004816        0.03720458        0.38491970        0.08666125
      62         -0.540611        1.000000        0.00006259        0.46590140        0.00851634        0.01278193
      63         -0.537476        1.000000        0.00001692        0.00272412        0.40376808        0.01977826
      64         -0.526398        1.000000        0.00034234        0.48926796        0.00390066        0.00093253
      65         -0.491869        1.000000        0.00741149        0.00015774        0.04620190        0.38453051
      66         -0.490862        1.000000        0.00927604        0.05517751        0.00047999        0.36404237
      67         -0.476858        1.000000        0.00707414        0.05540868        0.09958548        0.27794982
      68         -0.464332        1.000000        0.00002975        0.00040884        0.00086770        0.00106290
      69         -0.459572        1.000000        0.00099518        0.00070076        0.01320874        0.03103898
      70         -0.458020        1.000000        0.00180452        0.00126244        0.02267943        0.05363274
      71         -0.456843        1.000000        0.00569465        0.00476006        0.11261320        0.17046868
      72         -0.455610        1.000000        0.00647232        0.00167113        0.07503735        0.22898741
      73         -0.454048        1.000000        0.00067618        0.00062483        0.00892685        0.01829029
      74         -0.453416        1.000000        0.00503490        0.00107739        0.07731600        0.18064520
      75         -0.452902        1.000000        0.00485161        0.00070276        0.08493355        0.14297678
      76         -0.452191        1.000000        0.00096096        0.00071254        0.01827093        0.03042798
      77         -0.446916        1.000000        0.00024685        0.00014032        0.00788131        0.01641388
      78         -0.444796        1.000000        0.00408352        0.00015312        0.01033310        0.18626780
      79         -0.443514        1.000000        0.00430711        0.00040796        0.01444044        0.23302010
      80         -0.419417        1.000000        0.00000001        0.00641772        0.02350720        0.00327249
      81         -0.416664        1.000000        0.00019213        0.03751459        0.00680305        0.00045511
      82         -0.415023        1.000000        0.00005028        0.01188777        0.02196853        0.00247227
      83         -0.413852        1.000000        0.00000129        0.01710419        0.01589328        0.00039968
      84         -0.406841        1.000000        0.00005331        0.00008792        0.02813431        0.00917852
      85         -0.405956        1.000000        0.00002406        0.02896730        0.00042052        0.00537636
      86         -0.394521        1.000000        0.00001760        0.02104812        0.01318420        0.00356567
      87         -0.393338        1.000000        0.00000282        0.01537114        0.01037042        0.01073578
      88         -0.391958        1.000000        0.00000259        0.01252934        0.02448791        0.00435837
      89         -0.391017        1.000000        0.00000048        0.02384439        0.01069378        0.00157739
      90         -0.390661        1.000000        0.00001660        0.00246765        0.02598409        0.01228394
      91         -0.385958        1.000000        0.00000033        0.03563562        0.00100099        0.00145647
      92         -0.384122        1.000000        0.00000882        0.02527375        0.01593474        0.00082001
      93         -0.381681        1.000000        0.00000644        0.01852713        0.02027622        0.00067771
      94         -0.295167        1.000000        0.00005497        0.00003677        0.00016157        0.00006126
      95         -0.282102        1.000000        0.00009261        0.00004950        0.00007430        0.00007681
      96         -0.281378        1.000000        0.00006505        0.00015901        0.00002753        0.00005064
      97         -0.278456        1.000000        0.00003282        0.00003825        0.00027366        0.00006770
      98         -0.275210        1.000000        0.00008318        0.00144616        0.00013489        0.00014208
      99         -0.272227        1.000000        0.00020337        0.00051638        0.00028987        0.00014041
     100         -0.271140        1.000000        0.00028066        0.00016903        0.00047015        0.00004857
     101         -0.268634        1.000000        0.00008678        0.00028833        0.00006163        0.00010020
     102         -0.266516        1.000000        0.00017780        0.00037501        0.00037839        0.00012920
     103         -0.264833        1.000000        0.00048283        0.00135328        0.00018657        0.00014325
     104         -0.264127        1.000000        0.00003008        0.00003332        0.00010274        0.00005302
     105         -0.256694        1.000000        0.00033964        0.00165108        0.00010505        0.00035672
     106         -0.255676        1.000000        0.00083076        0.00210785        0.00051873        0.00094831
     107         -0.253214        1.000000        0.00020015        0.00038570        0.00034151        0.00034717
     108         -0.250336        1.000000        0.00042730        0.00052302        0.00057688        0.00023635
     109         -0.246846        1.000000        0.00044111        0.00010690        0.00033942        0.00029855
     110         -0.245043        1.000000        0.00012200        0.00011330        0.00015416        0.00018784
     111         -0.244708        1.000000        0.00010370        0.00022482        0.00042874        0.00026060
     112         -0.242724        1.000000        0.00009080        0.00028318        0.00012018        0.00011921
     113         -0.240617        1.000000        0.00030957        0.00053940        0.00034283        0.00029940
     114         -0.238517        1.000000        0.00101567        0.00090921        0.00054894        0.00082672
     115         -0.237573        1.000000        0.00224321        0.00422445        0.00031649        0.00251027
     116         -0.235728        1.000000        0.00276589        0.00325824        0.00027952        0.00232183
     117         -0.231895        1.000000        0.00260219        0.00387779        0.00015706        0.00174132
     118         -0.230173        1.000000        0.00158600        0.00112223        0.00100758        0.00043873
     119         -0.229060        1.000000        0.00113818        0.00088057        0.00083551        0.00082560
     120         -0.227047        1.000000        0.00137178        0.00069075        0.00063181        0.00206627
     121         -0.226065        1.000000        0.00110292        0.00075185        0.00089456        0.00202446
     122         -0.223811        1.000000        0.00143309        0.00223120        0.00037210        0.00131142
     123         -0.221704        1.000000        0.00057157        0.00056447        0.00060232        0.00231735
     124         -0.220306        1.000000        0.00050371        0.00243448        0.00063331        0.00046486
     125         -0.219647        1.000000        0.00021145        0.00211345        0.00111644        0.00048076
     126         -0.218361        1.000000        0.00035927        0.00223432        0.00020859        0.00055996
     127         -0.217812        1.000000        0.00059384        0.00093652        0.00165192        0.00031882
     128         -0.216321        1.000000        0.00026239        0.00175718        0.00065999        0.00030464
     129         -0.215904        1.000000        0.00305093        0.01221555        0.00058973        0.00253069
     130         -0.214290        1.000000        0.00098545        0.00419617        0.00009662        0.00069127
     131         -0.213141        1.000000        0.00092939        0.00253377        0.00083056        0.00089330
     132         -0.211928        1.000000        0.00024895        0.00271796        0.00024792        0.00071082
     133         -0.211038        1.000000        0.00050067        0.00071768        0.00052702        0.00023257
     134         -0.210362        1.000000        0.00019639        0.00151337        0.00021489        0.00059110
     135         -0.209921        1.000000        0.00091577        0.00425471        0.00061748        0.00071578
     136         -0.208866        1.000000        0.00145729        0.00028059        0.00038132        0.00129747
     137         -0.207449        1.000000        0.00058959        0.00125253        0.00038313        0.00051748
     138         -0.206086        1.000000        0.00107463        0.00174633        0.00011776        0.00118445
     139         -0.205760        1.000000        0.00034784        0.00029224        0.00013384        0.00026776
     140         -0.204945        1.000000        0.00143326        0.00277453        0.00090368        0.00169708
     141         -0.204335        1.000000        0.00025070        0.00149299        0.00060677        0.00009259
     142         -0.203997        1.000000        0.00094812        0.00398788        0.00072383        0.00098609
     143         -0.202580        1.000000        0.00072670        0.00064901        0.00010746        0.00016197
     144         -0.201481        1.000000        0.00028947        0.00055420        0.00202198        0.00054852
     145         -0.200600        1.000000        0.00068598        0.00064691        0.00067960        0.00030210
     146         -0.199535        1.000000        0.00109993        0.00165849        0.00147612        0.00045954
     147         -0.199003        1.000000        0.00042254        0.00377137        0.00231224        0.00140994
     148         -0.197898        1.000000        0.00050439        0.00473975        0.00160991        0.00014179
     149         -0.197143        1.000000        0.00046016        0.00059860        0.00066500        0.00034278
     150         -0.196723        1.000000        0.00041922        0.00163665        0.00282151        0.00037288
     151         -0.196564        1.000000        0.00022103        0.00625310        0.00056532        0.00093782
     152         -0.196041        1.000000        0.00018811        0.00044043        0.00043304        0.00018598
     153         -0.195819        1.000000        0.00016417        0.00064230        0.00036422        0.00004000
     154         -0.194696        1.000000        0.00034265        0.00019031        0.00030028        0.00084560
     155         -0.194036        1.000000        0.00015668        0.00023269        0.00125689        0.00016698
     156         -0.193829        1.000000        0.00032364        0.00088476        0.00029759        0.00006711
     157         -0.193188        1.000000        0.00011711        0.00109835        0.00092630        0.00007468
     158         -0.192619        1.000000        0.00014339        0.00056971        0.00027668        0.00024325
     159         -0.192027        1.000000        0.00030690        0.00035775        0.00031063        0.00033410
     160         -0.191753        1.000000        0.00059457        0.00070445        0.00070952        0.00100626
     161         -0.191256        1.000000        0.00035253        0.00032587        0.00058170        0.00014191
     162         -0.190544        1.000000        0.00073851        0.00073514        0.00022916        0.00036899
     163         -0.190081        1.000000        0.00038916        0.00077255        0.00109499        0.00053634
     164         -0.189863        1.000000        0.00018995        0.00084977        0.00007562        0.00024984
     165         -0.189236        1.000000        0.00019560        0.00177487        0.00068183        0.00018076
     166         -0.189024        1.000000        0.00040862        0.00079938        0.00155767        0.00022773
     167         -0.188797        1.000000        0.00038565        0.00061952        0.00028780        0.00061539
     168         -0.187587        1.000000        0.00012049        0.00005773        0.00002960        0.00031397
     169         -0.187380        1.000000        0.00015215        0.00004736        0.00026749        0.00017712
     170         -0.187009        1.000000        0.00061666        0.00149085        0.00040555        0.00053069
     171         -0.186808        1.000000        0.00013340        0.00040474        0.00010480        0.00015908
     172         -0.186333        1.000000        0.00025027        0.00048127        0.00072032        0.00028313
     173         -0.185608        1.000000        0.00021689        0.00100459        0.00024877        0.00020982
     174         -0.185307        1.000000        0.00005830        0.00008916        0.00042295        0.00013411
     175         -0.185094        1.000000        0.00025040        0.00070765        0.00006411        0.00003643
     176         -0.184585        1.000000        0.00015621        0.00057472        0.00016284        0.00006977
     177         -0.184379        1.000000        0.00033659        0.00099421        0.00111257        0.00056394
     178         -0.184233        1.000000        0.00011448        0.00053768        0.00010736        0.00007978
     179         -0.184024        1.000000        0.00025112        0.00064592        0.00013697        0.00015428
     180         -0.183465        1.000000        0.00006970        0.00032717        0.00101870        0.00011117
     181         -0.183128        1.000000        0.00015437        0.00027974        0.00005498        0.00026185
     182         -0.182912        1.000000        0.00027924        0.00044878        0.00132840        0.00003030
     183         -0.182624        1.000000        0.00007711        0.00049846        0.00011588        0.00031324
     184         -0.182402        1.000000        0.00007388        0.00061284        0.00062026        0.00021521
     185         -0.181892        1.000000        0.00005998        0.00014440        0.00011924        0.00020940
     186         -0.181618        1.000000        0.00015262        0.00027269        0.00059828        0.00019218
     187         -0.181476        1.000000        0.00006936        0.00032922        0.00041654        0.00003454
     188         -0.181370        1.000000        0.00002982        0.00053743        0.00013509        0.00019211
     189         -0.180926        1.000000        0.00015561        0.00016934        0.00021759        0.00029797
     190         -0.180791        1.000000        0.00011776        0.00036878        0.00029726        0.00022837
     191         -0.180109        1.000000        0.00003013        0.00032737        0.00005388        0.00021698
     192         -0.179366        1.000000        0.00004454        0.00024183        0.00007009        0.00004241
     193         -0.179104        1.000000        0.00003315        0.00000991        0.00002307        0.00007476
     194         -0.178893        1.000000        0.00001935        0.00007747        0.00022574        0.00001648
     195         -0.178564        0.000000        0.00004201        0.00023932        0.00004575        0.00005358
     196         -0.178450        0.000000        0.00000830        0.00001468        0.00005639        0.00002471
     197         -0.178036        0.000000        0.00005193        0.00002931        0.00001527        0.00003873
     198         -0.177364        0.000000        0.00004387        0.00016245        0.00004323        0.00005125
     199         -0.174911        0.000000        0.00001301        0.00018159        0.00003357        0.00003693
     200         -0.172481        0.000000        0.00004970        0.00002706        0.00007848        0.00005088
     201         -0.171587        0.000000        0.00001238        0.00001828        0.00009882        0.00001090
     202         -0.075875        0.000000        0.00008000        0.00022892        0.00012654        0.00010303
     203         -0.069329        0.000000        0.00001590        0.00002188        0.00002045        0.00002332
     204         -0.062426        0.000000        0.00016169        0.00011879        0.00003332        0.00008383
     205         -0.057099        0.000000        0.00003870        0.00008675        0.00003048        0.00005192
     206         -0.053567        0.000000        0.00008639        0.00008062        0.00000760        0.00002158
     207         -0.050563        0.000000        0.00001576        0.00003140        0.00004219        0.00010402
     208         -0.049804        0.000000        0.00006298        0.00011790        0.00001889        0.00002649
     209         -0.047444        0.000000        0.00003080        0.00006719        0.00002080        0.00003124
     210         -0.043289        0.000000        0.00004764        0.00002529        0.00005192        0.00002215
     211         -0.042573        0.000000        0.00000464        0.00002236        0.00000724        0.00000403
     212         -0.038870        0.000000        0.00002422        0.00004265        0.00001852        0.00001500
     213         -0.038024        0.000000        0.00003639        0.00003192        0.00005764        0.00000924
     214         -0.034774        0.000000        0.00004534        0.00007654        0.00005963        0.00000466
     215         -0.033991        0.000000        0.00007155        0.00016105        0.00001824        0.00004153
     216         -0.028540        0.000000        0.00003704        0.00002265        0.00003994        0.00003759
     217         -0.024711        0.000000        0.00022688        0.00002500        0.00027180        0.00014324
     218         -0.017902        0.000000        0.00005107        0.00006624        0.00002555        0.00001098
     219         -0.016525        0.000000        0.00011206        0.00011882        0.00001380        0.00001630
     220         -0.013150        0.000000        0.00008713        0.00007951        0.00002263        0.00001961
     221         -0.011771        0.000000        0.00008617        0.00005348        0.00001491        0.00000264
     222         -0.009113        0.000000        0.00005714        0.00008513        0.00005927        0.00005967
     223         -0.006499        0.000000        0.00009963        0.00007613        0.00004442        0.00001260
     224         -0.003027        0.000000        0.00002802        0.00022618        0.00001816        0.00000964
     225          0.004749        0.000000        0.00004341        0.00000303        0.00000973        0.00001941
     226          0.081611        0.000000        0.14716747        0.02713351        0.00463745        0.17127296
     227          0.092540        0.000000        0.11869012        0.04002189        0.00199074        0.19316478
     228          0.098544        0.000000        0.10819135        0.02331724        0.03901671        0.18552449
     229          0.114021        0.000000        0.10190595        0.00031215        0.04854796        0.21210477
     230          0.116191        0.000000        0.09724944        0.00403825        0.10832778        0.15087969
     231          0.120669        0.000000        0.10390889        0.00102371        0.10029786        0.15796639
     232          0.124697        0.000000        0.01477986        0.17609521        0.07306755        0.07451714
     233          0.127827        0.000000        0.10171470        0.00010810        0.01430589        0.24949257
     234          0.188790        0.000000        0.03650152        0.00449756        0.23856931        0.05509349
     235          0.195958        0.000000        0.05265547        0.07224187        0.19896948        0.01275855
     236          0.253192        0.000000        0.05102968        0.11438718        0.07597556        0.09575776
     237          0.279107        0.000000        0.00001113        0.04524612        0.25153365        0.02680338
     238          0.289837        0.000000        0.00003947        0.23385538        0.08878293        0.00126599
     239          0.299283        0.000000        0.14148630        0.16784357        0.01741439        0.00866023
     240          0.301327        0.000000        0.00046203        0.18370262        0.10446371        0.03091105
     241          0.301600        0.000000        0.00032906        0.14423616        0.14076618        0.03281329
     242          0.306635        0.000000        0.06939632        0.08260358        0.09187587        0.08797826
     243          0.306847        0.000000        0.11604303        0.08008721        0.05573418        0.08429890
     244          0.307439        0.000000        0.00099506        0.11437825        0.13673965        0.07087636
     245          0.309597        0.000000        0.00043611        0.19879558        0.06388160        0.05134813
     246          0.311352        0.000000        0.00027576        0.21751017        0.07101823        0.02654393
     247          0.315944        0.000000        0.18557222        0.00088617        0.01011590        0.14436106
     248          0.316418        0.000000        0.01139840        0.27223810        0.01747760        0.00629250
     249          0.329055        0.000000        0.00101331        0.01105729        0.28674318        0.01918941
     250          0.343178        0.000000        0.23814730        0.00942506        0.02153204        0.07263539
     251          0.349442        0.000000        0.24476621        0.00111861        0.02095835        0.07916336
     252          0.351300        0.000000        0.24298497        0.00025756        0.03736861        0.06588272
     253          0.365331        0.000000        0.23602320        0.00615459        0.00725894        0.08769120
     254          0.444313        0.000000        0.00079621        0.01775519        0.00007895        0.00038188
     255          0.447023        0.000000        0.00012314        0.00029500        0.02092443        0.00320226
     256          0.450042        0.000000        0.00009722        0.02122234        0.00046420        0.00199439
     257          0.457293        0.000000        0.00013246        0.00029419        0.01537848        0.00015532
     258          0.458429        0.000000        0.00056843        0.00045214        0.01064766        0.00708724
     259          0.464825        0.000000        0.00001964        0.01781575        0.00343577        0.00072256