# Projected DOS for atomic kind I at iteration step i = 0, E(Fermi) =    -0.178893 a.u.
#     MO Eigenvalue [a.u.]      Occupation                 s                py                pz                px
       1         -0.970675        1.000000        0.00001782        0.00009646        0.00006492        0.00000990
       2         -0.966823        1.000000        0.00002032        0.00002705        0.00014038        0.00003473
       3         -0.956495        1.000000        0.00003447        0.00014751        0.00007951        0.00008367
       4         -0.933948        1.000000        0.00022227        0.00049986        0.00020956        0.00035742
       5         -0.931262        1.000000        0.00021281        0.00051418        0.00024892        0.00022259
       6         -0.927813        1.000000        0.00017886        0.00035855        0.00021028        0.00034946
       7         -0.917248        1.000000        0.00035603        0.00061718        0.00047063        0.00020131
       8         -0.706127        1.000000        0.00013007        0.00001633        0.00008638        0.00014862
       9         -0.704670        1.000000        0.00041116        0.00015690        0.00011483        0.00027947
      10         -0.692458        1.000000        0.00081031        0.00021395        0.00028269        0.00030274
      11         -0.676611        1.000000        0.00439754        0.00056402        0.00098472        0.00063742
      12         -0.675439        1.000000        0.00206855        0.00047647        0.00022912        0.00022404
      13         -0.672420        1.000000        0.00263017        0.00046298        0.00040238        0.00030214
      14         -0.665353        1.000000        0.00386846        0.00064139        0.00046241        0.00030030
      15         -0.617420        1.000000        0.94791119        0.01273241        0.00157489        0.00375459
      16         -0.607882        1.000000        0.89897554        0.00182815        0.00190972        0.00276327
      17         -0.599383        1.000000        0.64886051        0.00671457        0.00438103        0.00458510
      18         -0.598820        1.000000        0.81145544        0.00360439        0.00833073        0.00402894
      19         -0.597670        1.000000        0.09268182        0.00124950        0.00130889        0.00057464
      20         -0.597208        1.000000        0.24690625        0.00287745        0.00242564        0.00173318
      21         -0.595023        1.000000        0.81514054        0.00600475        0.00543852        0.00381163
      22         -0.592386        1.000000        0.83732350        0.00416192        0.00475092        0.00461015
      23         -0.588055        1.000000        0.71695659        0.00509588        0.00228821        0.00310583
      24         -0.585693        1.000000        0.50144579        0.00201147        0.00146400        0.00256676
      25         -0.584085        1.000000        0.75241159        0.00278583        0.00189739        0.00154898
      26         -0.583382        1.000000        0.46655813        0.00244415        0.00182380        0.00177478
      27         -0.581526        1.000000        0.31239905        0.00226238        0.00156965        0.00089301
      28         -0.581129        1.000000        0.64303558        0.00335787        0.00243464        0.00203957
      29         -0.579663        1.000000        0.81745025        0.00763460        0.00181732        0.00166373
      30         -0.578870        1.000000        0.67534054        0.00238609        0.00196761        0.00275069
      31         -0.577928        1.000000        0.82684384        0.00360300        0.00431624        0.00374495
      32         -0.577251        1.000000        0.85154935        0.00379068        0.00384928        0.00420008
      33         -0.576889        1.000000        0.85056387        0.00169282        0.00271166        0.00271394
      34         -0.576179        1.000000        0.87880792        0.00257155        0.00193316        0.00140216
      35         -0.573492        1.000000        0.56740970        0.00136051        0.00113176        0.00160534
      36         -0.572956        1.000000        0.78255823        0.00187645        0.00326176        0.00300492
      37         -0.572006        1.000000        0.70587496        0.00322131        0.00447852        0.00180141
      38         -0.570954        1.000000        0.57418529        0.00061546        0.00095513        0.00093491
      39         -0.570739        1.000000        0.37800760        0.00134975        0.00169361        0.00067697
      40         -0.570476        1.000000        0.81277403        0.00113810        0.00302004        0.00067104
      41         -0.570275        1.000000        0.87147601        0.00151286        0.00194998        0.00201474
      42         -0.567653        1.000000        0.86182450        0.00201941        0.00068021        0.00396579
      43         -0.565936        1.000000        0.96848977        0.00105259        0.00037817        0.00069608
      44         -0.565674        1.000000        0.96660559        0.00024284        0.00129865        0.00068040
      45         -0.564585        1.000000        0.95658377        0.00049943        0.00059499        0.00169789
      46         -0.563042        1.000000        0.97114789        0.00050085        0.00061682        0.00130379
      47         -0.561244        1.000000        0.96544426        0.00068026        0.00063055        0.00115003
      48         -0.560819        1.000000        0.88704985        0.00145965        0.00184893        0.00231285
      49         -0.560798        1.000000        0.93433538        0.00120798        0.00108129        0.00127665
      50         -0.559610        1.000000        0.94089434        0.00173399        0.00047290        0.00133359
      51         -0.559475        1.000000        0.91192270        0.00169444        0.00077326        0.00223169
      52         -0.558784        1.000000        0.88332378        0.00082257        0.00080701        0.00316301
      53         -0.555813        1.000000        0.63355314        0.00246451        0.00164352        0.00104259
      54         -0.555118        1.000000        0.69346392        0.00228615        0.00137311        0.00091473
      55         -0.554244        1.000000        0.67126305        0.00138402        0.00155518        0.00119154
      56         -0.552318        1.000000        0.99979559        0.00006137        0.00000266        0.00002654
      57         -0.549558        1.000000        0.15516061        0.00329604        0.00114504        0.00263063
      58         -0.549149        1.000000        0.91949741        0.00129005        0.00080392        0.00029418
      59         -0.548550        1.000000        0.21064817        0.00666747        0.00027372        0.00127135
      60         -0.546562        1.000000        0.15507217        0.00094805        0.00156813        0.00161454
      61         -0.546174        1.000000        0.15750405        0.00220403        0.00074151        0.00094649
      62         -0.540611        1.000000        0.19151847        0.00210065        0.00091818        0.00205132
      63         -0.537476        1.000000        0.29321334        0.00018463        0.00206662        0.00036682
      64         -0.526398        1.000000        0.17688088        0.00509692        0.00096560        0.00212627
      65         -0.491869        1.000000        0.00120266        0.00021712        0.00045253        0.00029651
      66         -0.490862        1.000000        0.00288867        0.00059384        0.00048000        0.00115612
      67         -0.476858        1.000000        0.00163084        0.00136892        0.00150167        0.00133645
      68         -0.464332        1.000000        0.16397890        0.05078745        0.05303203        0.04415524
      69         -0.459572        1.000000        0.13430519        0.03330895        0.04720322        0.03881306
      70         -0.458020        1.000000        0.10706166        0.03869018        0.04114873        0.02639452
      71         -0.456843        1.000000        0.05559143        0.01678033        0.01685947        0.01421814
      72         -0.455610        1.000000        0.04478755        0.01615455        0.01032256        0.01168811
      73         -0.454048        1.000000        0.12201045        0.03548498        0.02643069        0.04933380
      74         -0.453416        1.000000        0.07400657        0.01596966        0.01558680        0.01677216
      75         -0.452902        1.000000        0.07590474        0.02099722        0.01371913        0.01897287
      76         -0.452191        1.000000        0.11725152        0.03187346        0.03090729        0.03028476
      77         -0.446916        1.000000        0.13455254        0.02264274        0.03837045        0.02689338
      78         -0.444796        1.000000        0.06947911        0.01024738        0.01883034        0.01854791
      79         -0.443514        1.000000        0.06962272        0.01256973        0.01293617        0.01359159
      80         -0.419417        1.000000        0.00031361        0.00017302        0.00027453        0.00116134
      81         -0.416664        1.000000        0.00012711        0.00024799        0.00026241        0.00034638
      82         -0.415023        1.000000        0.00039694        0.00028925        0.00145833        0.00085518
      83         -0.413852        1.000000        0.00064525        0.00047716        0.00123649        0.00161432
      84         -0.406841        1.000000        0.00046496        0.00087597        0.00155932        0.00149708
      85         -0.405956        1.000000        0.00184883        0.00221211        0.00113260        0.00320926
      86         -0.394521        1.000000        0.00213020        0.00431668        0.00295803        0.00610017
      87         -0.393338        1.000000        0.00212319        0.00463571        0.00222305        0.00663153
      88         -0.391958        1.000000        0.00100047        0.00253688        0.00155658        0.00075507
      89         -0.391017        1.000000        0.00113890        0.00434150        0.00145869        0.00127937
      90         -0.390661        1.000000        0.00122623        0.00237712        0.00134809        0.00133484
      91         -0.385958        1.000000        0.00191260        0.00474010        0.00043240        0.00370190
      92         -0.384122        1.000000        0.00175034        0.00511982        0.00250404        0.00181840
      93         -0.381681        1.000000        0.00197358        0.00533265        0.00523065        0.00113971
      94         -0.295167        1.000000        0.01706210        0.76518609        0.03187954        0.15569085
      95         -0.282102        1.000000        0.01703122        0.25048222        0.39277925        0.07775804
      96         -0.281378        1.000000        0.01406324        0.18600293        0.35801988        0.22592197
      97         -0.278456        1.000000        0.01718627        0.20982014        0.39237670        0.08839444
      98         -0.275210        1.000000        0.01072250        0.47755968        0.05860490        0.15580973
      99         -0.272227        1.000000        0.01701058        0.06500357        0.07848149        0.55033479
     100         -0.271140        1.000000        0.00882151        0.23989586        0.18774873        0.32158815
     101         -0.268634        1.000000        0.01194736        0.22826828        0.18855428        0.32886719
     102         -0.266516        1.000000        0.01296657        0.38180567        0.20274962        0.16809085
     103         -0.264833        1.000000        0.01633515        0.20929015        0.08038790        0.41234033
     104         -0.264127        1.000000        0.01383815        0.10690812        0.28659430        0.34223057
     105         -0.256694        1.000000        0.01468369        0.26869585        0.32027453        0.12052673
     106         -0.255676        1.000000        0.01431384        0.31499098        0.21512934        0.20956749
     107         -0.253214        1.000000        0.01236788        0.12729230        0.50262604        0.10206236
     108         -0.250336        1.000000        0.01952654        0.15581223        0.19102717        0.39964775
     109         -0.246846        1.000000        0.01793415        0.24140625        0.11510715        0.41450849
     110         -0.245043        1.000000        0.01933290        0.34209570        0.31539756        0.09641349
     111         -0.244708        1.000000        0.01765631        0.19040568        0.34214232        0.24813575
     112         -0.242724        1.000000        0.01844508        0.36334000        0.20435918        0.17470390
     113         -0.240617        1.000000        0.01622970        0.13048230        0.58172335        0.09012190
     114         -0.238517        1.000000        0.01117331        0.19101171        0.54434404        0.10431674
     115         -0.237573        1.000000        0.01394611        0.26133175        0.16755631        0.38326195
     116         -0.235728        1.000000        0.01067102        0.24537150        0.36763773        0.21184689
     117         -0.231895        1.000000        0.00835032        0.40462805        0.16937990        0.26752845
     118         -0.230173        1.000000        0.00744468        0.29957354        0.23536528        0.33156576
     119         -0.229060        1.000000        0.00953229        0.32465593        0.17070927        0.36987148
     120         -0.227047        1.000000        0.00671167        0.27802453        0.30324263        0.29071865
     121         -0.226065        1.000000        0.00473563        0.41931481        0.30817966        0.18525035
     122         -0.223811        1.000000        0.00589944        0.25524401        0.25226077        0.35663195
     123         -0.221704        1.000000        0.00600973        0.16701947        0.29680040        0.44985871
     124         -0.220306        1.000000        0.00417606        0.25634670        0.24365185        0.39958350
     125         -0.219647        1.000000        0.00241340        0.22096453        0.30043096        0.43932818
     126         -0.218361        1.000000        0.00340948        0.29490107        0.26073636        0.37041906
     127         -0.217812        1.000000        0.00375186        0.33158215        0.19349621        0.41385235
     128         -0.216321        1.000000        0.00303511        0.30195700        0.29011814        0.29364783
     129         -0.215904        1.000000        0.00213837        0.42674816        0.27012241        0.25408150
     130         -0.214290        1.000000        0.00179685        0.25748217        0.34609204        0.36906221
     131         -0.213141        1.000000        0.00166069        0.21247274        0.39515220        0.35754318
     132         -0.211928        1.000000        0.00121594        0.49407814        0.28961249        0.19044977
     133         -0.211038        1.000000        0.00089607        0.25679332        0.50316559        0.21834135
     134         -0.210362        1.000000        0.00197473        0.33652342        0.37294054        0.26170717
     135         -0.209921        1.000000        0.00180621        0.27415706        0.46512653        0.23740310
     136         -0.208866        1.000000        0.00180138        0.28815796        0.23816387        0.44831294
     137         -0.207449        1.000000        0.00124206        0.18569399        0.32509023        0.47298528
     138         -0.206086        1.000000        0.00077718        0.29345521        0.18419463        0.50223109
     139         -0.205760        1.000000        0.00119691        0.15962708        0.29995169        0.52421511
     140         -0.204945        1.000000        0.00125767        0.40374990        0.33661980        0.23383396
     141         -0.204335        1.000000        0.00110915        0.36067609        0.20194030        0.42136099
     142         -0.203997        1.000000        0.00114804        0.19674057        0.48181248        0.29180187
     143         -0.202580        1.000000        0.00055104        0.24755751        0.26153649        0.47381151
     144         -0.201481        1.000000        0.00104197        0.24486275        0.44027013        0.30079509
     145         -0.200600        1.000000        0.00067111        0.21003239        0.40654214        0.37496069
     146         -0.199535        1.000000        0.00122668        0.24919454        0.40799476        0.32718161
     147         -0.199003        1.000000        0.00188217        0.25254958        0.41533705        0.30957912
     148         -0.197898        1.000000        0.00140882        0.19437713        0.35720152        0.43048526
     149         -0.197143        1.000000        0.00101528        0.41200861        0.24643637        0.32871281
     150         -0.196723        1.000000        0.00127022        0.34382669        0.39132937        0.24257916
     151         -0.196564        1.000000        0.00140250        0.31899372        0.45706512        0.20879418
     152         -0.196041        1.000000        0.00065919        0.23601831        0.34578265        0.41016035
     153         -0.195819        1.000000        0.00043116        0.13452432        0.60079348        0.25982992
     154         -0.194696        1.000000        0.00079411        0.30722377        0.25877221        0.42290779
     155         -0.194036        1.000000        0.00092997        0.39887346        0.24372460        0.34136857
     156         -0.193829        1.000000        0.00058721        0.28122608        0.28708351        0.42528683
     157         -0.193188        1.000000        0.00097999        0.40372748        0.19158999        0.38986871
     158         -0.192619        1.000000        0.00091003        0.30757249        0.30803227        0.37349275
     159         -0.192027        1.000000        0.00085539        0.34466888        0.40297132        0.23414707
     160         -0.191753        1.000000        0.00141475        0.45124675        0.35188632        0.17879061
     161         -0.191256        1.000000        0.00102026        0.48968290        0.20560196        0.29208865
     162         -0.190544        1.000000        0.00128380        0.43130028        0.24440659        0.30515355
     163         -0.190081        1.000000        0.00135024        0.42825557        0.27989283        0.27987697
     164         -0.189863        1.000000        0.00080778        0.48538545        0.18065299        0.32170546
     165         -0.189236        1.000000        0.00108463        0.45170562        0.24445076        0.28291445
     166         -0.189024        1.000000        0.00142779        0.47850219        0.24885203        0.26103071
     167         -0.188797        1.000000        0.00124386        0.32709501        0.31772148        0.33649955
     168         -0.187587        1.000000        0.00042867        0.53448135        0.29279642        0.16551308
     169         -0.187380        1.000000        0.00051437        0.23266746        0.30299403        0.44951415
     170         -0.187009        1.000000        0.00139764        0.38510641        0.23194164        0.36335106
     171         -0.186808        1.000000        0.00092681        0.18831991        0.44266200        0.35535572
     172         -0.186333        1.000000        0.00083023        0.19979133        0.54288473        0.24733721
     173         -0.185608        1.000000        0.00070266        0.21540199        0.31682677        0.45851154
     174         -0.185307        1.000000        0.00054322        0.35072676        0.31481172        0.31857472
     175         -0.185094        1.000000        0.00051425        0.24578673        0.27031565        0.47727373
     176         -0.184585        1.000000        0.00067736        0.40895050        0.26692310        0.31006386
     177         -0.184379        1.000000        0.00076807        0.29141552        0.48318747        0.21344847
     178         -0.184233        1.000000        0.00047560        0.31542333        0.19474947        0.48264408
     179         -0.184024        1.000000        0.00042824        0.28640483        0.26502552        0.43876489
     180         -0.183465        1.000000        0.00051289        0.17091719        0.50831268        0.29927630
     181         -0.183128        1.000000        0.00045428        0.39295363        0.32105367        0.26134182
     182         -0.182912        1.000000        0.00068217        0.47481577        0.27063829        0.24986796
     183         -0.182624        1.000000        0.00046013        0.43068579        0.39462168        0.16159647
     184         -0.182402        1.000000        0.00049091        0.41463906        0.32809588        0.23825816
     185         -0.181892        1.000000        0.00048376        0.33822537        0.35665222        0.29648143
     186         -0.181618        1.000000        0.00036129        0.19861920        0.48474963        0.30734221
     187         -0.181476        1.000000        0.00041969        0.18862628        0.45878113        0.34672319
     188         -0.181370        1.000000        0.00042982        0.28992733        0.37109598        0.30836454
     189         -0.180926        1.000000        0.00045759        0.37330296        0.36705768        0.24827209
     190         -0.180791        1.000000        0.00059890        0.26696324        0.40134218        0.32052298
     191         -0.180109        1.000000        0.00084726        0.23190605        0.41329674        0.32322225
     192         -0.179366        1.000000        0.00035567        0.18841726        0.35060898        0.44440594
     193         -0.179104        1.000000        0.00015885        0.47178400        0.13736497        0.37854883
     194         -0.178893        1.000000        0.00017493        0.34259677        0.29106648        0.33785548
     195         -0.178564        0.000000        0.00025867        0.24826926        0.42984973        0.27208668
     196         -0.178450        0.000000        0.00011509        0.54324616        0.16297102        0.27833839
     197         -0.178036        0.000000        0.00030163        0.39340088        0.30982660        0.24903408
     198         -0.177364        0.000000        0.00027379        0.30095272        0.30298161        0.32296254
     199         -0.174911        0.000000        0.00056906        0.13711695        0.43224397        0.33284324
     200         -0.172481        0.000000        0.01020920        0.76722498        0.03195379        0.18412706
     201         -0.171587        0.000000        0.00073201        0.34614752        0.24123773        0.27046067
     202         -0.075875        0.000000        0.02295546        0.17769991        0.01722107        0.02118921
     203         -0.069329        0.000000        0.02281754        0.02263535        0.07918953        0.12714307
     204         -0.062426        0.000000        0.02871015        0.07127825        0.12296755        0.04756913
     205         -0.057099        0.000000        0.02727824        0.12284476        0.06226723        0.06090734
     206         -0.053567        0.000000        0.02731463        0.04774260        0.02113944        0.19314536
     207         -0.050563        0.000000        0.02368976        0.20927133        0.01564889        0.05090707
     208         -0.049804        0.000000        0.02150585        0.03079921        0.14663684        0.08956687
     209         -0.047444        0.000000        0.02171295        0.07293075        0.07802873        0.12509760
     210         -0.043289        0.000000        0.03328783        0.00826472        0.22368635        0.03742064
     211         -0.042573        0.000000        0.02058345        0.04578653        0.11179678        0.10687165
     212         -0.038870        0.000000        0.02121593        0.13392543        0.07049144        0.07216084
     213         -0.038024        0.000000        0.02533878        0.08946960        0.04374987        0.14225137
     214         -0.034774        0.000000        0.01423294        0.09760192        0.02291444        0.16871410
     215         -0.033991        0.000000        0.01789799        0.11617216        0.05276846        0.11565045
     216         -0.028540        0.000000        0.01369068        0.02688732        0.09512500        0.16463095
     217         -0.024711        0.000000        0.02344945        0.20020438        0.01490649        0.07467310
     218         -0.017902        0.000000        0.01800674        0.03896505        0.21941423        0.04109422
     219         -0.016525        0.000000        0.01703523        0.10926865        0.01893787        0.18473265
     220         -0.013150        0.000000        0.02227055        0.02200191        0.25820034        0.02236733
     221         -0.011771        0.000000        0.01760510        0.03942935        0.22290874        0.04126193
     222         -0.009113        0.000000        0.01857295        0.19604633        0.02610030        0.08627207
     223         -0.006499        0.000000        0.01810373        0.08082357        0.00986760        0.22031840
     224         -0.003027        0.000000        0.01333238        0.17326681        0.01155675        0.12408318
     225          0.004749        0.000000        0.01700630        0.02111955        0.29694069        0.00365525
     226          0.081611        0.000000        0.00002491        0.00040840        0.00094410        0.00043591
     227          0.092540        0.000000        0.00017240        0.00079588        0.00035356        0.00136817
     228          0.098544        0.000000        0.00011722        0.00092310        0.00112205        0.00060853
     229          0.114021        0.000000        0.00005246        0.00115444        0.00037558        0.00050427
     230          0.116191        0.000000        0.00021481        0.00076617        0.00260399        0.00127280
     231          0.120669        0.000000        0.00009392        0.00099377        0.00098563        0.00072182
     232          0.124697        0.000000        0.00000408        0.00004270        0.00007680        0.00001692
     233          0.127827        0.000000        0.00013704        0.00082448        0.00142541        0.00082638
     234          0.188790        0.000000        0.00001431        0.00034148        0.00018992        0.00005288
     235          0.195958        0.000000        0.00001670        0.00028527        0.00023581        0.00016514
     236          0.253192        0.000000        0.00000859        0.00004458        0.00023389        0.00003430
     237          0.279107        0.000000        0.00006626        0.00059622        0.00200023        0.00061076
     238          0.289837        0.000000        0.00016551        0.00321967        0.00143049        0.00118370
     239          0.299283        0.000000        0.00014698        0.00186265        0.00368259        0.00012158
     240          0.301327        0.000000        0.00173170        0.00306501        0.00123735        0.00521434
     241          0.301600        0.000000        0.00122329        0.00599812        0.00153925        0.00367688
     242          0.306635        0.000000        0.00040779        0.00275450        0.00163379        0.00324904
     243          0.306847        0.000000        0.00029209        0.00222939        0.00232822        0.00206842
     244          0.307439        0.000000        0.00038247        0.00425268        0.00047388        0.00430756
     245          0.309597        0.000000        0.00074721        0.00777023        0.00023331        0.00667377
     246          0.311352        0.000000        0.00057029        0.00616437        0.00137044        0.00413184
     247          0.315944        0.000000        0.00024780        0.00411611        0.00169455        0.00173582
     248          0.316418        0.000000        0.00068913        0.01689957        0.00350758        0.00319085
     249          0.329055        0.000000        0.00053891        0.00039809        0.00930174        0.00102220
     250          0.343178        0.000000        0.00123535        0.01046814        0.00210733        0.00675009
     251          0.349442        0.000000        0.00085701        0.00951675        0.00301059        0.00427716
     252          0.351300        0.000000        0.00081623        0.00770674        0.00073411        0.00794245
     253          0.365331        0.000000        0.00112756        0.01592847        0.00781798        0.00328006
     254          0.444313        0.000000        0.00001314        0.00012119        0.00008339        0.00005116
     255          0.447023        0.000000        0.00004233        0.00008930        0.00036701        0.00009762
     256          0.450042        0.000000        0.00001286        0.00007146        0.00022810        0.00017972
     257          0.457293        0.000000        0.00001610        0.00006398        0.00030949        0.00016655
     258          0.458429        0.000000        0.00001298        0.00014708        0.00014017        0.00010635
     259          0.464825        0.000000        0.00004153        0.00045369        0.00012074        0.00073660