100
Lattice="31.7900009155 0.0 0.0 0.0 31.0900001526 0.0 0.0 0.0 30.3899993896" Properties=species:S:1:pos:R:3 i=832 E=-3256.055035181 pbc="F F F"
I       12.53953072      11.81937104       8.69349314
I       18.47870246      12.53141214       8.82954307
I       11.54249056      17.92357156       8.94219627
I       18.22889540      18.03750741       8.80809353
I       11.48790592       8.99195399      11.98545305
I       19.15920946       9.04853460      11.75165062
I        9.35215324      12.82705417      11.58422574
I       11.92887735      11.92065427      14.91864311
I       13.18324147      14.93480407      11.71142663
I       15.36448861      11.21155951      12.16730405
I       18.58515837      12.22637170      15.42522866
I       18.03004738      15.26702646      12.30164008
I       21.74452511      12.93580051      12.02527954
I        8.70638850      18.02947814      12.27929264
I       12.18827892      17.69258594      15.00048391
I       11.73409102      21.41313353      12.27894335
I       15.07366931      18.33155498      11.61009229
I       17.79291365      18.09073141      15.43400175
I       18.34327575      21.84249395      11.91580815
I       21.64677372      18.51727897      11.60792476
I       12.35657525       8.50335074      18.36145427
I       17.06374013       8.10645290      17.98382446
I        9.22954143      12.92790339      18.35199814
I       12.24404476      11.75539528      21.27344359
I       13.36782606      14.55852052      18.05592154
I       15.84956922      10.96785578      18.42633801
I       18.41864554      11.93075976      21.85230066
I       18.57143332      15.40304989      19.00391721
I       22.15548119      12.55096093      17.84190316
I        9.61428377      18.33519447      18.20070999
I       12.23918425      17.24358644      21.46752619
I       11.96042024      24.32723595      17.60173556
I       14.31001407      18.44169654      17.87201090
I       16.71139530      19.08646648      21.75621267
I       16.63520018      22.01925751      18.35147991
I       20.64782622      19.52843463      18.54831292
Pb      12.27703373      11.95864631      11.72900251
Pb      18.83581215      12.20510991      11.83780276
Pb      11.78101105      18.27581797      12.01599087
Pb      18.49118492      18.42433749      11.87693878
Pb      12.08981367      11.84815643      18.25602418
Pb      19.11847507      12.39707522      18.51684408
Pb      12.02042792      19.52200461      19.60637045
Pb      17.58525432      18.94821248      18.71023114
C       14.88821356      15.02856121       8.23168200
C       14.85772858       7.76305759      14.74679280
C        8.62260632      14.89818476      14.88661191
C       15.13709252      14.68183717      14.74817367
C       20.96375760      15.98343142      15.39519669
C       14.79880032      21.05068238      14.65808654
C       15.18998373      14.56438826      21.42627753
N       16.11647676      15.12024174       9.19271929
N       16.32933876       7.77904837      14.24272306
N       10.05561075      14.89538094      15.51601854
N       16.33165903      14.89610117      15.73640862
N       22.40868235      15.43138263      15.51390594
N       16.33054829      21.05879967      14.97695608
N       16.44951087      15.11867412      22.15752913
H       15.25724976      15.14320668       7.24146141
H       14.21329058      15.80913211       8.48538359
H       14.42327550      14.08407503       8.37339845
H       16.62773544      16.02747364       9.06012297
H       16.79721249      14.33404423       9.02271516
H       15.80658265      15.07196880      10.18310017
H       14.22200291       7.60779487      13.91085859
H       14.63088288       8.69145065      15.21106853
H       14.75296187       6.96824699      15.44470160
H       16.47548403       8.55758701      13.58478184
H       16.61136994       6.78701694      13.68037745
H       16.96652994       7.90782029      15.03846866
H        8.67162630      15.38477533      13.94411552
H        7.97747980      15.41178797      15.55989958
H        8.32775978      13.88509035      14.77020248
H       10.53129392      15.82625656      15.43474416
H       10.65693650      14.17410830      15.05425685
H        9.98392684      14.62585299      16.52214266
H       15.53838394      14.62042144      13.76990873
H       14.48965267      15.51780354      14.83627763
H       14.64133413      13.78134230      15.01618754
H       16.80476193      15.81949278      15.55938055
H       17.03596040      14.12639595      15.62253781
H       15.97402849      14.88552188      16.70988254
H       20.47129360      15.46476739      14.61170547
H       21.03431681      17.01701009      15.15665382
H       20.46050457      15.84113705      16.31697907
H       23.00006604      15.71885133      14.62588160
H       22.39518421      14.40807463      15.62174592
H       22.91915533      15.84014005      16.33703970
H       14.62739217      20.31570101      13.91055268
H       14.52097471      22.01703620      14.31313035
H       14.28638475      20.78839551      15.55144852
H       16.88076687      21.47475002      14.19725325
H       16.68973577      20.06582138      15.11366520
H       16.50305622      21.57754545      15.86660622
H       15.50862196      13.96070502      20.61481453
H       14.61813444      15.38774291      21.07792985
H       14.63051011      13.98476501      22.11741800
H       16.96989467      15.74005540      21.52005529
H       17.06464639      14.32700650      22.41479456
H       16.15835942      15.68596121      23.07054662
