# Projected DOS for atomic kind H at iteration step i = 0, E(Fermi) =    -0.178893 a.u.
#     MO Eigenvalue [a.u.]      Occupation                 s
       1         -0.970675        1.000000        0.27198729
       2         -0.966823        1.000000        0.26643843
       3         -0.956495        1.000000        0.27236292
       4         -0.933948        1.000000        0.28231103
       5         -0.931262        1.000000        0.28178830
       6         -0.927813        1.000000        0.28051821
       7         -0.917248        1.000000        0.28081287
       8         -0.706127        1.000000        0.33772711
       9         -0.704670        1.000000        0.33094874
      10         -0.692458        1.000000        0.33890615
      11         -0.676611        1.000000        0.34601458
      12         -0.675439        1.000000        0.34465741
      13         -0.672420        1.000000        0.34435153
      14         -0.665353        1.000000        0.34851888
      15         -0.617420        1.000000        0.00700551
      16         -0.607882        1.000000        0.00490162
      17         -0.599383        1.000000        0.07464601
      18         -0.598820        1.000000        0.02886069
      19         -0.597670        1.000000        0.29530208
      20         -0.597208        1.000000        0.23705920
      21         -0.595023        1.000000        0.02611974
      22         -0.592386        1.000000        0.01255026
      23         -0.588055        1.000000        0.08015051
      24         -0.585693        1.000000        0.15532418
      25         -0.584085        1.000000        0.06879947
      26         -0.583382        1.000000        0.16715637
      27         -0.581526        1.000000        0.21563249
      28         -0.581129        1.000000        0.10182577
      29         -0.579663        1.000000        0.05167763
      30         -0.578870        1.000000        0.09800848
      31         -0.577928        1.000000        0.03471408
      32         -0.577251        1.000000        0.01295168
      33         -0.576889        1.000000        0.03440580
      34         -0.576179        1.000000        0.02203333
      35         -0.573492        1.000000        0.12579278
      36         -0.572956        1.000000        0.04837092
      37         -0.572006        1.000000        0.08532999
      38         -0.570954        1.000000        0.12551333
      39         -0.570739        1.000000        0.19582054
      40         -0.570476        1.000000        0.04937318
      41         -0.570275        1.000000        0.03017040
      42         -0.567653        1.000000        0.03064418
      43         -0.565936        1.000000        0.00394075
      44         -0.565674        1.000000        0.00373768
      45         -0.564585        1.000000        0.00159684
      46         -0.563042        1.000000        0.00093158
      47         -0.561244        1.000000        0.00267643
      48         -0.560819        1.000000        0.02372393
      49         -0.560798        1.000000        0.01200043
      50         -0.559610        1.000000        0.00740911
      51         -0.559475        1.000000        0.01603637
      52         -0.558784        1.000000        0.02316862
      53         -0.555813        1.000000        0.11548439
      54         -0.555118        1.000000        0.09461603
      55         -0.554244        1.000000        0.10281194
      56         -0.552318        1.000000        0.00001242
      57         -0.549558        1.000000        0.26827337
      58         -0.549149        1.000000        0.01716758
      59         -0.548550        1.000000        0.24718944
      60         -0.546562        1.000000        0.26870691
      61         -0.546174        1.000000        0.26562930
      62         -0.540611        1.000000        0.24747627
      63         -0.537476        1.000000        0.22390405
      64         -0.526398        1.000000        0.24821264
      65         -0.491869        1.000000        0.19264336
      66         -0.490862        1.000000        0.19516478
      67         -0.476858        1.000000        0.18575876
      68         -0.464332        1.000000        0.00104032
      69         -0.459572        1.000000        0.01851553
      70         -0.458020        1.000000        0.03214500
      71         -0.456843        1.000000        0.11574562
      72         -0.455610        1.000000        0.12560591
      73         -0.454048        1.000000        0.01231500
      74         -0.453416        1.000000        0.10591971
      75         -0.452902        1.000000        0.09526974
      76         -0.452191        1.000000        0.02045926
      77         -0.446916        1.000000        0.00960332
      78         -0.444796        1.000000        0.08084146
      79         -0.443514        1.000000        0.09813905
      80         -0.419417        1.000000        0.42059910
      81         -0.416664        1.000000        0.42344360
      82         -0.415023        1.000000        0.42041369
      83         -0.413852        1.000000        0.41912565
      84         -0.406841        1.000000        0.42164292
      85         -0.405956        1.000000        0.41707637
      86         -0.394521        1.000000        0.42081400
      87         -0.393338        1.000000        0.41933325
      88         -0.391958        1.000000        0.42372189
      89         -0.391017        1.000000        0.42001101
      90         -0.390661        1.000000        0.42547553
      91         -0.385958        1.000000        0.41948871
      92         -0.384122        1.000000        0.42361205
      93         -0.381681        1.000000        0.42050701
      94         -0.295167        1.000000        0.00034726
      95         -0.282102        1.000000        0.00045167
      96         -0.281378        1.000000        0.00048238
      97         -0.278456        1.000000        0.00054368
      98         -0.275210        1.000000        0.00026396
      99         -0.272227        1.000000        0.00037043
     100         -0.271140        1.000000        0.00041435
     101         -0.268634        1.000000        0.00026033
     102         -0.266516        1.000000        0.00057691
     103         -0.264833        1.000000        0.00092412
     104         -0.264127        1.000000        0.00036804
     105         -0.256694        1.000000        0.00056541
     106         -0.255676        1.000000        0.00083160
     107         -0.253214        1.000000        0.00058011
     108         -0.250336        1.000000        0.00079362
     109         -0.246846        1.000000        0.00052855
     110         -0.245043        1.000000        0.00025617
     111         -0.244708        1.000000        0.00045307
     112         -0.242724        1.000000        0.00043166
     113         -0.240617        1.000000        0.00049285
     114         -0.238517        1.000000        0.00078490
     115         -0.237573        1.000000        0.00130894
     116         -0.235728        1.000000        0.00161793
     117         -0.231895        1.000000        0.00238694
     118         -0.230173        1.000000        0.00118963
     119         -0.229060        1.000000        0.00108587
     120         -0.227047        1.000000        0.00122231
     121         -0.226065        1.000000        0.00157506
     122         -0.223811        1.000000        0.00122291
     123         -0.221704        1.000000        0.00098839
     124         -0.220306        1.000000        0.00074850
     125         -0.219647        1.000000        0.00103777
     126         -0.218361        1.000000        0.00069245
     127         -0.217812        1.000000        0.00110614
     128         -0.216321        1.000000        0.00050241
     129         -0.215904        1.000000        0.00323663
     130         -0.214290        1.000000        0.00149512
     131         -0.213141        1.000000        0.00115173
     132         -0.211928        1.000000        0.00101976
     133         -0.211038        1.000000        0.00117165
     134         -0.210362        1.000000        0.00098615
     135         -0.209921        1.000000        0.00148052
     136         -0.208866        1.000000        0.00097144
     137         -0.207449        1.000000        0.00071312
     138         -0.206086        1.000000        0.00170762
     139         -0.205760        1.000000        0.00051071
     140         -0.204945        1.000000        0.00144858
     141         -0.204335        1.000000        0.00065882
     142         -0.203997        1.000000        0.00138462
     143         -0.202580        1.000000        0.00079505
     144         -0.201481        1.000000        0.00066525
     145         -0.200600        1.000000        0.00081806
     146         -0.199535        1.000000        0.00116827
     147         -0.199003        1.000000        0.00120893
     148         -0.197898        1.000000        0.00109999
     149         -0.197143        1.000000        0.00074648
     150         -0.196723        1.000000        0.00115947
     151         -0.196564        1.000000        0.00132039
     152         -0.196041        1.000000        0.00048224
     153         -0.195819        1.000000        0.00027676
     154         -0.194696        1.000000        0.00062099
     155         -0.194036        1.000000        0.00047272
     156         -0.193829        1.000000        0.00050220
     157         -0.193188        1.000000        0.00064216
     158         -0.192619        1.000000        0.00039422
     159         -0.192027        1.000000        0.00049250
     160         -0.191753        1.000000        0.00110950
     161         -0.191256        1.000000        0.00052330
     162         -0.190544        1.000000        0.00072034
     163         -0.190081        1.000000        0.00060825
     164         -0.189863        1.000000        0.00050950
     165         -0.189236        1.000000        0.00064546
     166         -0.189024        1.000000        0.00063636
     167         -0.188797        1.000000        0.00070951
     168         -0.187587        1.000000        0.00030318
     169         -0.187380        1.000000        0.00033175
     170         -0.187009        1.000000        0.00089623
     171         -0.186808        1.000000        0.00034612
     172         -0.186333        1.000000        0.00032650
     173         -0.185608        1.000000        0.00031835
     174         -0.185307        1.000000        0.00014416
     175         -0.185094        1.000000        0.00041967
     176         -0.184585        1.000000        0.00035512
     177         -0.184379        1.000000        0.00068780
     178         -0.184233        1.000000        0.00023495
     179         -0.184024        1.000000        0.00037892
     180         -0.183465        1.000000        0.00026304
     181         -0.183128        1.000000        0.00030686
     182         -0.182912        1.000000        0.00046848
     183         -0.182624        1.000000        0.00036745
     184         -0.182402        1.000000        0.00032928
     185         -0.181892        1.000000        0.00023853
     186         -0.181618        1.000000        0.00041208
     187         -0.181476        1.000000        0.00025675
     188         -0.181370        1.000000        0.00019216
     189         -0.180926        1.000000        0.00032657
     190         -0.180791        1.000000        0.00027506
     191         -0.180109        1.000000        0.00027413
     192         -0.179366        1.000000        0.00016968
     193         -0.179104        1.000000        0.00012006
     194         -0.178893        1.000000        0.00007130
     195         -0.178564        0.000000        0.00018645
     196         -0.178450        0.000000        0.00002919
     197         -0.178036        0.000000        0.00010368
     198         -0.177364        0.000000        0.00011598
     199         -0.174911        0.000000        0.00006794
     200         -0.172481        0.000000        0.00011370
     201         -0.171587        0.000000        0.00010681
     202         -0.075875        0.000000        0.00034293
     203         -0.069329        0.000000        0.00008153
     204         -0.062426        0.000000        0.00027870
     205         -0.057099        0.000000        0.00012478
     206         -0.053567        0.000000        0.00016167
     207         -0.050563        0.000000        0.00008944
     208         -0.049804        0.000000        0.00021978
     209         -0.047444        0.000000        0.00014671
     210         -0.043289        0.000000        0.00010553
     211         -0.042573        0.000000        0.00007825
     212         -0.038870        0.000000        0.00011269
     213         -0.038024        0.000000        0.00012507
     214         -0.034774        0.000000        0.00015168
     215         -0.033991        0.000000        0.00017976
     216         -0.028540        0.000000        0.00013733
     217         -0.024711        0.000000        0.00049437
     218         -0.017902        0.000000        0.00013579
     219         -0.016525        0.000000        0.00018153
     220         -0.013150        0.000000        0.00014289
     221         -0.011771        0.000000        0.00013743
     222         -0.009113        0.000000        0.00017639
     223         -0.006499        0.000000        0.00018706
     224         -0.003027        0.000000        0.00018610
     225          0.004749        0.000000        0.00005144
     226          0.081611        0.000000        0.08712297
     227          0.092540        0.000000        0.00803866
     228          0.098544        0.000000        0.00804328
     229          0.114021        0.000000        0.00409731
     230          0.116191        0.000000        0.00320763
     231          0.120669        0.000000        0.00411516
     232          0.124697        0.000000        0.58433664
     233          0.127827        0.000000        0.00385081
     234          0.188790        0.000000        0.66122608
     235          0.195958        0.000000        0.65594039
     236          0.253192        0.000000        0.65582939
     237          0.279107        0.000000        0.66593477
     238          0.289837        0.000000        0.66425216
     239          0.299283        0.000000        0.65183856
     240          0.301327        0.000000        0.66193622
     241          0.301600        0.000000        0.66193587
     242          0.306635        0.000000        0.65326428
     243          0.306847        0.000000        0.64984517
     244          0.307439        0.000000        0.66156820
     245          0.309597        0.000000        0.66287911
     246          0.311352        0.000000        0.66260217
     247          0.315944        0.000000        0.64476754
     248          0.316418        0.000000        0.66009821
     249          0.329055        0.000000        0.65936328
     250          0.343178        0.000000        0.63278630
     251          0.349442        0.000000        0.63048910
     252          0.351300        0.000000        0.63062681
     253          0.365331        0.000000        0.62877596
     254          0.444313        0.000000        0.58894486
     255          0.447023        0.000000        0.58411814
     256          0.450042        0.000000        0.58623465
     257          0.457293        0.000000        0.58926596
     258          0.458429        0.000000        0.58642557
     259          0.464825        0.000000        0.58690076
     260          0.477176        0.000000        0.58071161
     261          0.478716        0.000000        0.58363949
     262          0.479302        0.000000        0.58046480
     263          0.480091        0.000000        0.58268695
     264          0.481104        0.000000        0.58213132
     265          0.483005        0.000000        0.58071392
     266          0.484844        0.000000        0.57978217
     267          0.490559        0.000000        0.57961471
     268          0.553811        0.000000        0.55241631
     269          0.559870        0.000000        0.55243598
     270          0.569224        0.000000        0.55194443
     271          0.573868        0.000000        0.55319504
     272          0.578655        0.000000        0.55258528
     273          0.580620        0.000000        0.55139292
     274          0.584286        0.000000        0.55176420
