# Projected DOS for atomic kind C at iteration step i = 0, E(Fermi) =    -0.179239 a.u.
#     MO Eigenvalue [a.u.]      Occupation                 s                py                pz                px
       1         -0.970724        1.000000        0.05980244        0.00574435        0.00028468        0.04001381
       2         -0.966869        1.000000        0.06307818        0.00001538        0.00470833        0.04206957
       3         -0.956546        1.000000        0.06143574        0.00563272        0.00987621        0.03064004
       4         -0.933962        1.000000        0.06043859        0.00078455        0.01804087        0.02536273
       5         -0.931311        1.000000        0.06091905        0.00000533        0.00728677        0.03684805
       6         -0.927841        1.000000        0.06166835        0.00017159        0.01684079        0.02753053
       7         -0.917296        1.000000        0.06306496        0.00000082        0.00190464        0.04269808
       8         -0.706184        1.000000        0.43195821        0.00021653        0.00002955        0.00083259
       9         -0.704722        1.000000        0.42961912        0.00005416        0.00010022        0.00021793
      10         -0.692533        1.000000        0.43400636        0.00016037        0.00011496        0.00065265
      11         -0.676647        1.000000        0.43683533        0.00002616        0.00056976        0.00091917
      12         -0.675489        1.000000        0.43900826        0.00001068        0.00012408        0.00111412
      13         -0.672480        1.000000        0.43675191        0.00000009        0.00066838        0.00058409
      14         -0.665403        1.000000        0.43738522        0.00001530        0.00003962        0.00167366
      15         -0.620433        1.000000        0.00003805        0.00004549        0.00129452        0.00007815
      16         -0.607707        1.000000        0.00049767        0.00066582        0.00026529        0.00031103
      17         -0.599314        1.000000        0.00065206        0.00258386        0.01463902        0.00244259
      18         -0.599119        1.000000        0.00036649        0.00163674        0.00231528        0.00036263
      19         -0.597713        1.000000        0.00016368        0.03919514        0.00195426        0.00659863
      20         -0.597339        1.000000        0.00030928        0.00807740        0.02313583        0.00366697
      21         -0.595089        1.000000        0.00044943        0.00152621        0.00334644        0.00129500
      22         -0.592512        1.000000        0.00093169        0.00069149        0.00138894        0.00033753
      23         -0.588537        1.000000        0.00033619        0.00677335        0.00261407        0.00042877
      24         -0.585986        1.000000        0.00048405        0.01028167        0.01208450        0.00065968
      25         -0.584591        1.000000        0.00031752        0.01078161        0.00465083        0.00039274
      26         -0.583834        1.000000        0.00069022        0.01386949        0.00559373        0.00139254
      27         -0.582519        1.000000        0.00025432        0.00688474        0.01677770        0.00112493
      28         -0.581830        1.000000        0.00025117        0.00423888        0.00277864        0.00047888
      29         -0.581307        1.000000        0.00092539        0.00287393        0.03831279        0.00145666
      30         -0.579355        1.000000        0.00045719        0.00270585        0.00373735        0.00250123
      31         -0.578959        1.000000        0.00004310        0.00667411        0.00231139        0.00170069
      32         -0.578442        1.000000        0.00013983        0.00247455        0.00071361        0.00045439
      33         -0.576895        1.000000        0.00015526        0.00199510        0.00285898        0.00150724
      34         -0.576237        1.000000        0.00025612        0.00109701        0.00333356        0.00055321
      35         -0.574381        1.000000        0.00030078        0.00018551        0.00026172        0.00030781
      36         -0.573250        1.000000        0.00081521        0.04438432        0.00946129        0.00012331
      37         -0.572810        1.000000        0.00018249        0.00092113        0.00161236        0.00039214
      38         -0.571274        1.000000        0.00010992        0.00270658        0.02562410        0.00939604
      39         -0.570386        1.000000        0.00003140        0.00214730        0.00560675        0.00125364
      40         -0.570255        1.000000        0.00010177        0.00316338        0.01031223        0.00262170
      41         -0.569886        1.000000        0.00022465        0.01251732        0.00173927        0.00044024
      42         -0.567319        1.000000        0.00002208        0.00009570        0.00026164        0.00001120
      43         -0.566962        1.000000        0.00010727        0.00272443        0.00117095        0.00033698
      44         -0.565151        1.000000        0.00012999        0.00016566        0.00039097        0.00004164
      45         -0.564656        1.000000        0.00001147        0.00056096        0.00024423        0.00006365
      46         -0.564308        1.000000        0.00015909        0.00080380        0.00129343        0.00023387
      47         -0.563862        1.000000        0.00016555        0.00055929        0.00002280        0.00015371
      48         -0.561692        1.000000        0.00003967        0.00058967        0.00509968        0.00013482
      49         -0.561418        1.000000        0.00011555        0.00038562        0.00018961        0.00032420
      50         -0.560542        1.000000        0.00000416        0.00013416        0.00008381        0.00010928
      51         -0.560243        1.000000        0.00009776        0.00018257        0.00024870        0.00015956
      52         -0.558313        1.000000        0.00029438        0.00288705        0.00064426        0.00024324
      53         -0.557842        1.000000        0.00006325        0.00168010        0.00325812        0.00200604
      54         -0.557250        1.000000        0.00001402        0.00043658        0.00132170        0.00074782
      55         -0.554914        1.000000        0.00013758        0.00351097        0.02448199        0.01786620
      56         -0.552868        1.000000        0.00000093        0.00000145        0.00000019        0.00000081
      57         -0.549951        1.000000        0.00000591        0.00300561        0.00004861        0.00099236
      58         -0.549569        1.000000        0.00011314        0.05222855        0.00171453        0.00025132
      59         -0.548627        1.000000        0.00009392        0.04902310        0.00054167        0.00278785
      60         -0.546943        1.000000        0.00016874        0.00334790        0.03243003        0.02258399
      61         -0.546106        1.000000        0.00008690        0.00445574        0.04588997        0.00727432
      62         -0.540929        1.000000        0.00000483        0.05331669        0.00097227        0.00209784
      63         -0.537765        1.000000        0.00014357        0.00016276        0.04795247        0.00109388
      64         -0.526560        1.000000        0.00014407        0.06669067        0.00021256        0.00109233
      65         -0.491930        1.000000        0.02922142        0.00058944        0.03494063        0.30183188
      66         -0.490910        1.000000        0.03404698        0.03646861        0.00452372        0.29501125
      67         -0.476926        1.000000        0.02803121        0.04661903        0.07303586        0.21523675
      68         -0.464327        1.000000        0.00009491        0.00030875        0.00046407        0.00065461
      69         -0.459663        1.000000        0.00214790        0.00021861        0.00681756        0.02499444
      70         -0.458164        1.000000        0.00380198        0.00063211        0.01433474        0.04228626
      71         -0.456938        1.000000        0.01432325        0.00508541        0.08233854        0.12908574
      72         -0.455712        1.000000        0.01772358        0.00152958        0.05327574        0.19394436
      73         -0.454198        1.000000        0.00152333        0.00064796        0.00543383        0.01448063
      74         -0.453497        1.000000        0.01474996        0.00099075        0.05626949        0.14683824
      75         -0.452984        1.000000        0.01256379        0.00076768        0.05587696        0.10662963
      76         -0.452469        1.000000        0.00465243        0.00028713        0.02390812        0.04054020
      77         -0.447041        1.000000        0.00135851        0.00048802        0.00698315        0.01147381
      78         -0.444918        1.000000        0.00873401        0.00022098        0.00664108        0.13106615
      79         -0.443616        1.000000        0.01369403        0.00008241        0.00873458        0.20350601
      80         -0.419484        1.000000        0.00000588        0.09702123        0.39695208        0.05021794
      81         -0.416723        1.000000        0.00003040        0.43418641        0.08750549        0.00882832
      82         -0.415067        1.000000        0.00000262        0.20041129        0.29218725        0.04672808
      83         -0.413910        1.000000        0.00002036        0.28297945        0.23881962        0.02162109
      84         -0.406930        1.000000        0.00001063        0.00339775        0.40716897        0.12543303
      85         -0.406026        1.000000        0.00004266        0.46106460        0.00805875        0.06865581
      86         -0.394568        1.000000        0.00000420        0.29825491        0.17170697        0.05513601
      87         -0.393381        1.000000        0.00000298        0.21862689        0.15056071        0.15854782
      88         -0.391995        1.000000        0.00000170        0.18007303        0.29257482        0.05615492
      89         -0.391078        1.000000        0.00001462        0.35421005        0.15569138        0.02531175
      90         -0.390736        1.000000        0.00000935        0.03129794        0.31696581        0.17897310
      91         -0.386024        1.000000        0.00000091        0.49739381        0.01384608        0.01998049
      92         -0.384185        1.000000        0.00002520        0.30269994        0.21201987        0.00803244
      93         -0.381740        1.000000        0.00001969        0.21598837        0.29686873        0.01273736
      94         -0.300193        1.000000        0.00009180        0.00041239        0.00035112        0.00017169
      95         -0.282245        1.000000        0.00002091        0.00060441        0.00010236        0.00015359
      96         -0.281419        1.000000        0.00002241        0.00073382        0.00019807        0.00011971
      97         -0.278490        1.000000        0.00001664        0.00063220        0.00013845        0.00014294
      98         -0.275273        1.000000        0.00006012        0.00013778        0.00011463        0.00010853
      99         -0.271917        1.000000        0.00003494        0.00019717        0.00010478        0.00013691
     100         -0.271445        1.000000        0.00008708        0.00024385        0.00010099        0.00032581
     101         -0.269033        1.000000        0.00007383        0.00014010        0.00006355        0.00004463
     102         -0.266647        1.000000        0.00008044        0.00042658        0.00079021        0.00022623
     103         -0.265507        1.000000        0.00024845        0.00101359        0.00075975        0.00019641
     104         -0.264503        1.000000        0.00005999        0.00011921        0.00054997        0.00008047
     105         -0.257092        1.000000        0.00006408        0.00028587        0.00004913        0.00027844
     106         -0.255943        1.000000        0.00019115        0.00031394        0.00041034        0.00056852
     107         -0.253932        1.000000        0.00025958        0.00039737        0.00041823        0.00020145
     108         -0.250399        1.000000        0.00018981        0.00026751        0.00089256        0.00080634
     109         -0.247015        1.000000        0.00022893        0.00012563        0.00079015        0.00035918
     110         -0.245401        1.000000        0.00008159        0.00038404        0.00023600        0.00007724
     111         -0.244913        1.000000        0.00078874        0.00036427        0.00015673        0.00025908
     112         -0.243112        1.000000        0.00020618        0.00033105        0.00030053        0.00029601
     113         -0.240869        1.000000        0.00018223        0.00013979        0.00081730        0.00023764
     114         -0.239118        1.000000        0.00012181        0.00021826        0.00009875        0.00069811
     115         -0.238414        1.000000        0.00043197        0.00035910        0.00010059        0.00073776
     116         -0.236497        1.000000        0.00026397        0.00029576        0.00134823        0.00106872
     117         -0.232565        1.000000        0.00039591        0.00034888        0.00107305        0.00062839
     118         -0.230704        1.000000        0.00043577        0.00044030        0.00048212        0.00059699
     119         -0.229339        1.000000        0.00067491        0.00029527        0.00128885        0.00058435
     120         -0.227632        1.000000        0.00095878        0.00011567        0.00027482        0.00068661
     121         -0.226537        1.000000        0.00106513        0.00031059        0.00063487        0.00172398
     122         -0.224573        1.000000        0.00030806        0.00052823        0.00070345        0.00037185
     123         -0.222382        1.000000        0.00036005        0.00063793        0.00058377        0.00029920
     124         -0.220203        1.000000        0.00044531        0.00020226        0.00085320        0.00023195
     125         -0.219664        1.000000        0.00044769        0.00041063        0.00074470        0.00041530
     126         -0.218710        1.000000        0.00025242        0.00028678        0.00024429        0.00009299
     127         -0.217959        1.000000        0.00047850        0.00061847        0.00025578        0.00058790
     128         -0.217092        1.000000        0.00055481        0.00031203        0.00111062        0.00030252
     129         -0.216593        1.000000        0.00028587        0.00018855        0.00015497        0.00089863
     130         -0.215193        1.000000        0.00029505        0.00059985        0.00108823        0.00035731
     131         -0.213401        1.000000        0.00015840        0.00012676        0.00020392        0.00042179
     132         -0.212931        1.000000        0.00043032        0.00117742        0.00077118        0.00007857
     133         -0.211168        1.000000        0.00029713        0.00024846        0.00008558        0.00051147
     134         -0.210628        1.000000        0.00031248        0.00032923        0.00060333        0.00039732
     135         -0.210445        1.000000        0.00022248        0.00061000        0.00026940        0.00085426
     136         -0.209192        1.000000        0.00019328        0.00008167        0.00053675        0.00030181
     137         -0.207428        1.000000        0.00016056        0.00015557        0.00013570        0.00022304
     138         -0.206441        1.000000        0.00012349        0.00031518        0.00051968        0.00054424
     139         -0.206131        1.000000        0.00019403        0.00013106        0.00019940        0.00029429
     140         -0.205624        1.000000        0.00020333        0.00023612        0.00057617        0.00074441
     141         -0.204600        1.000000        0.00007578        0.00019353        0.00025610        0.00025687
     142         -0.203948        1.000000        0.00007693        0.00017174        0.00008259        0.00004608
     143         -0.203178        1.000000        0.00008091        0.00007826        0.00017235        0.00016960
     144         -0.202402        1.000000        0.00036655        0.00026773        0.00012288        0.00055653
     145         -0.201309        1.000000        0.00009981        0.00026042        0.00007995        0.00019338
     146         -0.200619        1.000000        0.00007010        0.00006616        0.00016287        0.00007437
     147         -0.200351        1.000000        0.00018354        0.00014447        0.00042663        0.00012505
     148         -0.199795        1.000000        0.00008056        0.00009683        0.00009281        0.00011856
     149         -0.198866        1.000000        0.00005978        0.00044031        0.00012773        0.00009403
     150         -0.198341        1.000000        0.00012861        0.00008673        0.00030796        0.00014823
     151         -0.197458        1.000000        0.00008125        0.00028940        0.00021280        0.00028506
     152         -0.196473        1.000000        0.00001723        0.00023255        0.00008538        0.00010025
     153         -0.196403        1.000000        0.00013164        0.00000623        0.00010951        0.00009997
     154         -0.195968        1.000000        0.00020270        0.00021155        0.00015446        0.00012703
     155         -0.195328        1.000000        0.00005790        0.00022278        0.00038478        0.00003476
     156         -0.194439        1.000000        0.00012084        0.00026533        0.00028436        0.00011769
     157         -0.193762        1.000000        0.00032377        0.00027438        0.00087827        0.00021388
     158         -0.193653        1.000000        0.00014492        0.00011544        0.00032079        0.00009722
     159         -0.192750        1.000000        0.00004947        0.00036185        0.00035377        0.00003966
     160         -0.192354        1.000000        0.00025462        0.00033012        0.00023187        0.00028443
     161         -0.192022        1.000000        0.00001692        0.00045353        0.00006425        0.00005105
     162         -0.191628        1.000000        0.00004323        0.00008550        0.00014412        0.00004114
     163         -0.190713        1.000000        0.00017841        0.00013239        0.00033196        0.00014272
     164         -0.189997        1.000000        0.00017796        0.00195260        0.00012569        0.00006959
     165         -0.189715        1.000000        0.00012423        0.00041566        0.00017571        0.00018195
     166         -0.189538        1.000000        0.00017179        0.00037864        0.00003851        0.00012763
     167         -0.189022        1.000000        0.00004530        0.00011397        0.00006743        0.00007981
     168         -0.188777        1.000000        0.00005967        0.00018000        0.00008625        0.00004068
     169         -0.188254        1.000000        0.00013473        0.00058168        0.00031650        0.00032757
     170         -0.188016        1.000000        0.00003824        0.00013137        0.00003992        0.00028857
     171         -0.187724        1.000000        0.00017420        0.00021273        0.00009847        0.00021023
     172         -0.187505        1.000000        0.00027098        0.00006007        0.00018375        0.00006672
     173         -0.186968        1.000000        0.00009305        0.00032626        0.00019144        0.00007206
     174         -0.186248        1.000000        0.00005767        0.00005378        0.00031642        0.00008194
     175         -0.185454        1.000000        0.00014244        0.00010473        0.00031029        0.00023260
     176         -0.185158        1.000000        0.00011261        0.00008052        0.00010641        0.00006376
     177         -0.184965        1.000000        0.00004133        0.00034292        0.00012764        0.00013451
     178         -0.184667        1.000000        0.00005905        0.00018547        0.00010479        0.00009615
     179         -0.184367        1.000000        0.00008980        0.00012858        0.00008810        0.00003572
     180         -0.184028        1.000000        0.00005779        0.00009577        0.00016500        0.00002418
     181         -0.183502        1.000000        0.00000634        0.00003201        0.00009487        0.00004423
     182         -0.183328        1.000000        0.00002233        0.00028519        0.00006024        0.00008301
     183         -0.183012        1.000000        0.00020929        0.00033171        0.00043274        0.00004198
     184         -0.182897        1.000000        0.00006190        0.00007520        0.00007758        0.00004151
     185         -0.182321        1.000000        0.00025974        0.00029838        0.00014742        0.00004365
     186         -0.182079        1.000000        0.00003040        0.00002517        0.00007723        0.00004875
     187         -0.181944        1.000000        0.00006815        0.00012239        0.00010240        0.00004374
     188         -0.181638        1.000000        0.00025714        0.00013990        0.00021665        0.00005083
     189         -0.181376        1.000000        0.00004089        0.00013670        0.00003541        0.00006131
     190         -0.181079        1.000000        0.00008796        0.00006703        0.00009846        0.00002437
     191         -0.180503        1.000000        0.00011093        0.00012887        0.00015021        0.00007248
     192         -0.180445        1.000000        0.00004362        0.00006202        0.00008464        0.00006964
     193         -0.179982        1.000000        0.00028314        0.00101362        0.00018375        0.00020600
     194         -0.179565        1.000000        0.00004109        0.00012325        0.00001365        0.00001945
     195         -0.179239        1.000000        0.00002481        0.00002536        0.00002394        0.00001357
     196         -0.179134        0.000000        0.00002016        0.00005763        0.00004789        0.00003784
     197         -0.178669        0.000000        0.00001900        0.00010684        0.00002630        0.00005443
     198         -0.177939        0.000000        0.00002051        0.00004473        0.00002255        0.00001779
     199         -0.177882        0.000000        0.00003567        0.00015950        0.00004627        0.00002065
     200         -0.175609        0.000000        0.00002557        0.00007959        0.00001633        0.00001526
     201         -0.171294        0.000000        0.00001720        0.00004615        0.00008083        0.00000660
     202         -0.076117        0.000000        0.00000248        0.00000581        0.00001001        0.00000160
     203         -0.069531        0.000000        0.00003344        0.00003411        0.00001645        0.00003140
     204         -0.062626        0.000000        0.00001965        0.00000735        0.00003888        0.00004617
     205         -0.057258        0.000000        0.00003598        0.00000736        0.00007525        0.00002632
     206         -0.053836        0.000000        0.00001093        0.00001190        0.00001329        0.00002748
     207         -0.050668        0.000000        0.00003060        0.00002538        0.00003733        0.00003427
     208         -0.050116        0.000000        0.00002111        0.00000421        0.00000899        0.00006121
     209         -0.047679        0.000000        0.00002497        0.00001325        0.00002733        0.00002668
     210         -0.043420        0.000000        0.00001862        0.00006679        0.00002567        0.00002369
     211         -0.042832        0.000000        0.00004927        0.00003203        0.00000558        0.00002884
     212         -0.038999        0.000000        0.00007238        0.00003573        0.00001261        0.00002384
     213         -0.038105        0.000000        0.00006350        0.00005522        0.00003045        0.00001808
     214         -0.035140        0.000000        0.00001002        0.00000691        0.00000721        0.00001964
     215         -0.034170        0.000000        0.00002064        0.00004102        0.00000483        0.00004659
     216         -0.028802        0.000000        0.00001388        0.00001732        0.00000288        0.00002818
     217         -0.024876        0.000000        0.00001818        0.00002101        0.00006690        0.00005796
     218         -0.018231        0.000000        0.00000525        0.00000397        0.00000237        0.00001377
     219         -0.016718        0.000000        0.00005687        0.00002256        0.00004425        0.00005779
     220         -0.013309        0.000000        0.00001944        0.00003098        0.00001360        0.00008903
     221         -0.012009        0.000000        0.00001671        0.00001647        0.00002176        0.00005290
     222         -0.009114        0.000000        0.00002336        0.00004495        0.00002027        0.00004990
     223         -0.006503        0.000000        0.00003415        0.00004636        0.00002518        0.00005043
     224         -0.003026        0.000000        0.00002179        0.00000810        0.00000314        0.00005102
     225          0.004681        0.000000        0.00001718        0.00002362        0.00002600        0.00003434
     226          0.081561        0.000000        0.07349703        0.00034855        0.04869564        0.43799690
     227          0.092502        0.000000        0.08191138        0.07568907        0.00435089        0.47317615
     228          0.098477        0.000000        0.08216574        0.06831703        0.11961810        0.36293757
     229          0.113989        0.000000        0.07909711        0.00010803        0.08676943        0.46471136
     230          0.116169        0.000000        0.07900092        0.00946414        0.22328435        0.31943782
     231          0.120619        0.000000        0.07894968        0.00170316        0.21523897        0.33387525
     232          0.124630        0.000000        0.01454139        0.00001659        0.00712041        0.05544119
     233          0.127792        0.000000        0.07964996        0.00013800        0.02223969        0.52513437
     234          0.188723        0.000000        0.00132943        0.00000067        0.00050385        0.00165385
     235          0.195890        0.000000        0.00231469        0.00073709        0.00251520        0.00113871
     236          0.253134        0.000000        0.00182592        0.00086789        0.00174486        0.00224726
     237          0.279035        0.000000        0.00000598        0.00124665        0.00547076        0.00039762
     238          0.289793        0.000000        0.00000937        0.00453762        0.00100762        0.00004395
     239          0.299180        0.000000        0.00286280        0.00351393        0.00010632        0.00031601
     240          0.301278        0.000000        0.00000929        0.00505824        0.00139629        0.00074011
     241          0.301542        0.000000        0.00001537        0.00486352        0.00176860        0.00067811
     242          0.306590        0.000000        0.00175188        0.00221002        0.00160233        0.00122664
     243          0.306795        0.000000        0.00175646        0.00222599        0.00159557        0.00123402
     244          0.307428        0.000000        0.00003453        0.00179080        0.00241962        0.00168241
     245          0.309590        0.000000        0.00000546        0.00497803        0.00090711        0.00120231
     246          0.311279        0.000000        0.00002914        0.00461955        0.00311338        0.00187399
     247          0.315892        0.000000        0.00326086        0.00038897        0.00214259        0.00060432
     248          0.316396        0.000000        0.00025599        0.00766295        0.00003920        0.00012958
     249          0.329013        0.000000        0.00002851        0.00002860        0.01016978        0.00109012
     250          0.343144        0.000000        0.00417314        0.00034172        0.00011222        0.00006192
     251          0.349354        0.000000        0.00558388        0.00001152        0.00008830        0.00001964
     252          0.351283        0.000000        0.00540408        0.00001401        0.00002382        0.00013085
     253          0.365270        0.000000        0.00520849        0.00049288        0.00005366        0.00012804
     254          0.444263        0.000000        0.00038019        0.38946451        0.00192668        0.00000499
     255          0.446964        0.000000        0.00004292        0.00182506        0.35074950        0.03814460
     256          0.450005        0.000000        0.00018669        0.32867486        0.01574681        0.04485596
     257          0.457250        0.000000        0.00001974        0.00904715        0.37213179        0.01300669
     258          0.458345        0.000000        0.00004807        0.01310832        0.26509775        0.11612702
     259          0.464776        0.000000        0.00015861        0.33086002        0.04310368        0.01555345