# Projected DOS for atomic kind C at iteration step i = 0, E(Fermi) =    -0.170199 a.u.
#     MO Eigenvalue [a.u.]      Occupation                 s                py                pz                px
       1         -0.976507        1.000000        0.05954881        0.00201825        0.00376381        0.04069248
       2         -0.972482        1.000000        0.06255357        0.00186634        0.00535718        0.03935068
       3         -0.967328        1.000000        0.05986452        0.00323659        0.03700285        0.00531674
       4         -0.957738        1.000000        0.06422642        0.00067929        0.02084410        0.02564735
       5         -0.949993        1.000000        0.06756371        0.00186903        0.00190702        0.04405222
       6         -0.939683        1.000000        0.06061330        0.00066567        0.02963804        0.01381649
       7         -0.933237        1.000000        0.05917089        0.00967661        0.00506766        0.02818965
       8         -0.709556        1.000000        0.42681082        0.00003655        0.00000128        0.00012633
       9         -0.709244        1.000000        0.43362900        0.00041868        0.00005745        0.00056154
      10         -0.702720        1.000000        0.43423451        0.00000898        0.00077311        0.00009790
      11         -0.697606        1.000000        0.43106265        0.00000377        0.00025762        0.00102392
      12         -0.694905        1.000000        0.42959763        0.00000439        0.00053555        0.00135306
      13         -0.682756        1.000000        0.43942197        0.00003718        0.00098319        0.00059789
      14         -0.678241        1.000000        0.44414261        0.00010238        0.00056432        0.00099867
      15         -0.625984        1.000000        0.00013037        0.00004313        0.00001598        0.00012178
      16         -0.615401        1.000000        0.00004881        0.00068169        0.00087536        0.00032471
      17         -0.615053        1.000000        0.00004966        0.00001859        0.00632824        0.00136603
      18         -0.608547        1.000000        0.00001024        0.01922536        0.02323338        0.00674881
      19         -0.606279        1.000000        0.00003672        0.00560430        0.01451346        0.00028397
      20         -0.598304        1.000000        0.00021876        0.00074780        0.00203235        0.00087055
      21         -0.597042        1.000000        0.00015037        0.02548146        0.00738323        0.01956894
      22         -0.595983        1.000000        0.00000978        0.00068409        0.02352339        0.00315050
      23         -0.588053        1.000000        0.00002375        0.04778754        0.00078459        0.00024732
      24         -0.587403        1.000000        0.00005141        0.01079110        0.00226333        0.00648954
      25         -0.586298        1.000000        0.00022441        0.00773101        0.00723270        0.00556660
      26         -0.585178        1.000000        0.00146355        0.05104139        0.00109611        0.01061226
      27         -0.584385        1.000000        0.00055697        0.01783784        0.00823994        0.00643107
      28         -0.583030        1.000000        0.00018068        0.00946696        0.00301749        0.00138602
      29         -0.580789        1.000000        0.00070568        0.00899481        0.00062360        0.00310609
      30         -0.580632        1.000000        0.00019978        0.00218813        0.00035654        0.00029095
      31         -0.579972        1.000000        0.00018069        0.00220641        0.00055405        0.00231695
      32         -0.578803        1.000000        0.00013731        0.03652673        0.02966545        0.00051025
      33         -0.578255        1.000000        0.00028114        0.01087363        0.00339874        0.00972577
      34         -0.576847        1.000000        0.00030151        0.01351727        0.00101107        0.00940707
      35         -0.575499        1.000000        0.00009256        0.00379793        0.00075279        0.00250549
      36         -0.574536        1.000000        0.00002912        0.00155668        0.00134239        0.00077550
      37         -0.572217        1.000000        0.00015544        0.00118970        0.00164335        0.00201415
      38         -0.570091        1.000000        0.00016792        0.00177707        0.00537952        0.00045321
      39         -0.569221        1.000000        0.00171077        0.00100378        0.04662454        0.01583697
      40         -0.568575        1.000000        0.00026972        0.00878439        0.00853525        0.00267351
      41         -0.567462        1.000000        0.00001154        0.00015513        0.00013027        0.00021086
      42         -0.567292        1.000000        0.00025253        0.00444894        0.00051120        0.00355725
      43         -0.565884        1.000000        0.00005379        0.00031221        0.00010217        0.00009727
      44         -0.564604        1.000000        0.00019151        0.00113238        0.00788849        0.00152991
      45         -0.564320        1.000000        0.00009503        0.00005003        0.00098245        0.00004888
      46         -0.564027        1.000000        0.00004098        0.00265426        0.00362428        0.00322813
      47         -0.561986        1.000000        0.00099601        0.00281570        0.02953463        0.00489693
      48         -0.559295        1.000000        0.00004474        0.00240472        0.00842085        0.01646954
      49         -0.558493        1.000000        0.00007893        0.00128933        0.00471870        0.00771975
      50         -0.556547        1.000000        0.00002703        0.00374366        0.00210228        0.00147378
      51         -0.554391        1.000000        0.00001745        0.03783127        0.00039929        0.00035633
      52         -0.553007        1.000000        0.00008482        0.00297761        0.00369107        0.00281673
      53         -0.552611        1.000000        0.00008460        0.02293015        0.00984961        0.00056086
      54         -0.552129        1.000000        0.00000691        0.00183722        0.00105665        0.00074937
      55         -0.551096        1.000000        0.00001438        0.00193780        0.00017555        0.00051807
      56         -0.550563        1.000000        0.00005871        0.00241230        0.00089113        0.00095801
      57         -0.550343        1.000000        0.00017019        0.00614709        0.00070216        0.00037223
      58         -0.550151        1.000000        0.00013025        0.00469909        0.00037110        0.00043470
      59         -0.549859        1.000000        0.00018798        0.01967267        0.00060342        0.00285678
      60         -0.545864        1.000000        0.00005834        0.00285749        0.00356683        0.00329998
      61         -0.544579        1.000000        0.00001865        0.00340946        0.00128749        0.00015665
      62         -0.544192        1.000000        0.00003555        0.00057851        0.00028190        0.00006399
      63         -0.543802        1.000000        0.00004658        0.00007544        0.00018518        0.00004567
      64         -0.543457        1.000000        0.00015383        0.00000486        0.03274936        0.00752362
      65         -0.498836        1.000000        0.03742416        0.01524723        0.02007303        0.30109409
      66         -0.492264        1.000000        0.02904772        0.01970893        0.03989027        0.27758915
      67         -0.488771        1.000000        0.02926709        0.01619684        0.27579874        0.04457104
      68         -0.482145        1.000000        0.02678438        0.00436774        0.13919544        0.19321530
      69         -0.477652        1.000000        0.02503844        0.01031737        0.01825977        0.31131026
      70         -0.463144        1.000000        0.02205289        0.00638286        0.21276290        0.11451820
      71         -0.458230        1.000000        0.02115561        0.06275638        0.05127263        0.20720559
      72         -0.456388        1.000000        0.00202657        0.00477279        0.00848745        0.01419920
      73         -0.452388        1.000000        0.00005910        0.00029439        0.00049520        0.00035094
      74         -0.448610        1.000000        0.00011753        0.00137905        0.00096327        0.00109089
      75         -0.444761        1.000000        0.00002240        0.00044110        0.00043207        0.00042837
      76         -0.441975        1.000000        0.00003650        0.00091308        0.00050537        0.00017400
      77         -0.439603        1.000000        0.00005537        0.00109700        0.00024967        0.00152660
      78         -0.437852        1.000000        0.00013376        0.00013956        0.00110674        0.00067457
      79         -0.432616        1.000000        0.00008188        0.00232151        0.00189926        0.00427106
      80         -0.424365        1.000000        0.00003828        0.41871329        0.11648434        0.00059243
      81         -0.422174        1.000000        0.00000022        0.09032179        0.36779388        0.08367411
      82         -0.416735        1.000000        0.00003019        0.01358336        0.49550244        0.03031040
      83         -0.415927        1.000000        0.00000532        0.28196261        0.05683117        0.20508655
      84         -0.415785        1.000000        0.00000619        0.33368954        0.05020981        0.15863445
      85         -0.413436        1.000000        0.00003683        0.39248548        0.00174315        0.13542307
      86         -0.411297        1.000000        0.00001154        0.09079083        0.21927010        0.21679661
      87         -0.411290        1.000000        0.00000152        0.16437270        0.32020232        0.04921355
      88         -0.409955        1.000000        0.00000286        0.44768212        0.07348509        0.01946610
      89         -0.407492        1.000000        0.00003429        0.34198155        0.17790830        0.00090489
      90         -0.401141        1.000000        0.00000891        0.36947602        0.08431613        0.06975552
      91         -0.399353        1.000000        0.00000051        0.14940568        0.09973585        0.28207140
      92         -0.395146        1.000000        0.00000808        0.08980591        0.27038937        0.17205272
      93         -0.394008        1.000000        0.00013499        0.33724499        0.18360358        0.01530950
      94         -0.305437        1.000000        0.00001386        0.00005250        0.00001518        0.00001087
      95         -0.292038        1.000000        0.00001182        0.00001693        0.00009113        0.00013783
      96         -0.290104        1.000000        0.00001803        0.00005111        0.00005511        0.00000686
      97         -0.277343        1.000000        0.00001683        0.00020659        0.00001946        0.00000871
      98         -0.270901        1.000000        0.00029538        0.00073023        0.00015335        0.00063472
      99         -0.264863        1.000000        0.00007152        0.00010322        0.00022819        0.00006979
     100         -0.261410        1.000000        0.00006530        0.00009734        0.00011840        0.00019907
     101         -0.258640        1.000000        0.00012668        0.00021762        0.00003872        0.00014710
     102         -0.257609        1.000000        0.00011043        0.00012010        0.00038592        0.00007673
     103         -0.256838        1.000000        0.00003668        0.00011947        0.00004343        0.00006490
     104         -0.255240        1.000000        0.00003864        0.00021513        0.00050189        0.00002861
     105         -0.252739        1.000000        0.00005169        0.00005258        0.00009294        0.00030976
     106         -0.252231        1.000000        0.00018162        0.00011378        0.00039520        0.00007191
     107         -0.250398        1.000000        0.00009441        0.00036887        0.00008065        0.00011202
     108         -0.248721        1.000000        0.00024188        0.00011843        0.00024489        0.00005280
     109         -0.245315        1.000000        0.00020253        0.00030006        0.00003507        0.00024096
     110         -0.244007        1.000000        0.00014384        0.00007932        0.00049481        0.00047340
     111         -0.243048        1.000000        0.00007430        0.00012878        0.00009541        0.00011198
     112         -0.240304        1.000000        0.00016347        0.00013275        0.00005971        0.00013136
     113         -0.239458        1.000000        0.00058398        0.00081274        0.00008343        0.00017891
     114         -0.238951        1.000000        0.00014508        0.00005795        0.00047992        0.00016692
     115         -0.236788        1.000000        0.00008035        0.00004229        0.00024266        0.00056925
     116         -0.235960        1.000000        0.00025909        0.00015302        0.00014959        0.00012932
     117         -0.235320        1.000000        0.00024246        0.00009653        0.00025826        0.00016355
     118         -0.233546        1.000000        0.00022283        0.00041177        0.00017207        0.00016753
     119         -0.232033        1.000000        0.00014625        0.00025323        0.00034936        0.00007783
     120         -0.229899        1.000000        0.00002846        0.00013303        0.00016036        0.00006739
     121         -0.228292        1.000000        0.00017802        0.00016246        0.00040599        0.00019739
     122         -0.226459        1.000000        0.00023234        0.00011791        0.00012663        0.00031644
     123         -0.225522        1.000000        0.00016185        0.00016120        0.00029448        0.00018467
     124         -0.224969        1.000000        0.00034664        0.00032258        0.00054333        0.00033591
     125         -0.221422        1.000000        0.00034306        0.00088473        0.00033393        0.00044352
     126         -0.220832        1.000000        0.00055696        0.00061312        0.00213156        0.00010725
     127         -0.218396        1.000000        0.00027403        0.00102514        0.00024515        0.00013290
     128         -0.217663        1.000000        0.00056377        0.00028186        0.00018254        0.00078979
     129         -0.216533        1.000000        0.00046870        0.00063801        0.00015630        0.00056967
     130         -0.214451        1.000000        0.00019712        0.00095140        0.00024294        0.00051448
     131         -0.213351        1.000000        0.00005351        0.00039749        0.00036505        0.00025345
     132         -0.211002        1.000000        0.00035490        0.00088540        0.00013072        0.00025782
     133         -0.209883        1.000000        0.00029881        0.00064615        0.00026352        0.00029554
     134         -0.208092        1.000000        0.00054709        0.00020404        0.00022401        0.00029853
     135         -0.207088        1.000000        0.00014537        0.00039714        0.00043407        0.00173470
     136         -0.206488        1.000000        0.00014413        0.00021255        0.00017284        0.00025358
     137         -0.205560        1.000000        0.00007339        0.00073480        0.00006698        0.00021326
     138         -0.204536        1.000000        0.00007948        0.00026034        0.00010735        0.00010661
     139         -0.204243        1.000000        0.00031623        0.00045566        0.00044619        0.00071170
     140         -0.203640        1.000000        0.00004967        0.00024410        0.00014852        0.00017040
     141         -0.202232        1.000000        0.00004814        0.00019004        0.00019182        0.00064049
     142         -0.201421        1.000000        0.00001842        0.00015306        0.00012801        0.00029604
     143         -0.199336        1.000000        0.00028081        0.00037019        0.00006198        0.00006217
     144         -0.198663        1.000000        0.00001234        0.00005060        0.00003703        0.00002232
     145         -0.198086        1.000000        0.00017147        0.00025323        0.00041260        0.00011770
     146         -0.197110        1.000000        0.00022063        0.00015393        0.00007108        0.00004986
     147         -0.196540        1.000000        0.00010090        0.00032875        0.00026998        0.00015065
     148         -0.195937        1.000000        0.00009928        0.00005400        0.00008075        0.00016846
     149         -0.195063        1.000000        0.00010663        0.00025947        0.00013739        0.00009780
     150         -0.193923        1.000000        0.00023259        0.00013826        0.00004986        0.00006573
     151         -0.193250        1.000000        0.00008197        0.00016175        0.00008510        0.00038799
     152         -0.193084        1.000000        0.00002047        0.00007928        0.00004424        0.00008631
     153         -0.192606        1.000000        0.00009050        0.00011282        0.00014970        0.00019235
     154         -0.191651        1.000000        0.00007021        0.00011794        0.00006386        0.00021884
     155         -0.191338        1.000000        0.00009618        0.00020243        0.00003700        0.00003305
     156         -0.190258        1.000000        0.00006705        0.00011883        0.00012021        0.00017915
     157         -0.189771        1.000000        0.00006899        0.00017475        0.00006165        0.00014159
     158         -0.188791        1.000000        0.00002642        0.00020346        0.00008914        0.00005627
     159         -0.188337        1.000000        0.00000502        0.00003580        0.00001182        0.00017223
     160         -0.187758        1.000000        0.00024453        0.00021807        0.00011532        0.00004829
     161         -0.186684        1.000000        0.00014029        0.00007591        0.00012736        0.00007060
     162         -0.186295        1.000000        0.00008474        0.00007962        0.00018214        0.00024143
     163         -0.184940        1.000000        0.00007540        0.00003677        0.00004727        0.00017330
     164         -0.184641        1.000000        0.00001183        0.00002374        0.00004091        0.00001883
     165         -0.184309        1.000000        0.00004687        0.00002741        0.00078708        0.00003780
     166         -0.183868        1.000000        0.00015354        0.00016508        0.00023738        0.00046290
     167         -0.182798        1.000000        0.00004004        0.00001165        0.00016765        0.00006417
     168         -0.182350        1.000000        0.00001747        0.00001291        0.00007247        0.00003479
     169         -0.181415        1.000000        0.00006257        0.00011198        0.00030663        0.00004456
     170         -0.180752        1.000000        0.00003151        0.00006597        0.00010739        0.00005143
     171         -0.180062        1.000000        0.00007298        0.00007710        0.00014568        0.00005393
     172         -0.179461        1.000000        0.00021713        0.00029029        0.00012923        0.00018291
     173         -0.178583        1.000000        0.00007087        0.00014087        0.00007341        0.00008220
     174         -0.178367        1.000000        0.00000728        0.00002583        0.00001994        0.00002310
     175         -0.178096        1.000000        0.00001595        0.00005176        0.00003807        0.00001623
     176         -0.177086        1.000000        0.00004452        0.00004455        0.00012756        0.00009756
     177         -0.176601        1.000000        0.00018333        0.00012742        0.00013710        0.00015003
     178         -0.176159        1.000000        0.00008399        0.00012054        0.00004752        0.00011216
     179         -0.175877        1.000000        0.00001971        0.00005106        0.00002697        0.00003994
     180         -0.175627        1.000000        0.00000584        0.00001264        0.00002234        0.00002626
     181         -0.175062        1.000000        0.00023280        0.00025387        0.00047208        0.00010643
     182         -0.173380        1.000000        0.00018682        0.00007454        0.00026006        0.00019268
     183         -0.172908        1.000000        0.00000928        0.00003069        0.00006097        0.00004231
     184         -0.172657        1.000000        0.00003330        0.00005002        0.00002546        0.00000933
     185         -0.172516        1.000000        0.00004830        0.00017117        0.00004268        0.00009996
     186         -0.172336        1.000000        0.00002475        0.00015697        0.00005329        0.00004941
     187         -0.172230        1.000000        0.00004923        0.00006482        0.00002702        0.00005148
     188         -0.171448        1.000000        0.00011927        0.00049703        0.00006729        0.00018727
     189         -0.171343        1.000000        0.00021168        0.00037739        0.00063434        0.00006769
     190         -0.170973        1.000000        0.00017352        0.00012791        0.00018800        0.00011733
     191         -0.170825        1.000000        0.00004664        0.00004083        0.00005157        0.00004563
     192         -0.170724        1.000000        0.00007407        0.00008272        0.00018448        0.00016953
     193         -0.170470        1.000000        0.00002243        0.00001948        0.00001765        0.00003388
     194         -0.170199        1.000000        0.00005334        0.00006979        0.00017895        0.00007353
     195         -0.170147        0.000000        0.00001520        0.00004293        0.00003725        0.00002793
     196         -0.169848        0.000000        0.00001090        0.00003460        0.00001635        0.00001639
     197         -0.169632        0.000000        0.00000756        0.00003938        0.00004680        0.00002280
     198         -0.169515        0.000000        0.00000629        0.00005311        0.00004356        0.00000598
     199         -0.169206        0.000000        0.00002217        0.00002845        0.00006317        0.00003131
     200         -0.168572        0.000000        0.00001031        0.00002819        0.00003216        0.00005798
     201         -0.165841        0.000000        0.00000171        0.00000727        0.00000436        0.00000056
     202         -0.065108        0.000000        0.00001966        0.00001727        0.00009902        0.00002481
     203         -0.060308        0.000000        0.00004558        0.00002207        0.00002535        0.00005352
     204         -0.055971        0.000000        0.00003926        0.00001332        0.00006046        0.00005724
     205         -0.047387        0.000000        0.00002541        0.00001949        0.00003037        0.00001756
     206         -0.043959        0.000000        0.00004439        0.00002349        0.00003113        0.00007199
     207         -0.042738        0.000000        0.00001784        0.00003864        0.00002227        0.00006177
     208         -0.041976        0.000000        0.00000661        0.00003736        0.00006443        0.00001072
     209         -0.041030        0.000000        0.00003074        0.00002738        0.00000565        0.00007413
     210         -0.039097        0.000000        0.00002913        0.00001726        0.00002979        0.00001782
     211         -0.036926        0.000000        0.00018335        0.00007860        0.00003110        0.00002658
     212         -0.035003        0.000000        0.00015441        0.00003217        0.00008452        0.00002540
     213         -0.032568        0.000000        0.00032621        0.00002635        0.00014617        0.00007594
     214         -0.031873        0.000000        0.00010187        0.00003107        0.00016225        0.00005157
     215         -0.031369        0.000000        0.00000983        0.00001546        0.00002446        0.00004490
     216         -0.030754        0.000000        0.00017831        0.00002103        0.00007258        0.00013511
     217         -0.028288        0.000000        0.00005593        0.00000459        0.00007403        0.00009004
     218         -0.027016        0.000000        0.00006858        0.00001731        0.00003527        0.00001748
     219         -0.022543        0.000000        0.00006351        0.00002490        0.00001181        0.00005147
     220         -0.018105        0.000000        0.00000845        0.00000825        0.00002701        0.00006553
     221         -0.017392        0.000000        0.00019603        0.00010450        0.00011466        0.00007230
     222         -0.016635        0.000000        0.00004061        0.00000582        0.00001813        0.00003950
     223         -0.014004        0.000000        0.00000430        0.00000641        0.00003896        0.00003867
     224         -0.012011        0.000000        0.00003228        0.00004690        0.00004708        0.00002316
     225         -0.003490        0.000000        0.00000420        0.00003252        0.00003609        0.00005431
     226          0.079297        0.000000        0.08112764        0.02590690        0.05774213        0.46828275
     227          0.087110        0.000000        0.08538707        0.03474805        0.45024028        0.06608091
     228          0.088762        0.000000        0.08563672        0.02697236        0.04833637        0.47233817
     229          0.095663        0.000000        0.08185533        0.00732415        0.22954685        0.29693761
     230          0.100795        0.000000        0.07860066        0.02162229        0.02920728        0.48113068
     231          0.103713        0.000000        0.08150209        0.11680522        0.07570484        0.35827241
     232          0.105024        0.000000        0.08077098        0.00870329        0.36464100        0.17867607
     233          0.141430        0.000000        0.00529657        0.00017381        0.00816536        0.00696911
     234          0.153626        0.000000        0.00242859        0.00000100        0.00007567        0.00337917
     235          0.158429        0.000000        0.00542741        0.00076197        0.00008451        0.01501322
     236          0.171133        0.000000        0.00001506        0.00044438        0.00034786        0.00010060
     237          0.208267        0.000000        0.00021302        0.00053099        0.00001549        0.00092039
     238          0.217781        0.000000        0.00470206        0.00000024        0.00002532        0.00701886
     239          0.247307        0.000000        0.00235804        0.00064252        0.00004430        0.00253990
     240          0.276236        0.000000        0.00000170        0.00149239        0.00545187        0.00026766
     241          0.284850        0.000000        0.00213575        0.00240579        0.00212549        0.00024856
     242          0.291373        0.000000        0.00007914        0.00710288        0.00002544        0.00019791
     243          0.294640        0.000000        0.00210404        0.00261983        0.00106868        0.00095289
     244          0.297870        0.000000        0.00001877        0.00234038        0.00122822        0.00317781
     245          0.299453        0.000000        0.00005953        0.00332555        0.00380509        0.00117234
     246          0.300938        0.000000        0.00008514        0.00114779        0.00475011        0.00228198
     247          0.301249        0.000000        0.00319093        0.00226771        0.00063641        0.00055664
     248          0.302752        0.000000        0.00008574        0.00759441        0.00145494        0.00055359
     249          0.308412        0.000000        0.00004164        0.00863581        0.00167413        0.00219899
     250          0.321901        0.000000        0.00350199        0.00029930        0.00274062        0.00168171
     251          0.332468        0.000000        0.00407136        0.00183265        0.00265675        0.00005463
     252          0.333066        0.000000        0.00408253        0.00036480        0.00051961        0.00005159
     253          0.349314        0.000000        0.00578356        0.00001727        0.00039284        0.00004601
     254          0.438869        0.000000        0.00010912        0.01090607        0.34581354        0.03366302
     255          0.445460        0.000000        0.00062980        0.36566117        0.00327643        0.02434554
     256          0.448909        0.000000        0.00007505        0.19524751        0.13768648        0.05265738
     257          0.450356        0.000000        0.00010610        0.07041659        0.01825238        0.30636801
     258          0.450590        0.000000        0.00039931        0.17526995        0.21583653        0.00486159
     259          0.453082        0.000000        0.00004945        0.20635738        0.12711443        0.05570717