# Projected DOS for atomic kind Pb at iteration step i = 0, E(Fermi) =    -0.170888 a.u.
#     MO Eigenvalue [a.u.]      Occupation                 s                py                pz                px
       1         -0.976870        1.000000        0.00000001        0.00000012        0.00000015        0.00000008
       2         -0.972841        1.000000        0.00000001        0.00000009        0.00000003        0.00000014
       3         -0.967684        1.000000        0.00000155        0.00002263        0.00002742        0.00001161
       4         -0.958105        1.000000        0.00000006        0.00000048        0.00000044        0.00000042
       5         -0.950349        1.000000        0.00000039        0.00000511        0.00000862        0.00000193
       6         -0.940041        1.000000        0.00000020        0.00000166        0.00000260        0.00000083
       7         -0.933590        1.000000        0.00000012        0.00000096        0.00000079        0.00000135
       8         -0.709919        1.000000        0.00000324        0.00000528        0.00000884        0.00000535
       9         -0.709594        1.000000        0.00000149        0.00000285        0.00000166        0.00000086
      10         -0.703074        1.000000        0.00004970        0.00009315        0.00007772        0.00012151
      11         -0.697966        1.000000        0.00000736        0.00001251        0.00001309        0.00001450
      12         -0.695251        1.000000        0.00001981        0.00001631        0.00002254        0.00000179
      13         -0.683102        1.000000        0.00003164        0.00003689        0.00002523        0.00002347
      14         -0.678587        1.000000        0.00000559        0.00000816        0.00000241        0.00000822
      15         -0.626296        1.000000        0.00082847        0.00083305        0.00035508        0.00001034
      16         -0.615944        1.000000        0.00633306        0.00569152        0.00142970        0.00009751
      17         -0.615531        1.000000        0.00311622        0.00205936        0.00008677        0.00287066
      18         -0.608934        1.000000        0.00007062        0.00001148        0.00000519        0.00002478
      19         -0.606733        1.000000        0.00900001        0.00200455        0.00025404        0.00447109
      20         -0.598655        1.000000        0.09737005        0.00129001        0.01323374        0.00010361
      21         -0.597420        1.000000        0.00272964        0.00006730        0.00097610        0.00032529
      22         -0.596410        1.000000        0.01135032        0.00095000        0.00070585        0.00278904
      23         -0.588478        1.000000        0.00751446        0.00033942        0.00014090        0.00025905
      24         -0.587862        1.000000        0.03173308        0.00176613        0.01367246        0.00113216
      25         -0.586834        1.000000        0.02756448        0.00746898        0.00745930        0.00090663
      26         -0.585571        1.000000        0.00304311        0.00022498        0.00029583        0.00020200
      27         -0.584838        1.000000        0.02699582        0.00140540        0.00691386        0.00101678
      28         -0.583502        1.000000        0.07961572        0.00016376        0.01138490        0.00159083
      29         -0.581266        1.000000        0.04893684        0.01382367        0.00762964        0.00041261
      30         -0.580957        1.000000        0.01861696        0.00383693        0.00380456        0.00112214
      31         -0.580314        1.000000        0.04487136        0.01653707        0.00271817        0.00132257
      32         -0.579189        1.000000        0.00166733        0.00076902        0.00027777        0.00018188
      33         -0.578630        1.000000        0.02956183        0.01300413        0.00445319        0.00104466
      34         -0.577326        1.000000        0.02582087        0.00415514        0.00321946        0.00132748
      35         -0.576039        1.000000        0.00990167        0.00175566        0.00084567        0.00022862
      36         -0.575038        1.000000        0.00382541        0.00016110        0.00026342        0.00098429
      37         -0.572865        1.000000        0.07177099        0.00245781        0.00453278        0.00432002
      38         -0.570767        1.000000        0.01014681        0.00214089        0.00853360        0.02114988
      39         -0.569668        1.000000        0.00429934        0.00045134        0.00203797        0.00201480
      40         -0.569140        1.000000        0.00826412        0.00157401        0.00777514        0.00595002
      41         -0.567990        1.000000        0.01087751        0.00146167        0.00170934        0.02925779
      42         -0.567815        1.000000        0.00527023        0.01878373        0.01766778        0.00470320
      43         -0.566423        1.000000        0.00013869        0.00025239        0.00048763        0.00298198
      44         -0.565135        1.000000        0.07537645        0.00021387        0.00456658        0.01823143
      45         -0.564789        1.000000        0.06078396        0.00085881        0.00490546        0.01846237
      46         -0.564740        1.000000        0.04118467        0.00062146        0.00616941        0.02015390
      47         -0.562452        1.000000        0.01552935        0.00356893        0.00692307        0.00432606
      48         -0.559845        1.000000        0.03540029        0.00610125        0.00699309        0.00306875
      49         -0.559163        1.000000        0.02849414        0.01028267        0.00709484        0.00436530
      50         -0.557132        1.000000        0.02418013        0.01951158        0.00673498        0.00427013
      51         -0.554897        1.000000        0.02355017        0.00283461        0.00502362        0.00383015
      52         -0.553512        1.000000        0.03332350        0.00248329        0.00402685        0.01666947
      53         -0.553086        1.000000        0.02976188        0.00316322        0.00782948        0.00681348
      54         -0.552957        1.000000        0.00910345        0.01177177        0.00437340        0.00924487
      55         -0.551932        1.000000        0.00050387        0.01241408        0.01390834        0.00020869
      56         -0.551311        1.000000        0.00136374        0.01724720        0.00928550        0.00444669
      57         -0.550993        1.000000        0.00614290        0.00745084        0.01900641        0.00435075
      58         -0.550766        1.000000        0.00904538        0.01218104        0.00803325        0.00355490
      59         -0.550434        1.000000        0.00664731        0.00685213        0.00528605        0.00488091
      60         -0.546473        1.000000        0.00087791        0.00165420        0.02172404        0.00428318
      61         -0.545240        1.000000        0.00570323        0.00028464        0.00674904        0.01708975
      62         -0.545087        1.000000        0.00301639        0.00137975        0.00051687        0.01629944
      63         -0.544752        1.000000        0.00321711        0.01789307        0.00467354        0.00078597
      64         -0.543952        1.000000        0.00435465        0.00314215        0.00351923        0.00590759
      65         -0.499185        1.000000        0.00017748        0.00000856        0.00001286        0.00001413
      66         -0.492608        1.000000        0.00032504        0.00002030        0.00000070        0.00000412
      67         -0.489119        1.000000        0.00021161        0.00006511        0.00011653        0.00018602
      68         -0.482499        1.000000        0.00050991        0.00000834        0.00002605        0.00005984
      69         -0.477995        1.000000        0.00210786        0.00000274        0.00003490        0.00000539
      70         -0.463489        1.000000        0.01853531        0.00007339        0.00014755        0.00002613
      71         -0.458576        1.000000        0.04583170        0.00008632        0.00002992        0.00008958
      72         -0.456743        1.000000        0.62030976        0.00065991        0.00017547        0.00042513
      73         -0.452831        1.000000        0.72766441        0.00052905        0.00096054        0.00140674
      74         -0.448999        1.000000        0.75761767        0.00049067        0.00018985        0.00131582
      75         -0.445140        1.000000        0.75139674        0.00063745        0.00105985        0.00129471
      76         -0.442463        1.000000        0.75062441        0.00053879        0.00022857        0.00090147
      77         -0.440038        1.000000        0.75752489        0.00014743        0.00057007        0.00042676
      78         -0.438121        1.000000        0.76903179        0.00006716        0.00021657        0.00094949
      79         -0.432906        1.000000        0.76234840        0.00020554        0.00028840        0.00094792
      80         -0.424688        1.000000        0.00084422        0.00001035        0.00000621        0.00001804
      81         -0.422500        1.000000        0.00047702        0.00001155        0.00000317        0.00000504
      82         -0.417073        1.000000        0.00198590        0.00002206        0.00002521        0.00008296
      83         -0.416254        1.000000        0.00041502        0.00010925        0.00006347        0.00024772
      84         -0.416112        1.000000        0.00445513        0.00008749        0.00005728        0.00008008
      85         -0.413769        1.000000        0.00897051        0.00009845        0.00036785        0.00021608
      86         -0.411629        1.000000        0.00028496        0.00000523        0.00000053        0.00005820
      87         -0.411612        1.000000        0.00009801        0.00002494        0.00002619        0.00001032
      88         -0.410295        1.000000        0.00069943        0.00002663        0.00005713        0.00011706
      89         -0.407815        1.000000        0.00021724        0.00002221        0.00003488        0.00000243
      90         -0.401460        1.000000        0.00143300        0.00010793        0.00022630        0.00002446
      91         -0.399672        1.000000        0.00085485        0.00014903        0.00013145        0.00013537
      92         -0.395468        1.000000        0.00066407        0.00001921        0.00000854        0.00011191
      93         -0.394327        1.000000        0.00072988        0.00000909        0.00002555        0.00015243
      94         -0.305828        1.000000        0.00057862        0.01206046        0.00075136        0.00011685
      95         -0.292851        1.000000        0.00121021        0.01243039        0.01095551        0.00079537
      96         -0.290803        1.000000        0.00105548        0.00863783        0.00097449        0.01180918
      97         -0.277985        1.000000        0.00102689        0.04419495        0.01581262        0.02305966
      98         -0.271354        1.000000        0.00267476        0.05576582        0.16303176        0.00109470
      99         -0.265565        1.000000        0.00463890        0.05064947        0.06180287        0.09417172
     100         -0.262062        1.000000        0.00629645        0.04058222        0.03655645        0.17234604
     101         -0.259102        1.000000        0.00434932        0.05548236        0.13494855        0.05835227
     102         -0.258267        1.000000        0.00199971        0.01552285        0.18598677        0.03810559
     103         -0.257276        1.000000        0.00248987        0.14551128        0.10139370        0.00749868
     104         -0.255597        1.000000        0.00026563        0.08016347        0.01042509        0.09230194
     105         -0.253055        1.000000        0.00058704        0.03050570        0.01028936        0.12163697
     106         -0.252632        1.000000        0.00058092        0.02563508        0.01763789        0.14474304
     107         -0.250878        1.000000        0.00792756        0.08730851        0.10653510        0.03921281
     108         -0.249102        1.000000        0.00193987        0.04505911        0.02336967        0.14840855
     109         -0.245814        1.000000        0.00248456        0.14094221        0.04174575        0.03849526
     110         -0.244428        1.000000        0.00551342        0.10672702        0.05330349        0.08754237
     111         -0.243475        1.000000        0.00339781        0.09597677        0.05589290        0.04468153
     112         -0.240769        1.000000        0.00063361        0.02493474        0.03228905        0.09459636
     113         -0.239759        1.000000        0.00022934        0.00375810        0.00299354        0.00711747
     114         -0.239486        1.000000        0.00078084        0.08633320        0.06829542        0.01455058
     115         -0.237211        1.000000        0.00185183        0.10517904        0.04905289        0.04507502
     116         -0.236402        1.000000        0.00177917        0.09498352        0.04383049        0.01676159
     117         -0.235713        1.000000        0.00184102        0.03231142        0.07946695        0.02486333
     118         -0.233930        1.000000        0.00159915        0.02944915        0.01815029        0.08882062
     119         -0.232639        1.000000        0.00338693        0.11529055        0.04529237        0.02305086
     120         -0.230222        1.000000        0.00288741        0.03043426        0.10556155        0.07608252
     121         -0.228668        1.000000        0.00155743        0.01645917        0.11692705        0.05049866
     122         -0.226914        1.000000        0.00448370        0.06562854        0.05973616        0.08497374
     123         -0.225853        1.000000        0.00158277        0.00458699        0.04042323        0.02849582
     124         -0.225386        1.000000        0.00343446        0.07534755        0.08315405        0.04386298
     125         -0.221874        1.000000        0.00518768        0.02117813        0.04123153        0.04623885
     126         -0.221311        1.000000        0.00391272        0.01814549        0.01734297        0.03399433
     127         -0.218792        1.000000        0.00228583        0.01040926        0.01856263        0.02330450
     128         -0.218137        1.000000        0.00693473        0.01466829        0.02386303        0.04497722
     129         -0.216836        1.000000        0.00025988        0.00397591        0.00407322        0.00234624
     130         -0.214780        1.000000        0.00392952        0.01263362        0.02126583        0.00135366
     131         -0.213752        1.000000        0.00618519        0.01444231        0.01960365        0.01652369
     132         -0.211390        1.000000        0.00209030        0.00973409        0.00279121        0.01185111
     133         -0.210322        1.000000        0.00709399        0.02420386        0.00866353        0.01858940
     134         -0.208457        1.000000        0.00774022        0.01586278        0.01127271        0.01720179
     135         -0.207481        1.000000        0.00350523        0.00279749        0.02262315        0.00785451
     136         -0.206807        1.000000        0.00118657        0.00381827        0.00532747        0.00473948
     137         -0.205890        1.000000        0.00177673        0.00112769        0.00416218        0.00195764
     138         -0.204867        1.000000        0.00122136        0.00266567        0.00545815        0.00338616
     139         -0.204656        1.000000        0.00505497        0.01005398        0.00372838        0.01360069
     140         -0.203932        1.000000        0.00070788        0.00170024        0.00090652        0.00206788
     141         -0.202643        1.000000        0.00557050        0.00564636        0.00243818        0.00877902
     142         -0.201775        1.000000        0.00115101        0.00402690        0.00189447        0.00346360
     143         -0.199737        1.000000        0.00492275        0.00452330        0.00235404        0.00400953
     144         -0.198914        1.000000        0.00040365        0.00061775        0.00052632        0.00130332
     145         -0.198468        1.000000        0.00200319        0.00516042        0.00163630        0.00226703
     146         -0.197400        1.000000        0.00162547        0.00231225        0.00213561        0.00257944
     147         -0.196947        1.000000        0.01524191        0.02985221        0.01107260        0.00844381
     148         -0.196335        1.000000        0.00590377        0.00672265        0.00203685        0.00505883
     149         -0.195378        1.000000        0.00453930        0.00328515        0.00385854        0.00332020
     150         -0.194376        1.000000        0.00990361        0.00530238        0.00353390        0.01196729
     151         -0.193729        1.000000        0.01546841        0.01208626        0.00315286        0.01704872
     152         -0.193407        1.000000        0.00364343        0.00498281        0.00048910        0.00457192
     153         -0.193002        1.000000        0.01051880        0.00692773        0.00401194        0.00665206
     154         -0.192037        1.000000        0.00365885        0.00253688        0.00164560        0.00243934
     155         -0.191752        1.000000        0.00275140        0.00264879        0.00356049        0.00204782
     156         -0.190653        1.000000        0.01173149        0.00598663        0.00367934        0.00514705
     157         -0.190118        1.000000        0.00518893        0.00339746        0.00205202        0.00248352
     158         -0.189341        1.000000        0.02189077        0.01005264        0.00673789        0.01151901
     159         -0.188814        1.000000        0.00119196        0.00055747        0.00178957        0.00053362
     160         -0.188160        1.000000        0.00505798        0.00433404        0.00069483        0.00404384
     161         -0.187267        1.000000        0.00790471        0.00520746        0.00097052        0.00468464
     162         -0.186642        1.000000        0.00747304        0.00227959        0.00310394        0.00520088
     163         -0.185336        1.000000        0.00326501        0.00121654        0.00070710        0.00130426
     164         -0.185294        1.000000        0.00542738        0.00183823        0.00144566        0.00173084
     165         -0.184820        1.000000        0.00756074        0.00278728        0.00531663        0.00216101
     166         -0.184488        1.000000        0.00591229        0.00132151        0.00359640        0.00219955
     167         -0.183022        1.000000        0.00092189        0.00036666        0.00024399        0.00075748
     168         -0.182577        1.000000        0.00220444        0.00042179        0.00026146        0.00086324
     169         -0.181916        1.000000        0.01445622        0.00308592        0.00062471        0.00230399
     170         -0.181365        1.000000        0.00556407        0.00272543        0.00195529        0.00046419
     171         -0.180415        1.000000        0.00174421        0.00206457        0.00186346        0.00011045
     172         -0.179825        1.000000        0.00379158        0.00495500        0.00075537        0.00209867
     173         -0.178925        1.000000        0.00393185        0.00271484        0.00050227        0.00142410
     174         -0.178684        1.000000        0.00248401        0.00116088        0.00024781        0.00251367
     175         -0.178365        1.000000        0.00201484        0.00048695        0.00012778        0.00139811
     176         -0.177760        1.000000        0.02133788        0.00248242        0.00238605        0.00266157
     177         -0.177163        1.000000        0.01911498        0.00596374        0.00227114        0.00545369
     178         -0.176657        1.000000        0.01246193        0.00391723        0.00099314        0.00199116
     179         -0.176206        1.000000        0.00601702        0.00101694        0.00031621        0.00085919
     180         -0.175959        1.000000        0.00115753        0.00029290        0.00305867        0.00018674
     181         -0.175543        1.000000        0.01259829        0.00259320        0.00039341        0.00184132
     182         -0.174032        1.000000        0.02439042        0.00283077        0.00302312        0.00887636
     183         -0.173640        1.000000        0.02837060        0.00136128        0.00325876        0.00418783
     184         -0.173256        1.000000        0.01141041        0.00050429        0.00067979        0.00215433
     185         -0.173202        1.000000        0.01455440        0.00122125        0.00227453        0.00484349
     186         -0.173133        1.000000        0.01217797        0.00096898        0.00150441        0.00435572
     187         -0.172691        1.000000        0.01169257        0.00075964        0.00105351        0.00164606
     188         -0.172343        1.000000        0.01096430        0.00105526        0.00093094        0.00105161
     189         -0.172103        1.000000        0.02027216        0.00125402        0.00156610        0.00132682
     190         -0.171978        1.000000        0.01772453        0.00151911        0.00106525        0.00213026
     191         -0.171780        1.000000        0.01835541        0.00093311        0.00123144        0.00207828
     192         -0.171711        1.000000        0.07069277        0.00426251        0.00234458        0.00707294
     193         -0.171612        1.000000        0.00799998        0.00109112        0.00062526        0.00075570
     194         -0.171103        1.000000        0.03292644        0.00121414        0.00087570        0.00134845
     195         -0.170888        1.000000        0.00584748        0.00042720        0.00048708        0.00033532
     196         -0.170741        0.000000        0.01312710        0.00109398        0.00077736        0.00029193
     197         -0.170577        0.000000        0.00308908        0.00030143        0.00019134        0.00035473
     198         -0.170357        0.000000        0.07062761        0.00376873        0.00050317        0.00370222
     199         -0.170282        0.000000        0.04175427        0.00171827        0.00118225        0.00336345
     200         -0.169617        0.000000        0.08543010        0.00582074        0.00280573        0.00340112
     201         -0.166213        0.000000        0.00375569        0.00092650        0.00002579        0.00025782
     202         -0.065459        0.000000        0.00471220        0.32491251        0.33696055        0.06056505
     203         -0.060708        0.000000        0.00520503        0.37837145        0.25493093        0.07878654
     204         -0.056286        0.000000        0.00365942        0.62960223        0.01821243        0.08846931
     205         -0.047629        0.000000        0.00527420        0.24994862        0.02346465        0.44271658
     206         -0.044273        0.000000        0.00776821        0.51613962        0.05461878        0.13842447
     207         -0.043033        0.000000        0.00793764        0.06577412        0.34242847        0.28177310
     208         -0.042369        0.000000        0.00256133        0.26706821        0.33176214        0.09713029
     209         -0.041332        0.000000        0.00406643        0.02800343        0.27636335        0.38678930
     210         -0.039500        0.000000        0.00091715        0.31084974        0.04867876        0.35025788
     211         -0.037268        0.000000        0.00334411        0.23175377        0.36562412        0.10574955
     212         -0.035304        0.000000        0.00186244        0.07732115        0.41783157        0.20505972
     213         -0.032877        0.000000        0.00570713        0.14704112        0.05341729        0.49798758
     214         -0.032228        0.000000        0.00323508        0.26370211        0.07594984        0.35846877
     215         -0.031830        0.000000        0.00098291        0.24788038        0.27391748        0.17745999
     216         -0.031082        0.000000        0.00393465        0.50777649        0.01307211        0.16336467
     217         -0.028595        0.000000        0.00224742        0.19527865        0.03059192        0.46992563
     218         -0.027320        0.000000        0.00129802        0.23074461        0.24716041        0.22898650
     219         -0.022857        0.000000        0.00131897        0.48078196        0.16938733        0.04378949
     220         -0.018485        0.000000        0.00242273        0.11404938        0.44809381        0.12636142
     221         -0.017725        0.000000        0.00010867        0.01246211        0.64880068        0.01957133
     222         -0.016999        0.000000        0.00431738        0.14121942        0.43226165        0.12173364
     223         -0.014423        0.000000        0.00122845        0.15018340        0.47431101        0.07400245
     224         -0.012420        0.000000        0.00097604        0.04348865        0.22562769        0.41354436
     225         -0.003998        0.000000        0.00031967        0.02318426        0.04326237        0.61474204
     226          0.078969        0.000000        0.00000751        0.00019851        0.00001360        0.00008048
     227          0.086774        0.000000        0.00000260        0.00048361        0.00017339        0.00115151
     228          0.088422        0.000000        0.00000165        0.00005503        0.00008109        0.00005040
     229          0.095327        0.000000        0.00000209        0.00012302        0.00010610        0.00020811
     230          0.100472        0.000000        0.00000182        0.00001923        0.00006894        0.00002054
     231          0.103387        0.000000        0.00000397        0.00001628        0.00004606        0.00015454
     232          0.104699        0.000000        0.00000447        0.00005046        0.00018977        0.00002527
     233          0.141106        0.000000        0.00000053        0.00001481        0.00000625        0.00000299
     234          0.153304        0.000000        0.00000029        0.00000404        0.00000320        0.00001292
     235          0.158117        0.000000        0.00000049        0.00001045        0.00000732        0.00001501
     236          0.170804        0.000000        0.00000137        0.00000032        0.00000230        0.00003441
     237          0.207941        0.000000        0.00000015        0.00000490        0.00001604        0.00003265
     238          0.217462        0.000000        0.00000457        0.00000188        0.00000183        0.00006256
     239          0.246985        0.000000        0.00000182        0.00025614        0.00027528        0.00002232
     240          0.275909        0.000000        0.00000367        0.00001571        0.00000105        0.00011292
     241          0.284510        0.000000        0.00000196        0.00000280        0.00001245        0.00002456
     242          0.291042        0.000000        0.00000840        0.00004889        0.00008784        0.00000747
     243          0.294309        0.000000        0.00000710        0.00024363        0.00040765        0.00035678
     244          0.297558        0.000000        0.00002221        0.00009963        0.00028000        0.00006553
     245          0.299139        0.000000        0.00003433        0.00006428        0.00021577        0.00022378
     246          0.300623        0.000000        0.00003236        0.00005259        0.00007105        0.00026116
     247          0.300923        0.000000        0.00000322        0.00003052        0.00000797        0.00016691
     248          0.302444        0.000000        0.00000641        0.00005982        0.00010121        0.00003133
     249          0.308104        0.000000        0.00001181        0.00002396        0.00009559        0.00007235
     250          0.321571        0.000000        0.00001841        0.00007034        0.00019210        0.00001702
     251          0.332158        0.000000        0.00000831        0.00003997        0.00009182        0.00002964
     252          0.332753        0.000000        0.00003115        0.00011533        0.00038702        0.00002570
     253          0.349011        0.000000        0.00005571        0.00003895        0.00010144        0.00049582
     254          0.438586        0.000000        0.00000068        0.00000178        0.00000076        0.00001121
     255          0.445181        0.000000        0.00000077        0.00000097        0.00000133        0.00000955
     256          0.448623        0.000000        0.00000177        0.00000819        0.00001664        0.00003735
     257          0.450068        0.000000        0.00000444        0.00003190        0.00003094        0.00001043
     258          0.450295        0.000000        0.00000056        0.00000762        0.00001457        0.00000589
     259          0.452789        0.000000        0.00000139        0.00000414        0.00000780        0.00001072