# Projected DOS for atomic kind I at iteration step i = 0, E(Fermi) =    -0.170888 a.u.
#     MO Eigenvalue [a.u.]      Occupation                 s                py                pz                px
       1         -0.976870        1.000000        0.00000112        0.00000994        0.00001734        0.00000206
       2         -0.972841        1.000000        0.00003716        0.00009471        0.00018011        0.00001472
       3         -0.967684        1.000000        0.00002090        0.00010572        0.00010211        0.00003838
       4         -0.958105        1.000000        0.00004408        0.00015853        0.00007009        0.00010828
       5         -0.950349        1.000000        0.00008220        0.00020652        0.00014736        0.00012628
       6         -0.940041        1.000000        0.00017046        0.00038614        0.00007484        0.00038411
       7         -0.933590        1.000000        0.00012563        0.00033123        0.00032489        0.00008388
       8         -0.709919        1.000000        0.00016889        0.00012550        0.00010068        0.00006966
       9         -0.709594        1.000000        0.00016357        0.00005560        0.00006880        0.00014537
      10         -0.703074        1.000000        0.00046728        0.00011734        0.00027469        0.00023961
      11         -0.697966        1.000000        0.00043369        0.00025846        0.00009024        0.00016171
      12         -0.695251        1.000000        0.00102067        0.00031598        0.00016262        0.00016700
      13         -0.683102        1.000000        0.00224464        0.00042950        0.00045529        0.00051567
      14         -0.678587        1.000000        0.00079306        0.00011889        0.00028234        0.00015263
      15         -0.626296        1.000000        0.96355399        0.01810640        0.01344323        0.00220072
      16         -0.615944        1.000000        0.93874903        0.00996637        0.01258791        0.00204745
      17         -0.615531        1.000000        0.84215980        0.00820506        0.00199250        0.00881210
      18         -0.608934        1.000000        0.00179884        0.00006649        0.00019610        0.00001754
      19         -0.606733        1.000000        0.65607054        0.00450868        0.00246227        0.00638295
      20         -0.598655        1.000000        0.81374443        0.00458249        0.00571678        0.00299123
      21         -0.597420        1.000000        0.03383770        0.00023585        0.00033223        0.00054381
      22         -0.596410        1.000000        0.45075980        0.00216271        0.00131645        0.00420394
      23         -0.588478        1.000000        0.14557570        0.00279391        0.00063005        0.00094695
      24         -0.587862        1.000000        0.62486462        0.00122715        0.00234616        0.00239911
      25         -0.586834        1.000000        0.63926114        0.00186161        0.00133678        0.00202830
      26         -0.585571        1.000000        0.09775502        0.00023179        0.00159030        0.00111852
      27         -0.584838        1.000000        0.43828286        0.00195601        0.00221111        0.00210994
      28         -0.583502        1.000000        0.63750930        0.00276303        0.00455361        0.00389664
      29         -0.581266        1.000000        0.72109616        0.00469734        0.00287993        0.00261741
      30         -0.580957        1.000000        0.91451708        0.00609917        0.00484164        0.00185374
      31         -0.580314        1.000000        0.85638176        0.00585675        0.00378036        0.00211249
      32         -0.579189        1.000000        0.03464056        0.00028324        0.00029515        0.00013193
      33         -0.578630        1.000000        0.57303824        0.00290640        0.00116548        0.00154144
      34         -0.577326        1.000000        0.59026532        0.00188475        0.00392127        0.00140018
      35         -0.576039        1.000000        0.85541892        0.00333370        0.00441814        0.00148072
      36         -0.575038        1.000000        0.93341272        0.00341461        0.00146171        0.00479406
      37         -0.572865        1.000000        0.81974396        0.00283089        0.00333235        0.00294069
      38         -0.570767        1.000000        0.83453426        0.00179664        0.00125272        0.00152775
      39         -0.569668        1.000000        0.19571884        0.00120097        0.00106783        0.00073062
      40         -0.569140        1.000000        0.61547450        0.00234477        0.00140333        0.00116970
      41         -0.567990        1.000000        0.78536659        0.00121309        0.00159196        0.00132478
      42         -0.567815        1.000000        0.94658874        0.00054698        0.00098537        0.00177655
      43         -0.566423        1.000000        0.97789111        0.00399848        0.00156022        0.00313445
      44         -0.565135        1.000000        0.76493974        0.00250527        0.00400771        0.00465109
      45         -0.564789        1.000000        0.82787241        0.00316575        0.00309771        0.00350483
      46         -0.564740        1.000000        0.86292426        0.00237979        0.00242382        0.00254478
      47         -0.562452        1.000000        0.48865327        0.00170653        0.00186438        0.00144927
      48         -0.559845        1.000000        0.54256729        0.00285690        0.00304057        0.00336115
      49         -0.559163        1.000000        0.66870978        0.00267710        0.00273351        0.00215902
      50         -0.557132        1.000000        0.82079891        0.00330880        0.00128893        0.00123113
      51         -0.554897        1.000000        0.40532968        0.00379394        0.00158605        0.00264257
      52         -0.553512        1.000000        0.80710834        0.00104552        0.00197554        0.00279646
      53         -0.553086        1.000000        0.60887531        0.00066552        0.00248939        0.00144651
      54         -0.552957        1.000000        0.85673092        0.00082020        0.00134708        0.00070487
      55         -0.551932        1.000000        0.94017681        0.00059295        0.00111204        0.00043728
      56         -0.551311        1.000000        0.92081394        0.00159269        0.00047637        0.00048039
      57         -0.550993        1.000000        0.91241290        0.00067813        0.00162900        0.00113612
      58         -0.550766        1.000000        0.80782781        0.00133413        0.00165159        0.00114656
      59         -0.550434        1.000000        0.59876958        0.00074925        0.00132858        0.00131374
      60         -0.546473        1.000000        0.82890307        0.00042072        0.00093003        0.00142035
      61         -0.545240        1.000000        0.91153338        0.00037218        0.00056236        0.00152308
      62         -0.545087        1.000000        0.96625783        0.00052656        0.00045603        0.00108938
      63         -0.544752        1.000000        0.96718596        0.00146581        0.00020334        0.00129904
      64         -0.543952        1.000000        0.38609021        0.00156035        0.00093607        0.00123253
      65         -0.499185        1.000000        0.00125091        0.00034786        0.00023778        0.00023376
      66         -0.492608        1.000000        0.00065443        0.00024144        0.00046312        0.00030591
      67         -0.489119        1.000000        0.00447522        0.00030134        0.00082240        0.00036148
      68         -0.482499        1.000000        0.00216146        0.00082906        0.00036222        0.00044990
      69         -0.477995        1.000000        0.00221417        0.00116219        0.00079156        0.00067044
      70         -0.463489        1.000000        0.00566169        0.00410096        0.00204111        0.00285209
      71         -0.458576        1.000000        0.01290637        0.00431614        0.00541631        0.00263935
      72         -0.456743        1.000000        0.18054369        0.04007441        0.04825418        0.02925497
      73         -0.452831        1.000000        0.14460851        0.02751937        0.04761558        0.04618880
      74         -0.448999        1.000000        0.12462481        0.02858437        0.03419383        0.04437519
      75         -0.445140        1.000000        0.12688949        0.03961569        0.04290661        0.03306467
      76         -0.442463        1.000000        0.13800340        0.03796344        0.03427329        0.03359939
      77         -0.440038        1.000000        0.13973610        0.03287619        0.03229418        0.02967198
      78         -0.438121        1.000000        0.12405330        0.03231468        0.03532395        0.03284590
      79         -0.432906        1.000000        0.12659828        0.02443782        0.03568133        0.03313083
      80         -0.424688        1.000000        0.00040604        0.00027023        0.00027310        0.00076774
      81         -0.422500        1.000000        0.00022306        0.00039668        0.00014815        0.00052887
      82         -0.417073        1.000000        0.00135810        0.00087094        0.00083115        0.00032548
      83         -0.416254        1.000000        0.00146072        0.00111883        0.00090564        0.00220030
      84         -0.416112        1.000000        0.00225381        0.00098272        0.00112497        0.00199371
      85         -0.413769        1.000000        0.00226061        0.00164415        0.00120269        0.00125244
      86         -0.411629        1.000000        0.00135747        0.00138122        0.00020713        0.00265577
      87         -0.411612        1.000000        0.00052851        0.00060968        0.00066684        0.00109160
      88         -0.410295        1.000000        0.00097826        0.00117784        0.00089548        0.00078115
      89         -0.407815        1.000000        0.00137075        0.00168694        0.00016467        0.00150901
      90         -0.401460        1.000000        0.00307416        0.00378050        0.00301702        0.00606798
      91         -0.399672        1.000000        0.00204364        0.00168323        0.00313162        0.00411201
      92         -0.395468        1.000000        0.00105298        0.00098959        0.00133326        0.00051476
      93         -0.394327        1.000000        0.00074961        0.00059354        0.00126559        0.00126115
      94         -0.305828        1.000000        0.03266184        0.50242682        0.40269615        0.04852515
      95         -0.292851        1.000000        0.02632794        0.37312904        0.55175426        0.02199053
      96         -0.290803        1.000000        0.02284967        0.33952099        0.07839865        0.53639074
      97         -0.277985        1.000000        0.01871072        0.34791550        0.07067784        0.47751757
      98         -0.271354        1.000000        0.01837841        0.17982108        0.49036625        0.08455595
      99         -0.265565        1.000000        0.00760874        0.24461630        0.12591909        0.40878259
     100         -0.262062        1.000000        0.00964755        0.17869488        0.15125569        0.40195961
     101         -0.259102        1.000000        0.01381418        0.20544526        0.36972908        0.15641204
     102         -0.258267        1.000000        0.01102528        0.11194493        0.50386001        0.12827682
     103         -0.257276        1.000000        0.02198914        0.38597511        0.23956847        0.09486510
     104         -0.255597        1.000000        0.00649644        0.41463171        0.24725926        0.14483065
     105         -0.253055        1.000000        0.00847168        0.36976673        0.13348462        0.32102665
     106         -0.252632        1.000000        0.01046549        0.31149797        0.17365832        0.31239984
     107         -0.250878        1.000000        0.01280045        0.26770413        0.33501145        0.14133914
     108         -0.249102        1.000000        0.01351896        0.23570276        0.17465867        0.35535143
     109         -0.245814        1.000000        0.01352321        0.41207070        0.15477928        0.19441712
     110         -0.244428        1.000000        0.01347467        0.34055095        0.19153177        0.19857377
     111         -0.243475        1.000000        0.01107185        0.38450348        0.25460548        0.14871597
     112         -0.240769        1.000000        0.00838752        0.06409850        0.49282933        0.27989978
     113         -0.239759        1.000000        0.00099211        0.13576881        0.04936870        0.79734404
     114         -0.239486        1.000000        0.01086863        0.23481367        0.18809956        0.39184410
     115         -0.237211        1.000000        0.01171759        0.20684358        0.26880691        0.30645163
     116         -0.236402        1.000000        0.00963449        0.28332088        0.30963810        0.23826887
     117         -0.235713        1.000000        0.00812082        0.14819760        0.33102676        0.37155159
     118         -0.233930        1.000000        0.00855041        0.14786804        0.33951859        0.36290785
     119         -0.232639        1.000000        0.01495174        0.26181154        0.34531961        0.18820723
     120         -0.230222        1.000000        0.01480186        0.15466599        0.24275597        0.36924293
     121         -0.228668        1.000000        0.01314313        0.05891203        0.32876467        0.40988183
     122         -0.226914        1.000000        0.01375985        0.26194731        0.22171776        0.28417992
     123         -0.225853        1.000000        0.00585707        0.11493135        0.60208047        0.19700775
     124         -0.225386        1.000000        0.01425969        0.26426848        0.29913850        0.21364155
     125         -0.221874        1.000000        0.00722083        0.19536934        0.27175320        0.40595172
     126         -0.221311        1.000000        0.00324541        0.49652952        0.18733437        0.22679484
     127         -0.218792        1.000000        0.00397252        0.23121686        0.16332149        0.54288010
     128         -0.218137        1.000000        0.00375963        0.35994491        0.21607471        0.32305270
     129         -0.216836        1.000000        0.00148472        0.47018550        0.26023807        0.25370154
     130         -0.214780        1.000000        0.00287390        0.26279113        0.17694369        0.51009984
     131         -0.213752        1.000000        0.00419595        0.43218451        0.23158509        0.26152514
     132         -0.211390        1.000000        0.00221051        0.38160514        0.12018961        0.46646198
     133         -0.210322        1.000000        0.00364053        0.25488175        0.20365363        0.47552149
     134         -0.208457        1.000000        0.00327474        0.28892095        0.32836991        0.32390831
     135         -0.207481        1.000000        0.00195998        0.22581655        0.59510465        0.13078417
     136         -0.206807        1.000000        0.00148128        0.36724719        0.35720264        0.25650328
     137         -0.205890        1.000000        0.00087452        0.40459038        0.26522842        0.31787061
     138         -0.204867        1.000000        0.00107931        0.42569174        0.17859256        0.37829147
     139         -0.204656        1.000000        0.00170708        0.30968890        0.26617937        0.38538919
     140         -0.203932        1.000000        0.00044441        0.39073440        0.24478351        0.35701544
     141         -0.202643        1.000000        0.00139199        0.34583076        0.34547303        0.28208265
     142         -0.201775        1.000000        0.00088764        0.37981053        0.08440392        0.52303971
     143         -0.199737        1.000000        0.00088014        0.43626101        0.21289315        0.33172330
     144         -0.198914        1.000000        0.00028462        0.08287201        0.65680759        0.25668066
     145         -0.198468        1.000000        0.00077047        0.52123886        0.16425033        0.30072654
     146         -0.197400        1.000000        0.00107061        0.30438118        0.26145690        0.42284487
     147         -0.196947        1.000000        0.00245659        0.43548604        0.28434996        0.20994824
     148         -0.196335        1.000000        0.00100013        0.28150774        0.42529954        0.26972878
     149         -0.195378        1.000000        0.00128039        0.29144809        0.50503887        0.18343338
     150         -0.194376        1.000000        0.00126831        0.29545402        0.32426820        0.34378513
     151         -0.193729        1.000000        0.00129095        0.21980989        0.35054693        0.37658796
     152         -0.193407        1.000000        0.00081451        0.23395301        0.49785244        0.25136077
     153         -0.193002        1.000000        0.00193814        0.42539631        0.33207995        0.20623067
     154         -0.192037        1.000000        0.00153022        0.35311882        0.39798657        0.23076941
     155         -0.191752        1.000000        0.00055073        0.19706646        0.52037878        0.26973948
     156         -0.190653        1.000000        0.00133424        0.23886300        0.41748389        0.31119413
     157         -0.190118        1.000000        0.00105106        0.20630050        0.41787898        0.35709542
     158         -0.189341        1.000000        0.00194581        0.32502814        0.33218107        0.28766035
     159         -0.188814        1.000000        0.00163329        0.38901812        0.52446235        0.07636858
     160         -0.188160        1.000000        0.00074047        0.42477222        0.42817087        0.12966678
     161         -0.187267        1.000000        0.00085179        0.35692671        0.46854572        0.15125553
     162         -0.186642        1.000000        0.00227784        0.50364258        0.21782876        0.25225630
     163         -0.185336        1.000000        0.00067667        0.35536184        0.24083530        0.39576542
     164         -0.185294        1.000000        0.00109125        0.37607791        0.26705132        0.34339795
     165         -0.184820        1.000000        0.00133277        0.24157933        0.44823896        0.28849724
     166         -0.184488        1.000000        0.00114411        0.26492717        0.41413943        0.30421718
     167         -0.183022        1.000000        0.00032687        0.28751964        0.35346368        0.35571364
     168         -0.182577        1.000000        0.00031072        0.26331673        0.33180812        0.40015683
     169         -0.181916        1.000000        0.00068924        0.29416965        0.42718473        0.25598255
     170         -0.181365        1.000000        0.00082444        0.44405318        0.37677256        0.16702057
     171         -0.180415        1.000000        0.00027371        0.35202381        0.41975379        0.22146787
     172         -0.179825        1.000000        0.00115136        0.43000318        0.27435936        0.28068498
     173         -0.178925        1.000000        0.00059552        0.33515510        0.34014496        0.31459082
     174         -0.178684        1.000000        0.00061323        0.29644841        0.26820414        0.42708765
     175         -0.178365        1.000000        0.00083436        0.22655685        0.20834366        0.55938491
     176         -0.177760        1.000000        0.00061418        0.39670823        0.15280303        0.42031061
     177         -0.177163        1.000000        0.00103712        0.50681644        0.14592103        0.31197988
     178         -0.176657        1.000000        0.00045200        0.37062163        0.13351134        0.47516596
     179         -0.176206        1.000000        0.00039867        0.25377761        0.23221220        0.50454437
     180         -0.175959        1.000000        0.00059844        0.07918190        0.88142964        0.03288291
     181         -0.175543        1.000000        0.00044624        0.66614848        0.15719986        0.15720696
     182         -0.174032        1.000000        0.00127775        0.15004132        0.32776797        0.48049629
     183         -0.173640        1.000000        0.00082497        0.37665075        0.18360260        0.40116452
     184         -0.173256        1.000000        0.00105542        0.45238409        0.20769433        0.32368723
     185         -0.173202        1.000000        0.00078172        0.29781786        0.38403861        0.29389594
     186         -0.173133        1.000000        0.00066497        0.13809035        0.64029675        0.20106300
     187         -0.172691        1.000000        0.00032475        0.25084128        0.18688196        0.54626407
     188         -0.172343        1.000000        0.00056026        0.12545126        0.48126988        0.37804889
     189         -0.172103        1.000000        0.00079743        0.17325087        0.29040166        0.50971300
     190         -0.171978        1.000000        0.00077211        0.32799465        0.23931146        0.40794706
     191         -0.171780        1.000000        0.00082050        0.38249343        0.26344639        0.32940021
     192         -0.171711        1.000000        0.00230948        0.21288791        0.31337236        0.38666755
     193         -0.171612        1.000000        0.00030101        0.46022824        0.22733572        0.30142326
     194         -0.171103        1.000000        0.00128198        0.35230406        0.34958688        0.26015916
     195         -0.170888        1.000000        0.00094748        0.36754490        0.40314578        0.22113879
     196         -0.170741        0.000000        0.00550823        0.37975877        0.42919289        0.17000092
     197         -0.170577        0.000000        0.00592416        0.35705950        0.18685423        0.44602532
     198         -0.170357        0.000000        0.00233186        0.29104111        0.34407984        0.28369861
     199         -0.170282        0.000000        0.00331132        0.30956005        0.21079074        0.42792848
     200         -0.169617        0.000000        0.00106054        0.28352278        0.19659865        0.42105336
     201         -0.166213        0.000000        0.01058846        0.50728773        0.40770016        0.06941630
     202         -0.065459        0.000000        0.01487351        0.12755853        0.11480522        0.01372836
     203         -0.060708        0.000000        0.01916363        0.05312845        0.15432319        0.05544541
     204         -0.056286        0.000000        0.02309304        0.17156981        0.01919079        0.04549749
     205         -0.047629        0.000000        0.02725952        0.13721372        0.01525526        0.09797860
     206         -0.044273        0.000000        0.01650197        0.08565500        0.12525567        0.05444735
     207         -0.043033        0.000000        0.02216918        0.04141372        0.13691339        0.10084740
     208         -0.042369        0.000000        0.02327409        0.12967823        0.07127736        0.07643433
     209         -0.041332        0.000000        0.02099896        0.02510575        0.11328619        0.14471202
     210         -0.039500        0.000000        0.01811742        0.04708856        0.07921698        0.14404296
     211         -0.037268        0.000000        0.02116663        0.08738614        0.13587811        0.04835200
     212         -0.035304        0.000000        0.01916304        0.06373204        0.06682829        0.14713570
     213         -0.032877        0.000000        0.02097864        0.05981655        0.05114542        0.16253207
     214         -0.032228        0.000000        0.02111167        0.10155238        0.02629805        0.14848455
     215         -0.031830        0.000000        0.02011930        0.13353090        0.06577568        0.07933289
     216         -0.031082        0.000000        0.02310780        0.17988743        0.04878708        0.05926152
     217         -0.028595        0.000000        0.01879962        0.06850280        0.01386225        0.20009089
     218         -0.027320        0.000000        0.01855690        0.13380390        0.08560387        0.05327717
     219         -0.022857        0.000000        0.01287368        0.19601921        0.06835571        0.02691498
     220         -0.018485        0.000000        0.01533325        0.03962201        0.16187042        0.09176989
     221         -0.017725        0.000000        0.02800351        0.05667987        0.18128437        0.05175394
     222         -0.016999        0.000000        0.01526090        0.05316495        0.19034232        0.04109756
     223         -0.014423        0.000000        0.01729534        0.06987807        0.17595868        0.03543484
     224         -0.012420        0.000000        0.01835873        0.05743699        0.14297927        0.09675589
     225         -0.003998        0.000000        0.01266139        0.04590237        0.00616216        0.25161236
     226          0.078969        0.000000        0.00002870        0.00030512        0.00098986        0.00056241
     227          0.086774        0.000000        0.00006074        0.00027430        0.00138892        0.00033440
     228          0.088422        0.000000        0.00001391        0.00029200        0.00022157        0.00029789
     229          0.095327        0.000000        0.00003455        0.00077648        0.00033401        0.00041731
     230          0.100472        0.000000        0.00005872        0.00106129        0.00065774        0.00036375
     231          0.103387        0.000000        0.00004606        0.00066369        0.00101750        0.00038262
     232          0.104699        0.000000        0.00006747        0.00128968        0.00020570        0.00089572
     233          0.141106        0.000000        0.00001393        0.00017313        0.00017296        0.00016617
     234          0.153304        0.000000        0.00001404        0.00011180        0.00042244        0.00003907
     235          0.158117        0.000000        0.00000983        0.00010172        0.00015336        0.00011230
     236          0.170804        0.000000        0.00000084        0.00006217        0.00006125        0.00007889
     237          0.207941        0.000000        0.00001170        0.00008386        0.00002988        0.00006152
     238          0.217462        0.000000        0.00000598        0.00021845        0.00037803        0.00019780
     239          0.246985        0.000000        0.00002573        0.00038466        0.00020086        0.00012693
     240          0.275909        0.000000        0.00012504        0.00150074        0.00218489        0.00052606
     241          0.284510        0.000000        0.00001857        0.00027134        0.00093500        0.00019543
     242          0.291042        0.000000        0.00020408        0.00432048        0.00060716        0.00181859
     243          0.294309        0.000000        0.00001936        0.00018874        0.00049434        0.00070413
     244          0.297558        0.000000        0.00048767        0.00529270        0.00084665        0.00430111
     245          0.299139        0.000000        0.00063220        0.00759088        0.00300822        0.00238594
     246          0.300623        0.000000        0.00046516        0.00550360        0.00301232        0.00392445
     247          0.300923        0.000000        0.00021928        0.00266440        0.00356919        0.00070165
     248          0.302444        0.000000        0.00028582        0.00348868        0.00204719        0.00232864
     249          0.308104        0.000000        0.00025978        0.00431489        0.00237518        0.00127990
     250          0.321571        0.000000        0.00038199        0.00719852        0.00093667        0.00295081
     251          0.332158        0.000000        0.00079232        0.00844497        0.00121800        0.00610587
     252          0.332753        0.000000        0.00094603        0.01022185        0.00087849        0.00800684
     253          0.349011        0.000000        0.00060752        0.00758999        0.00704731        0.00122350
     254          0.438586        0.000000        0.00003528        0.00015092        0.00026412        0.00003714
     255          0.445181        0.000000        0.00002343        0.00018496        0.00010374        0.00002058
     256          0.448623        0.000000        0.00001627        0.00044477        0.00048127        0.00005072
     257          0.450068        0.000000        0.00000654        0.00005794        0.00003897        0.00011314
     258          0.450295        0.000000        0.00002000        0.00013952        0.00009239        0.00017564
     259          0.452789        0.000000        0.00002804        0.00029030        0.00009179        0.00035406