# Projected DOS for atomic kind N at iteration step i = 0, E(Fermi) =    -0.170199 a.u.
#     MO Eigenvalue [a.u.]      Occupation                 s                py                pz                px
       1         -0.976507        1.000000        0.62587762        0.00003236        0.00010894        0.00013072
       2         -0.972482        1.000000        0.62008951        0.00056861        0.00005538        0.00009370
       3         -0.967328        1.000000        0.62260710        0.00000116        0.00005571        0.00000548
       4         -0.957738        1.000000        0.62019215        0.00004244        0.00058687        0.00040109
       5         -0.949993        1.000000        0.61714786        0.00018058        0.00045293        0.00008796
       6         -0.939683        1.000000        0.61330381        0.00002953        0.00014299        0.00001339
       7         -0.933237        1.000000        0.61368761        0.00002188        0.00000560        0.00016052
       8         -0.709556        1.000000        0.01394609        0.01251360        0.01892047        0.20055256
       9         -0.709244        1.000000        0.01876260        0.01808786        0.02578975        0.16429940
      10         -0.702720        1.000000        0.01653116        0.01001880        0.17548604        0.02473364
      11         -0.697606        1.000000        0.01897398        0.00214845        0.07082337        0.13410006
      12         -0.694905        1.000000        0.02125954        0.00515863        0.01727203        0.17830710
      13         -0.682756        1.000000        0.01746513        0.00268708        0.12699415        0.06106386
      14         -0.678241        1.000000        0.01632284        0.03870748        0.02667886        0.12406021
      15         -0.625984        1.000000        0.00000411        0.00003871        0.00005694        0.00010802
      16         -0.615401        1.000000        0.00033921        0.00638394        0.00250341        0.00368885
      17         -0.615053        1.000000        0.00024850        0.00018801        0.06867125        0.00837245
      18         -0.608547        1.000000        0.00008606        0.24033511        0.29502240        0.07877065
      19         -0.606279        1.000000        0.00025067        0.04824957        0.13449992        0.00832762
      20         -0.598304        1.000000        0.00004153        0.00473701        0.02739649        0.00335503
      21         -0.597042        1.000000        0.00011176        0.26770464        0.10703475        0.21479942
      22         -0.595983        1.000000        0.00014255        0.00987834        0.28671979        0.02901044
      23         -0.588053        1.000000        0.00002077        0.51296272        0.00689857        0.00359902
      24         -0.587403        1.000000        0.00008484        0.10216157        0.01306797        0.06917054
      25         -0.586298        1.000000        0.00031371        0.08431659        0.05140172        0.04877788
      26         -0.585178        1.000000        0.00204415        0.48340628        0.01748163        0.03911920
      27         -0.584385        1.000000        0.00021498        0.17696969        0.08096057        0.05910528
      28         -0.583030        1.000000        0.00006974        0.10224052        0.03117075        0.01003752
      29         -0.580789        1.000000        0.00085661        0.06864733        0.00212194        0.03702610
      30         -0.580632        1.000000        0.00016215        0.02546313        0.00375344        0.00378584
      31         -0.579972        1.000000        0.00013147        0.01802591        0.00635124        0.01638840
      32         -0.578803        1.000000        0.00000753        0.33236581        0.25185475        0.00623475
      33         -0.578255        1.000000        0.00014969        0.10268235        0.02884198        0.09785900
      34         -0.576847        1.000000        0.00028361        0.12770624        0.00545244        0.09700119
      35         -0.575499        1.000000        0.00012816        0.03883013        0.00533996        0.02275027
      36         -0.574536        1.000000        0.00003912        0.01453400        0.01232900        0.00457924
      37         -0.572217        1.000000        0.00017796        0.01508798        0.02040439        0.01537166
      38         -0.570091        1.000000        0.00008199        0.01365986        0.05707958        0.00324336
      39         -0.569221        1.000000        0.00321416        0.00525285        0.25659717        0.23659504
      40         -0.568575        1.000000        0.00042045        0.08749029        0.07559686        0.02843801
      41         -0.567462        1.000000        0.00000572        0.00134835        0.00066154        0.00055479
      42         -0.567292        1.000000        0.00040955        0.05906101        0.00848845        0.02439958
      43         -0.565884        1.000000        0.00002014        0.00470695        0.00094463        0.00025057
      44         -0.564604        1.000000        0.00041422        0.00442871        0.06610543        0.00138501
      45         -0.564320        1.000000        0.00007857        0.00067001        0.00838004        0.00071019
      46         -0.564027        1.000000        0.00008091        0.02437058        0.02476668        0.03902451
      47         -0.561986        1.000000        0.00149590        0.01725718        0.24150085        0.01206471
      48         -0.559295        1.000000        0.00022228        0.02199564        0.09035697        0.16379210
      49         -0.558493        1.000000        0.00013221        0.01549383        0.05091272        0.06766303
      50         -0.556547        1.000000        0.00000963        0.03486043        0.02027428        0.01793833
      51         -0.554391        1.000000        0.00008561        0.33875837        0.00341955        0.00315437
      52         -0.553007        1.000000        0.00003308        0.02041439        0.02775014        0.03571006
      53         -0.552611        1.000000        0.00014159        0.16365305        0.06927028        0.00831964
      54         -0.552129        1.000000        0.00003450        0.01471143        0.00944023        0.00480418
      55         -0.551096        1.000000        0.00001544        0.01742979        0.00149812        0.00548026
      56         -0.550563        1.000000        0.00007859        0.01933686        0.00887206        0.00515403
      57         -0.550343        1.000000        0.00010348        0.05199282        0.00393951        0.00445320
      58         -0.550151        1.000000        0.00008210        0.03925648        0.00303721        0.00572617
      59         -0.549859        1.000000        0.00030904        0.16865303        0.00981143        0.04333321
      60         -0.545864        1.000000        0.00002405        0.03579618        0.02026313        0.02796125
      61         -0.544579        1.000000        0.00001985        0.02463655        0.00842934        0.00022034
      62         -0.544192        1.000000        0.00006205        0.00495135        0.00086009        0.00031137
      63         -0.543802        1.000000        0.00000194        0.00033756        0.00066211        0.00045742
      64         -0.543457        1.000000        0.00003473        0.00018472        0.30957046        0.05189743
      65         -0.498836        1.000000        0.01038591        0.01549288        0.03618500        0.35886071
      66         -0.492264        1.000000        0.00661184        0.00978525        0.04561396        0.38240828
      67         -0.488771        1.000000        0.00805555        0.03691597        0.35011151        0.04461705
      68         -0.482145        1.000000        0.00624362        0.00775405        0.22937193        0.20008339
      69         -0.477652        1.000000        0.00614886        0.01977295        0.00902981        0.40664930
      70         -0.463144        1.000000        0.00782939        0.00739309        0.29460893        0.12979822
      71         -0.458230        1.000000        0.00864549        0.09579136        0.04310961        0.27554442
      72         -0.456388        1.000000        0.00059023        0.00439904        0.00860274        0.02249716
      73         -0.452388        1.000000        0.00000312        0.00042958        0.00055642        0.00053262
      74         -0.448610        1.000000        0.00001248        0.00123149        0.00052096        0.00131076
      75         -0.444761        1.000000        0.00002218        0.00016435        0.00015456        0.00064776
      76         -0.441975        1.000000        0.00002018        0.00022949        0.00022895        0.00086082
      77         -0.439603        1.000000        0.00000738        0.00092860        0.00054102        0.00051744
      78         -0.437852        1.000000        0.00001007        0.00009781        0.00122650        0.00069434
      79         -0.432616        1.000000        0.00000735        0.00017831        0.00020319        0.00066038
      80         -0.424365        1.000000        0.00008216        0.03220018        0.00664433        0.00014671
      81         -0.422174        1.000000        0.00003961        0.00789320        0.02132266        0.00737009
      82         -0.416735        1.000000        0.00001742        0.00255102        0.03226895        0.00081638
      83         -0.415927        1.000000        0.00000735        0.01683909        0.00324252        0.01176717
      84         -0.415785        1.000000        0.00001112        0.01994401        0.00259731        0.00869004
      85         -0.413436        1.000000        0.00000066        0.02880666        0.00007962        0.01031043
      86         -0.411297        1.000000        0.00020012        0.00554824        0.02010648        0.01743364
      87         -0.411290        1.000000        0.00009282        0.00996194        0.02635123        0.00276371
      88         -0.409955        1.000000        0.00001650        0.02759335        0.00613280        0.00192811
      89         -0.407492        1.000000        0.00012752        0.03147904        0.01866592        0.00001576
      90         -0.401141        1.000000        0.00000981        0.02700377        0.00676766        0.00468100
      91         -0.399353        1.000000        0.00000037        0.01043630        0.00712349        0.01925686
      92         -0.395146        1.000000        0.00000013        0.00707071        0.02085878        0.01369301
      93         -0.394008        1.000000        0.00000015        0.02330307        0.01424250        0.00063461
      94         -0.305437        1.000000        0.00000215        0.00000544        0.00000338        0.00001438
      95         -0.292038        1.000000        0.00010800        0.00047119        0.00004776        0.00031199
      96         -0.290104        1.000000        0.00001864        0.00002376        0.00004401        0.00000496
      97         -0.277343        1.000000        0.00009444        0.00028280        0.00007894        0.00013075
      98         -0.270901        1.000000        0.00028819        0.00046528        0.00002959        0.00079876
      99         -0.264863        1.000000        0.00014170        0.00068123        0.00018745        0.00007185
     100         -0.261410        1.000000        0.00029871        0.00050990        0.00068465        0.00032875
     101         -0.258640        1.000000        0.00008756        0.00049974        0.00002817        0.00013517
     102         -0.257609        1.000000        0.00049153        0.00062423        0.00010561        0.00075051
     103         -0.256838        1.000000        0.00003746        0.00026701        0.00005421        0.00005781
     104         -0.255240        1.000000        0.00078150        0.00052636        0.00027801        0.00056683
     105         -0.252739        1.000000        0.00084745        0.00013223        0.00224504        0.00010180
     106         -0.252231        1.000000        0.00042899        0.00025711        0.00047004        0.00024736
     107         -0.250398        1.000000        0.00019093        0.00053497        0.00023911        0.00018515
     108         -0.248721        1.000000        0.00017027        0.00027120        0.00037842        0.00005132
     109         -0.245315        1.000000        0.00003042        0.00001836        0.00032992        0.00007880
     110         -0.244007        1.000000        0.00014346        0.00068947        0.00006768        0.00017906
     111         -0.243048        1.000000        0.00016132        0.00003094        0.00012773        0.00007846
     112         -0.240304        1.000000        0.00026816        0.00055093        0.00043776        0.00016112
     113         -0.239458        1.000000        0.00003120        0.00001095        0.00007696        0.00029517
     114         -0.238951        1.000000        0.00066915        0.00062053        0.00026292        0.00146030
     115         -0.236788        1.000000        0.00113919        0.00030333        0.00117182        0.00034109
     116         -0.235960        1.000000        0.00017709        0.00032417        0.00027618        0.00016038
     117         -0.235320        1.000000        0.00006875        0.00066837        0.00020187        0.00048572
     118         -0.233546        1.000000        0.00059223        0.00035568        0.00014494        0.00039297
     119         -0.232033        1.000000        0.00046225        0.00036432        0.00027372        0.00030093
     120         -0.229899        1.000000        0.00038926        0.00160249        0.00011452        0.00053952
     121         -0.228292        1.000000        0.00076278        0.00036508        0.00062989        0.00037658
     122         -0.226459        1.000000        0.00028984        0.00130396        0.00016612        0.00055017
     123         -0.225522        1.000000        0.00079178        0.00103765        0.00136888        0.00024236
     124         -0.224969        1.000000        0.00021296        0.00013006        0.00021476        0.00007568
     125         -0.221422        1.000000        0.00160439        0.00016905        0.00105092        0.00028044
     126         -0.220832        1.000000        0.00219482        0.00230070        0.00011858        0.00238127
     127         -0.218396        1.000000        0.00047281        0.00060857        0.00017292        0.00043596
     128         -0.217663        1.000000        0.00112293        0.00097147        0.00040471        0.00096996
     129         -0.216533        1.000000        0.00005865        0.00021989        0.00018998        0.00106182
     130         -0.214451        1.000000        0.00125063        0.00114333        0.00194351        0.00060174
     131         -0.213351        1.000000        0.00042533        0.00919625        0.00011407        0.00140672
     132         -0.211002        1.000000        0.00015207        0.00032866        0.00011182        0.00029393
     133         -0.209883        1.000000        0.00017938        0.00026948        0.00023959        0.00074860
     134         -0.208092        1.000000        0.00019746        0.00073440        0.00020838        0.00048127
     135         -0.207088        1.000000        0.00209969        0.00024625        0.00119610        0.00138548
     136         -0.206488        1.000000        0.00022919        0.00056971        0.00018922        0.00019989
     137         -0.205560        1.000000        0.00008757        0.00017075        0.00027492        0.00021138
     138         -0.204536        1.000000        0.00024291        0.00035950        0.00050163        0.00026119
     139         -0.204243        1.000000        0.00019132        0.00217151        0.00022271        0.00034660
     140         -0.203640        1.000000        0.00016113        0.00013766        0.00033538        0.00004483
     141         -0.202232        1.000000        0.00043810        0.00032180        0.00011157        0.00010518
     142         -0.201421        1.000000        0.00018541        0.00011228        0.00003618        0.00019652
     143         -0.199336        1.000000        0.00034838        0.00042211        0.00009436        0.00022202
     144         -0.198663        1.000000        0.00006300        0.00011319        0.00007027        0.00004094
     145         -0.198086        1.000000        0.00008044        0.00039343        0.00010408        0.00015105
     146         -0.197110        1.000000        0.00003815        0.00053818        0.00006145        0.00012158
     147         -0.196540        1.000000        0.00022601        0.00048878        0.00092871        0.00027036
     148         -0.195937        1.000000        0.00041547        0.00084282        0.00023540        0.00026627
     149         -0.195063        1.000000        0.00043513        0.00120023        0.00026555        0.00026891
     150         -0.193923        1.000000        0.00006680        0.00041148        0.00266665        0.00026277
     151         -0.193250        1.000000        0.00083339        0.00118833        0.00023602        0.00006384
     152         -0.193084        1.000000        0.00011526        0.00028474        0.00111390        0.00009092
     153         -0.192606        1.000000        0.00105025        0.00279599        0.00028703        0.00038069
     154         -0.191651        1.000000        0.00068420        0.00215480        0.00145860        0.00052153
     155         -0.191338        1.000000        0.00006774        0.00031648        0.00017934        0.00005337
     156         -0.190258        1.000000        0.00044762        0.00151506        0.00016028        0.00039989
     157         -0.189771        1.000000        0.00071688        0.00276523        0.00005973        0.00056706
     158         -0.188791        1.000000        0.00026726        0.00115223        0.00009255        0.00041895
     159         -0.188337        1.000000        0.00065901        0.00180838        0.00025938        0.00035805
     160         -0.187758        1.000000        0.00023618        0.00051140        0.00013365        0.00015770
     161         -0.186684        1.000000        0.00035039        0.00043788        0.00200180        0.00037181
     162         -0.186295        1.000000        0.00054836        0.00252644        0.00041575        0.00073918
     163         -0.184940        1.000000        0.00017766        0.00089734        0.00014107        0.00029646
     164         -0.184641        1.000000        0.00005689        0.00005811        0.00039767        0.00014445
     165         -0.184309        1.000000        0.00038736        0.00019970        0.00027824        0.00007707
     166         -0.183868        1.000000        0.00032046        0.00046598        0.00005747        0.00013554
     167         -0.182798        1.000000        0.00011280        0.00003995        0.00012295        0.00006749
     168         -0.182350        1.000000        0.00007565        0.00010586        0.00005912        0.00007246
     169         -0.181415        1.000000        0.00017960        0.00017780        0.00025251        0.00008913
     170         -0.180752        1.000000        0.00003081        0.00001282        0.00006568        0.00001955
     171         -0.180062        1.000000        0.00003072        0.00005301        0.00007417        0.00003554
     172         -0.179461        1.000000        0.00034166        0.00001010        0.00028863        0.00015254
     173         -0.178583        1.000000        0.00004728        0.00029056        0.00006405        0.00002906
     174         -0.178367        1.000000        0.00003602        0.00004535        0.00049259        0.00005830
     175         -0.178096        1.000000        0.00008291        0.00006012        0.00059223        0.00006919
     176         -0.177086        1.000000        0.00004310        0.00003514        0.00006114        0.00002227
     177         -0.176601        1.000000        0.00008539        0.00021034        0.00002257        0.00007070
     178         -0.176159        1.000000        0.00012514        0.00018724        0.00003523        0.00003354
     179         -0.175877        1.000000        0.00002119        0.00005488        0.00039119        0.00005600
     180         -0.175627        1.000000        0.00017772        0.00046947        0.00001927        0.00014156
     181         -0.175062        1.000000        0.00004974        0.00017433        0.00008503        0.00003293
     182         -0.173380        1.000000        0.00003908        0.00011001        0.00005557        0.00004427
     183         -0.172908        1.000000        0.00005086        0.00004457        0.00015356        0.00002722
     184         -0.172657        1.000000        0.00002931        0.00002867        0.00006445        0.00000713
     185         -0.172516        1.000000        0.00006209        0.00001992        0.00003213        0.00003974
     186         -0.172336        1.000000        0.00006373        0.00025369        0.00007543        0.00005323
     187         -0.172230        1.000000        0.00007237        0.00015049        0.00010133        0.00009334
     188         -0.171448        1.000000        0.00001024        0.00002722        0.00001688        0.00003950
     189         -0.171343        1.000000        0.00000889        0.00001596        0.00004808        0.00002052
     190         -0.170973        1.000000        0.00002514        0.00001278        0.00002754        0.00004241
     191         -0.170825        1.000000        0.00000920        0.00002367        0.00006916        0.00002175
     192         -0.170724        1.000000        0.00001402        0.00001543        0.00002538        0.00001768
     193         -0.170470        1.000000        0.00004752        0.00010953        0.00000785        0.00008067
     194         -0.170199        1.000000        0.00003445        0.00002579        0.00001060        0.00004122
     195         -0.170147        0.000000        0.00001392        0.00004011        0.00001122        0.00000548
     196         -0.169848        0.000000        0.00001707        0.00002768        0.00000361        0.00005374
     197         -0.169632        0.000000        0.00001032        0.00002725        0.00002662        0.00003196
     198         -0.169515        0.000000        0.00001341        0.00006167        0.00001015        0.00002081
     199         -0.169206        0.000000        0.00001752        0.00005383        0.00000848        0.00002465
     200         -0.168572        0.000000        0.00002323        0.00001564        0.00001190        0.00001464
     201         -0.165841        0.000000        0.00000464        0.00001009        0.00000355        0.00000127
     202         -0.065108        0.000000        0.00040286        0.00047299        0.00006319        0.00013057
     203         -0.060308        0.000000        0.00009284        0.00006291        0.00013377        0.00002394
     204         -0.055971        0.000000        0.00007930        0.00017795        0.00003044        0.00003777
     205         -0.047387        0.000000        0.00008102        0.00009176        0.00021015        0.00011691
     206         -0.043959        0.000000        0.00022202        0.00001305        0.00019804        0.00013426
     207         -0.042738        0.000000        0.00013951        0.00016895        0.00003420        0.00003780
     208         -0.041976        0.000000        0.00020704        0.00009004        0.00006063        0.00001861
     209         -0.041030        0.000000        0.00013359        0.00009045        0.00005430        0.00004338
     210         -0.039097        0.000000        0.00009944        0.00014910        0.00004488        0.00012123
     211         -0.036926        0.000000        0.00002547        0.00011807        0.00007532        0.00001235
     212         -0.035003        0.000000        0.00012397        0.00006445        0.00017606        0.00008474
     213         -0.032568        0.000000        0.00013750        0.00003441        0.00023009        0.00009729
     214         -0.031873        0.000000        0.00016416        0.00013224        0.00017407        0.00002813
     215         -0.031369        0.000000        0.00023273        0.00016843        0.00000758        0.00010539
     216         -0.030754        0.000000        0.00007943        0.00003359        0.00006188        0.00011970
     217         -0.028288        0.000000        0.00009960        0.00002109        0.00008476        0.00002893
     218         -0.027016        0.000000        0.00003258        0.00002001        0.00013253        0.00003781
     219         -0.022543        0.000000        0.00006555        0.00009162        0.00004692        0.00001655
     220         -0.018105        0.000000        0.00012295        0.00003293        0.00001620        0.00001179
     221         -0.017392        0.000000        0.00018167        0.00014687        0.00006921        0.00015754
     222         -0.016635        0.000000        0.00007696        0.00008915        0.00001404        0.00006102
     223         -0.014004        0.000000        0.00028360        0.00046308        0.00005182        0.00013359
     224         -0.012011        0.000000        0.00003125        0.00001533        0.00029280        0.00004443
     225         -0.003490        0.000000        0.00032704        0.00017156        0.00045597        0.00015094
     226          0.079297        0.000000        0.10945285        0.01812018        0.03187147        0.19756349
     227          0.087110        0.000000        0.10838419        0.01780545        0.20596025        0.02314286
     228          0.088762        0.000000        0.13284115        0.01176559        0.02813336        0.18034587
     229          0.095663        0.000000        0.12628034        0.00456436        0.06554757        0.16170005
     230          0.100795        0.000000        0.12600429        0.00228399        0.02844862        0.20412574
     231          0.103713        0.000000        0.09998764        0.06132444        0.02696976        0.17376797
     232          0.105024        0.000000        0.09662472        0.00428657        0.18155475        0.07903705
     233          0.141430        0.000000        0.04035815        0.00012500        0.27562259        0.01903373
     234          0.153626        0.000000        0.05522541        0.16158173        0.00482696        0.11220393
     235          0.158429        0.000000        0.03601310        0.07534656        0.14283639        0.08145443
     236          0.171133        0.000000        0.00271481        0.20310000        0.12234652        0.00040102
     237          0.208267        0.000000        0.01920018        0.23454793        0.00224482        0.07786548
     238          0.217781        0.000000        0.11153536        0.01421313        0.04751612        0.17141375
     239          0.247307        0.000000        0.10070495        0.03186545        0.00119792        0.20424526
     240          0.276236        0.000000        0.00019294        0.04530960        0.25632079        0.02145324
     241          0.284850        0.000000        0.09967659        0.10281957        0.13217295        0.00198015
     242          0.291373        0.000000        0.00292454        0.30242053        0.00075950        0.01500693
     243          0.294640        0.000000        0.11712598        0.05448998        0.13669826        0.02740543
     244          0.297870        0.000000        0.00209987        0.11382056        0.05530506        0.15048208
     245          0.299453        0.000000        0.00608788        0.16894889        0.08297739        0.05586277
     246          0.300938        0.000000        0.00681112        0.06173975        0.13996885        0.10751001
     247          0.301249        0.000000        0.17440366        0.11045694        0.03552517        0.02008673
     248          0.302752        0.000000        0.00403886        0.21228149        0.08835847        0.01270875
     249          0.308412        0.000000        0.00009945        0.18932801        0.10565648        0.02150929
     250          0.321901        0.000000        0.17268246        0.01142206        0.00339331        0.14896985
     251          0.332468        0.000000        0.18600370        0.02064506        0.06865502        0.05789224
     252          0.333066        0.000000        0.23530830        0.00767844        0.05408438        0.04277809
     253          0.349314        0.000000        0.24359886        0.02983000        0.02158352        0.05065409
     254          0.438869        0.000000        0.00015596        0.00062305        0.02190485        0.00224752
     255          0.445460        0.000000        0.00055870        0.01666641        0.00006951        0.00004529
     256          0.448909        0.000000        0.00015397        0.01114205        0.01074554        0.00183474
     257          0.450356        0.000000        0.00001648        0.00239445        0.00070938        0.01379155
     258          0.450590        0.000000        0.00000425        0.00591043        0.00783144        0.00023645
     259          0.453082        0.000000        0.00074137        0.01507877        0.00410557        0.00388505