# Projected DOS for atomic kind H at iteration step i = 0, E(Fermi) =    -0.170199 a.u.
#     MO Eigenvalue [a.u.]      Occupation                 s
       1         -0.976507        1.000000        0.26779622
       2         -0.972482        1.000000        0.26973830
       3         -0.967328        1.000000        0.27157980
       4         -0.957738        1.000000        0.26699806
       5         -0.949993        1.000000        0.26616076
       6         -0.939683        1.000000        0.28075675
       7         -0.933237        1.000000        0.28315111
       8         -0.709556        1.000000        0.32660524
       9         -0.709244        1.000000        0.33795368
      10         -0.702720        1.000000        0.33667619
      11         -0.697606        1.000000        0.34061633
      12         -0.694905        1.000000        0.34478785
      13         -0.682756        1.000000        0.34699427
      14         -0.678241        1.000000        0.34705504
      15         -0.625984        1.000000        0.00014953
      16         -0.615401        1.000000        0.00862260
      17         -0.615053        1.000000        0.04717995
      18         -0.608547        1.000000        0.33440281
      19         -0.606279        1.000000        0.10578600
      20         -0.598304        1.000000        0.01966845
      21         -0.597042        1.000000        0.31920640
      22         -0.595983        1.000000        0.17046018
      23         -0.588053        1.000000        0.28774906
      24         -0.587403        1.000000        0.11372189
      25         -0.586298        1.000000        0.11207031
      26         -0.585178        1.000000        0.28958403
      27         -0.584385        1.000000        0.18179330
      28         -0.583030        1.000000        0.08078684
      29         -0.580789        1.000000        0.06015993
      30         -0.580632        1.000000        0.01904928
      31         -0.579972        1.000000        0.02322878
      32         -0.578803        1.000000        0.30225934
      33         -0.578255        1.000000        0.12465181
      34         -0.576847        1.000000        0.12214554
      35         -0.575499        1.000000        0.03531094
      36         -0.574536        1.000000        0.01610309
      37         -0.572217        1.000000        0.03221972
      38         -0.570091        1.000000        0.04627054
      39         -0.569221        1.000000        0.27345683
      40         -0.568575        1.000000        0.11226034
      41         -0.567462        1.000000        0.00147935
      42         -0.567292        1.000000        0.05534465
      43         -0.565884        1.000000        0.00285578
      44         -0.564604        1.000000        0.04036575
      45         -0.564320        1.000000        0.00540609
      46         -0.564027        1.000000        0.04741506
      47         -0.561986        1.000000        0.15002842
      48         -0.559295        1.000000        0.14833977
      49         -0.558493        1.000000        0.07290589
      50         -0.556547        1.000000        0.03919001
      51         -0.554391        1.000000        0.17660014
      52         -0.553007        1.000000        0.04213403
      53         -0.552611        1.000000        0.11651567
      54         -0.552129        1.000000        0.01263159
      55         -0.551096        1.000000        0.01255737
      56         -0.550563        1.000000        0.01506687
      57         -0.550343        1.000000        0.03001445
      58         -0.550151        1.000000        0.02425158
      59         -0.549859        1.000000        0.11471566
      60         -0.545864        1.000000        0.04274446
      61         -0.544579        1.000000        0.01502037
      62         -0.544192        1.000000        0.00289828
      63         -0.543802        1.000000        0.00093454
      64         -0.543457        1.000000        0.18020198
      65         -0.498836        1.000000        0.20293836
      66         -0.492264        1.000000        0.18732776
      67         -0.488771        1.000000        0.18789693
      68         -0.482145        1.000000        0.18854682
      69         -0.477652        1.000000        0.18647190
      70         -0.463144        1.000000        0.17132547
      71         -0.458230        1.000000        0.16381716
      72         -0.456388        1.000000        0.01407962
      73         -0.452388        1.000000        0.00078305
      74         -0.448610        1.000000        0.00193332
      75         -0.444761        1.000000        0.00082771
      76         -0.441975        1.000000        0.00087803
      77         -0.439603        1.000000        0.00174200
      78         -0.437852        1.000000        0.00122289
      79         -0.432616        1.000000        0.00663747
      80         -0.424365        1.000000        0.42250630
      81         -0.422174        1.000000        0.41979249
      82         -0.416735        1.000000        0.41944008
      83         -0.415927        1.000000        0.41768003
      84         -0.415785        1.000000        0.41524060
      85         -0.413436        1.000000        0.41515025
      86         -0.411297        1.000000        0.42396802
      87         -0.411290        1.000000        0.42388530
      88         -0.409955        1.000000        0.41894719
      89         -0.407492        1.000000        0.42387236
      90         -0.401141        1.000000        0.42024140
      91         -0.399353        1.000000        0.41975062
      92         -0.395146        1.000000        0.42141423
      93         -0.394008        1.000000        0.42074423
      94         -0.305437        1.000000        0.00006496
      95         -0.292038        1.000000        0.00020799
      96         -0.290104        1.000000        0.00013966
      97         -0.277343        1.000000        0.00025617
      98         -0.270901        1.000000        0.00090209
      99         -0.264863        1.000000        0.00025767
     100         -0.261410        1.000000        0.00038782
     101         -0.258640        1.000000        0.00023498
     102         -0.257609        1.000000        0.00056777
     103         -0.256838        1.000000        0.00015871
     104         -0.255240        1.000000        0.00062788
     105         -0.252739        1.000000        0.00096506
     106         -0.252231        1.000000        0.00068713
     107         -0.250398        1.000000        0.00034680
     108         -0.248721        1.000000        0.00046298
     109         -0.245315        1.000000        0.00033835
     110         -0.244007        1.000000        0.00047425
     111         -0.243048        1.000000        0.00034501
     112         -0.240304        1.000000        0.00045365
     113         -0.239458        1.000000        0.00034427
     114         -0.238951        1.000000        0.00072156
     115         -0.236788        1.000000        0.00133334
     116         -0.235960        1.000000        0.00036517
     117         -0.235320        1.000000        0.00035204
     118         -0.233546        1.000000        0.00064649
     119         -0.232033        1.000000        0.00046629
     120         -0.229899        1.000000        0.00048720
     121         -0.228292        1.000000        0.00075431
     122         -0.226459        1.000000        0.00061946
     123         -0.225522        1.000000        0.00086896
     124         -0.224969        1.000000        0.00053789
     125         -0.221422        1.000000        0.00120751
     126         -0.220832        1.000000        0.00203532
     127         -0.218396        1.000000        0.00053483
     128         -0.217663        1.000000        0.00105314
     129         -0.216533        1.000000        0.00057675
     130         -0.214451        1.000000        0.00111273
     131         -0.213351        1.000000        0.00153764
     132         -0.211002        1.000000        0.00053984
     133         -0.209883        1.000000        0.00083645
     134         -0.208092        1.000000        0.00053000
     135         -0.207088        1.000000        0.00198302
     136         -0.206488        1.000000        0.00048545
     137         -0.205560        1.000000        0.00044643
     138         -0.204536        1.000000        0.00046381
     139         -0.204243        1.000000        0.00102236
     140         -0.203640        1.000000        0.00036346
     141         -0.202232        1.000000        0.00067514
     142         -0.201421        1.000000        0.00029251
     143         -0.199336        1.000000        0.00050932
     144         -0.198663        1.000000        0.00011887
     145         -0.198086        1.000000        0.00028024
     146         -0.197110        1.000000        0.00028209
     147         -0.196540        1.000000        0.00058846
     148         -0.195937        1.000000        0.00051776
     149         -0.195063        1.000000        0.00071268
     150         -0.193923        1.000000        0.00068855
     151         -0.193250        1.000000        0.00082794
     152         -0.193084        1.000000        0.00035583
     153         -0.192606        1.000000        0.00139062
     154         -0.191651        1.000000        0.00118517
     155         -0.191338        1.000000        0.00020660
     156         -0.190258        1.000000        0.00080002
     157         -0.189771        1.000000        0.00111732
     158         -0.188791        1.000000        0.00062316
     159         -0.188337        1.000000        0.00109307
     160         -0.187758        1.000000        0.00032103
     161         -0.186684        1.000000        0.00071266
     162         -0.186295        1.000000        0.00111552
     163         -0.184940        1.000000        0.00038334
     164         -0.184641        1.000000        0.00018382
     165         -0.184309        1.000000        0.00026023
     166         -0.183868        1.000000        0.00036915
     167         -0.182798        1.000000        0.00014767
     168         -0.182350        1.000000        0.00010400
     169         -0.181415        1.000000        0.00018729
     170         -0.180752        1.000000        0.00011404
     171         -0.180062        1.000000        0.00010456
     172         -0.179461        1.000000        0.00062542
     173         -0.178583        1.000000        0.00014024
     174         -0.178367        1.000000        0.00021323
     175         -0.178096        1.000000        0.00027855
     176         -0.177086        1.000000        0.00017765
     177         -0.176601        1.000000        0.00039541
     178         -0.176159        1.000000        0.00024663
     179         -0.175877        1.000000        0.00011115
     180         -0.175627        1.000000        0.00029400
     181         -0.175062        1.000000        0.00037323
     182         -0.173380        1.000000        0.00021133
     183         -0.172908        1.000000        0.00015831
     184         -0.172657        1.000000        0.00005948
     185         -0.172516        1.000000        0.00012804
     186         -0.172336        1.000000        0.00013810
     187         -0.172230        1.000000        0.00015312
     188         -0.171448        1.000000        0.00014697
     189         -0.171343        1.000000        0.00010781
     190         -0.170973        1.000000        0.00010641
     191         -0.170825        1.000000        0.00005175
     192         -0.170724        1.000000        0.00008067
     193         -0.170470        1.000000        0.00011199
     194         -0.170199        1.000000        0.00009833
     195         -0.170147        0.000000        0.00006129
     196         -0.169848        0.000000        0.00005527
     197         -0.169632        0.000000        0.00005691
     198         -0.169515        0.000000        0.00006037
     199         -0.169206        0.000000        0.00007410
     200         -0.168572        0.000000        0.00007909
     201         -0.165841        0.000000        0.00000862
     202         -0.065108        0.000000        0.00065421
     203         -0.060308        0.000000        0.00018394
     204         -0.055971        0.000000        0.00021184
     205         -0.047387        0.000000        0.00030598
     206         -0.043959        0.000000        0.00045636
     207         -0.042738        0.000000        0.00023678
     208         -0.041976        0.000000        0.00030167
     209         -0.041030        0.000000        0.00021147
     210         -0.039097        0.000000        0.00031436
     211         -0.036926        0.000000        0.00019287
     212         -0.035003        0.000000        0.00032880
     213         -0.032568        0.000000        0.00029205
     214         -0.031873        0.000000        0.00029631
     215         -0.031369        0.000000        0.00044022
     216         -0.030754        0.000000        0.00010276
     217         -0.028288        0.000000        0.00023983
     218         -0.027016        0.000000        0.00020446
     219         -0.022543        0.000000        0.00018219
     220         -0.018105        0.000000        0.00018123
     221         -0.017392        0.000000        0.00029259
     222         -0.016635        0.000000        0.00023541
     223         -0.014004        0.000000        0.00071774
     224         -0.012011        0.000000        0.00029502
     225         -0.003490        0.000000        0.00091248
     226          0.079297        0.000000        0.00774571
     227          0.087110        0.000000        0.00438150
     228          0.088762        0.000000        0.01261580
     229          0.095663        0.000000        0.02424170
     230          0.100795        0.000000        0.02632344
     231          0.103713        0.000000        0.00333708
     232          0.105024        0.000000        0.00297708
     233          0.141430        0.000000        0.64370499
     234          0.153626        0.000000        0.65966995
     235          0.158429        0.000000        0.64265115
     236          0.171133        0.000000        0.67028777
     237          0.208267        0.000000        0.66422104
     238          0.217781        0.000000        0.64270263
     239          0.247307        0.000000        0.65510556
     240          0.276236        0.000000        0.66504135
     241          0.284850        0.000000        0.65497334
     242          0.291373        0.000000        0.66437669
     243          0.294640        0.000000        0.65511187
     244          0.297870        0.000000        0.66012126
     245          0.299453        0.000000        0.66361073
     246          0.300938        0.000000        0.66237926
     247          0.301249        0.000000        0.64552598
     248          0.302752        0.000000        0.66457560
     249          0.308412        0.000000        0.66242650
     250          0.321901        0.000000        0.64354607
     251          0.332468        0.000000        0.64146404
     252          0.333066        0.000000        0.63451382
     253          0.349314        0.000000        0.63093832
     254          0.438869        0.000000        0.58407497
     255          0.445460        0.000000        0.58840186
     256          0.448909        0.000000        0.58940048
     257          0.450356        0.000000        0.58765087
     258          0.450590        0.000000        0.58919276
     259          0.453082        0.000000        0.58617240
     260          0.454851        0.000000        0.58730219
     261          0.456307        0.000000        0.58267043
     262          0.456629        0.000000        0.58554316
     263          0.457082        0.000000        0.58454371
     264          0.468327        0.000000        0.58238022
     265          0.471703        0.000000        0.58065429
     266          0.474329        0.000000        0.58131467
     267          0.478075        0.000000        0.58216808
     268          0.543001        0.000000        0.55338177
     269          0.560330        0.000000        0.55166887
     270          0.562480        0.000000        0.55239365
     271          0.563098        0.000000        0.55223877
     272          0.564612        0.000000        0.55163121
     273          0.569076        0.000000        0.55378616
     274          0.572022        0.000000        0.55204542
