# Projected DOS for atomic kind I at iteration step i = 0, E(Fermi) =    -0.170199 a.u.
#     MO Eigenvalue [a.u.]      Occupation                 s                py                pz                px
       1         -0.976507        1.000000        0.00000112        0.00000993        0.00001733        0.00000206
       2         -0.972482        1.000000        0.00003713        0.00009463        0.00017998        0.00001471
       3         -0.967328        1.000000        0.00002087        0.00010559        0.00010207        0.00003835
       4         -0.957738        1.000000        0.00004407        0.00015851        0.00007005        0.00010821
       5         -0.949993        1.000000        0.00008210        0.00020635        0.00014727        0.00012617
       6         -0.939683        1.000000        0.00017029        0.00038591        0.00007475        0.00038378
       7         -0.933237        1.000000        0.00012555        0.00033111        0.00032476        0.00008382
       8         -0.709556        1.000000        0.00016844        0.00012553        0.00010069        0.00006971
       9         -0.709244        1.000000        0.00016331        0.00005561        0.00006883        0.00014542
      10         -0.702720        1.000000        0.00046622        0.00011738        0.00027447        0.00023954
      11         -0.697606        1.000000        0.00043174        0.00025853        0.00009028        0.00016181
      12         -0.694905        1.000000        0.00101877        0.00031574        0.00016246        0.00016695
      13         -0.682756        1.000000        0.00223818        0.00042928        0.00045524        0.00051548
      14         -0.678241        1.000000        0.00078977        0.00011891        0.00028212        0.00015248
      15         -0.625984        1.000000        0.96360459        0.01808304        0.01342129        0.00219830
      16         -0.615401        1.000000        0.93839276        0.00995088        0.01255382        0.00205327
      17         -0.615053        1.000000        0.84048126        0.00818683        0.00201299        0.00875883
      18         -0.608547        1.000000        0.00177471        0.00006655        0.00019608        0.00001768
      19         -0.606279        1.000000        0.65343860        0.00448742        0.00246149        0.00635539
      20         -0.598304        1.000000        0.81538111        0.00458912        0.00572211        0.00299720
      21         -0.597042        1.000000        0.03340300        0.00023487        0.00032968        0.00054213
      22         -0.595983        1.000000        0.45308397        0.00217299        0.00130404        0.00422247
      23         -0.588053        1.000000        0.12858471        0.00276960        0.00060065        0.00091758
      24         -0.587403        1.000000        0.62715323        0.00117192        0.00235156        0.00241766
      25         -0.586298        1.000000        0.63456300        0.00189618        0.00134652        0.00205857
      26         -0.585178        1.000000        0.09741680        0.00024099        0.00157398        0.00110294
      27         -0.584385        1.000000        0.42750160        0.00204861        0.00207952        0.00209600
      28         -0.583030        1.000000        0.65467239        0.00273464        0.00468910        0.00389804
      29         -0.580789        1.000000        0.74034031        0.00476166        0.00304571        0.00250047
      30         -0.580632        1.000000        0.90477694        0.00604904        0.00482552        0.00186028
      31         -0.579972        1.000000        0.84926846        0.00581564        0.00362191        0.00221728
      32         -0.578803        1.000000        0.03663694        0.00029383        0.00029577        0.00013771
      33         -0.578255        1.000000        0.56841274        0.00288881        0.00115337        0.00151734
      34         -0.576847        1.000000        0.58009880        0.00186374        0.00379660        0.00137700
      35         -0.575499        1.000000        0.87003156        0.00338049        0.00455392        0.00150043
      36         -0.574536        1.000000        0.93398078        0.00340813        0.00146500        0.00480306
      37         -0.572217        1.000000        0.81770233        0.00284130        0.00342709        0.00302434
      38         -0.570091        1.000000        0.82609737        0.00185469        0.00122450        0.00152436
      39         -0.569221        1.000000        0.14994431        0.00111931        0.00106628        0.00065958
      40         -0.568575        1.000000        0.64574390        0.00240995        0.00146277        0.00124963
      41         -0.567462        1.000000        0.94593602        0.00055326        0.00098695        0.00176664
      42         -0.567292        1.000000        0.79520121        0.00117729        0.00154821        0.00129355
      43         -0.565884        1.000000        0.97785022        0.00398292        0.00155879        0.00313584
      44         -0.564604        1.000000        0.78927838        0.00179935        0.00323738        0.00356413
      45         -0.564320        1.000000        0.90962841        0.00139395        0.00269609        0.00246424
      46         -0.564027        1.000000        0.73718553        0.00493747        0.00360160        0.00467021
      47         -0.561986        1.000000        0.50124054        0.00178256        0.00190787        0.00153830
      48         -0.559295        1.000000        0.48854539        0.00271299        0.00276597        0.00375588
      49         -0.558493        1.000000        0.71866817        0.00287544        0.00305033        0.00177913
      50         -0.556547        1.000000        0.81960881        0.00330985        0.00127979        0.00124216
      51         -0.554391        1.000000        0.39728004        0.00376612        0.00154027        0.00257319
      52         -0.553007        1.000000        0.80163597        0.00103730        0.00197546        0.00281872
      53         -0.552611        1.000000        0.55368948        0.00060589        0.00267344        0.00159203
      54         -0.552129        1.000000        0.92066958        0.00084549        0.00116201        0.00053924
      55         -0.551096        1.000000        0.93077706        0.00064047        0.00110817        0.00047422
      56         -0.550563        1.000000        0.91098236        0.00161162        0.00067887        0.00057330
      57         -0.550343        1.000000        0.86227160        0.00126042        0.00155588        0.00102337
      58         -0.550151        1.000000        0.88468752        0.00073611        0.00161503        0.00113015
      59         -0.549859        1.000000        0.61247691        0.00070553        0.00132495        0.00131547
      60         -0.545864        1.000000        0.83170992        0.00041705        0.00099351        0.00140097
      61         -0.544579        1.000000        0.91387667        0.00037573        0.00056533        0.00157089
      62         -0.544192        1.000000        0.96598954        0.00050793        0.00042572        0.00115534
      63         -0.543802        1.000000        0.96724749        0.00150257        0.00019829        0.00132344
      64         -0.543457        1.000000        0.39681870        0.00151823        0.00091514        0.00123674
      65         -0.498836        1.000000        0.00126509        0.00034791        0.00023752        0.00023398
      66         -0.492264        1.000000        0.00065576        0.00024164        0.00046319        0.00030593
      67         -0.488771        1.000000        0.00450844        0.00030135        0.00082140        0.00036084
      68         -0.482145        1.000000        0.00218809        0.00083002        0.00036195        0.00044989
      69         -0.477652        1.000000        0.00221918        0.00116219        0.00079169        0.00067041
      70         -0.463144        1.000000        0.00565852        0.00409381        0.00203301        0.00284593
      71         -0.458230        1.000000        0.01280867        0.00428697        0.00538123        0.00261758
      72         -0.456388        1.000000        0.18069780        0.04009462        0.04825683        0.02926393
      73         -0.452388        1.000000        0.14504170        0.02748149        0.04759793        0.04607296
      74         -0.448610        1.000000        0.12546354        0.02855296        0.03419267        0.04409164
      75         -0.444761        1.000000        0.12679027        0.04001522        0.04214576        0.03301966
      76         -0.441975        1.000000        0.13952794        0.03751902        0.03484198        0.03355051
      77         -0.439603        1.000000        0.14055538        0.03291117        0.03228685        0.02970708
      78         -0.437852        1.000000        0.12477624        0.03218338        0.03526034        0.03273453
      79         -0.432616        1.000000        0.12765965        0.02441439        0.03561831        0.03307174
      80         -0.424365        1.000000        0.00040638        0.00027050        0.00027296        0.00076763
      81         -0.422174        1.000000        0.00022346        0.00039696        0.00014818        0.00052884
      82         -0.416735        1.000000        0.00136029        0.00086806        0.00082882        0.00032502
      83         -0.415927        1.000000        0.00147691        0.00111070        0.00089104        0.00223741
      84         -0.415785        1.000000        0.00225900        0.00099146        0.00113169        0.00195105
      85         -0.413436        1.000000        0.00226644        0.00164473        0.00119960        0.00124984
      86         -0.411297        1.000000        0.00134076        0.00135585        0.00022733        0.00259903
      87         -0.411290        1.000000        0.00055878        0.00063717        0.00064740        0.00115062
      88         -0.409955        1.000000        0.00098579        0.00117589        0.00089501        0.00078237
      89         -0.407492        1.000000        0.00137199        0.00168717        0.00016459        0.00151003
      90         -0.401141        1.000000        0.00308359        0.00377480        0.00302196        0.00606655
      91         -0.399353        1.000000        0.00204653        0.00168437        0.00312701        0.00409037
      92         -0.395146        1.000000        0.00105881        0.00098941        0.00133359        0.00051562
      93         -0.394008        1.000000        0.00075070        0.00059300        0.00126578        0.00125818
      94         -0.305437        1.000000        0.03261473        0.50249108        0.40264231        0.04853839
      95         -0.292038        1.000000        0.02628887        0.37285014        0.55150125        0.02235634
      96         -0.290104        1.000000        0.02282265        0.34008692        0.07828964        0.53572648
      97         -0.277343        1.000000        0.01869672        0.34507251        0.07265512        0.47600375
      98         -0.270901        1.000000        0.01839510        0.18095419        0.48765896        0.08644640
      99         -0.264863        1.000000        0.00754014        0.24642108        0.13271995        0.39918584
     100         -0.261410        1.000000        0.00972426        0.18777677        0.15998182        0.38421915
     101         -0.258640        1.000000        0.01381324        0.21585662        0.36104339        0.15549994
     102         -0.257609        1.000000        0.01137896        0.12801665        0.47901306        0.13552787
     103         -0.256838        1.000000        0.02148773        0.37428588        0.25745543        0.08994429
     104         -0.255240        1.000000        0.00666375        0.39867619        0.24110796        0.16307063
     105         -0.252739        1.000000        0.00684075        0.41588738        0.12040148        0.30406614
     106         -0.252231        1.000000        0.01201514        0.26876817        0.18973003        0.32341971
     107         -0.250398        1.000000        0.01287455        0.26733043        0.33134701        0.14511070
     108         -0.248721        1.000000        0.01362258        0.23064481        0.17683919        0.35721805
     109         -0.245315        1.000000        0.01343862        0.41615673        0.15592346        0.18911407
     110         -0.244007        1.000000        0.01355796        0.33778297        0.19501411        0.19701912
     111         -0.243048        1.000000        0.01095923        0.38166625        0.26081519        0.14822094
     112         -0.240304        1.000000        0.00804306        0.06472573        0.49999901        0.27841567
     113         -0.239458        1.000000        0.00105833        0.13570913        0.05317559        0.79238107
     114         -0.238951        1.000000        0.01035651        0.22096884        0.19266703        0.40783079
     115         -0.236788        1.000000        0.01132409        0.19050793        0.29144506        0.30667014
     116         -0.235960        1.000000        0.01007694        0.28619168        0.27866674        0.25784500
     117         -0.235320        1.000000        0.00832776        0.16475250        0.32201702        0.35904174
     118         -0.233546        1.000000        0.00892030        0.14736764        0.34176101        0.35495443
     119         -0.232033        1.000000        0.01529424        0.27345890        0.33882371        0.17895970
     120         -0.229899        1.000000        0.01487306        0.15700755        0.24283849        0.36566495
     121         -0.228292        1.000000        0.01322253        0.05976939        0.32782013        0.40845439
     122         -0.226459        1.000000        0.01389510        0.26583589        0.21581221        0.28150132
     123         -0.225522        1.000000        0.00594974        0.11351705        0.60309124        0.19637216
     124         -0.224969        1.000000        0.01438765        0.26773215        0.29094383        0.21890722
     125         -0.221422        1.000000        0.00632344        0.21414914        0.25183954        0.42088610
     126         -0.220832        1.000000        0.00390152        0.47962745        0.20863163        0.21378882
     127         -0.218396        1.000000        0.00429051        0.22220574        0.17329807        0.53601881
     128         -0.217663        1.000000        0.00371567        0.36918624        0.21180072        0.31895323
     129         -0.216533        1.000000        0.00155182        0.46536119        0.25829542        0.25769203
     130         -0.214451        1.000000        0.00297569        0.25938708        0.17959661        0.50997754
     131         -0.213351        1.000000        0.00424915        0.42624382        0.23298229        0.26532515
     132         -0.211002        1.000000        0.00210808        0.38718805        0.11949008        0.46305868
     133         -0.209883        1.000000        0.00378493        0.25903892        0.20535941        0.46684114
     134         -0.208092        1.000000        0.00317188        0.29391229        0.32506511        0.32447937
     135         -0.207088        1.000000        0.00201593        0.22604569        0.59481903        0.12971638
     136         -0.206488        1.000000        0.00153233        0.36442979        0.36014647        0.25551336
     137         -0.205560        1.000000        0.00082254        0.40759586        0.25192611        0.32860815
     138         -0.204536        1.000000        0.00067014        0.46799719        0.18469139        0.33647730
     139         -0.204243        1.000000        0.00221228        0.26403969        0.26849249        0.42065555
     140         -0.203640        1.000000        0.00048059        0.38486703        0.24898492        0.35809635
     141         -0.202232        1.000000        0.00137165        0.33555007        0.34080550        0.29823267
     142         -0.201421        1.000000        0.00095437        0.39526717        0.08748700        0.50358529
     143         -0.199336        1.000000        0.00088851        0.41809080        0.21936528        0.34422569
     144         -0.198663        1.000000        0.00029767        0.09844333        0.63910650        0.25856227
     145         -0.198086        1.000000        0.00082964        0.51191982        0.18463507        0.28852953
     146         -0.197110        1.000000        0.00106632        0.29348691        0.26229906        0.43338177
     147         -0.196540        1.000000        0.00239286        0.42641478        0.29124071        0.21310815
     148         -0.195937        1.000000        0.00111970        0.29486648        0.41767356        0.26185829
     149         -0.195063        1.000000        0.00129853        0.28157389        0.51359000        0.18358842
     150         -0.193923        1.000000        0.00122380        0.31056737        0.32643713        0.33445789
     151         -0.193250        1.000000        0.00135519        0.21976934        0.33434844        0.38989482
     152         -0.193084        1.000000        0.00082381        0.22470000        0.51318295        0.23693812
     153         -0.192606        1.000000        0.00204179        0.43836994        0.31804319        0.20651195
     154         -0.191651        1.000000        0.00162808        0.35407068        0.39542989        0.23119476
     155         -0.191338        1.000000        0.00050032        0.19294902        0.52810316        0.26812998
     156         -0.190258        1.000000        0.00128448        0.22765096        0.46742090        0.27703671
     157         -0.189771        1.000000        0.00118609        0.22148453        0.35873252        0.39684620
     158         -0.188791        1.000000        0.00201368        0.31302578        0.34366822        0.28561488
     159         -0.188337        1.000000        0.00176762        0.38246329        0.54330914        0.06138683
     160         -0.187758        1.000000        0.00059359        0.47128419        0.40313749        0.11460330
     161         -0.186684        1.000000        0.00116070        0.31128772        0.47099439        0.19011874
     162         -0.186295        1.000000        0.00223672        0.49169527        0.23013864        0.25175844
     163         -0.184940        1.000000        0.00130935        0.43443756        0.24471757        0.30365862
     164         -0.184641        1.000000        0.00057870        0.34025122        0.22762424        0.42456513
     165         -0.184309        1.000000        0.00120607        0.20644077        0.47406090        0.30082755
     166         -0.183868        1.000000        0.00100358        0.27819261        0.41346421        0.29375312
     167         -0.182798        1.000000        0.00035803        0.30026269        0.35435602        0.34195784
     168         -0.182350        1.000000        0.00028211        0.23588018        0.34878276        0.41125672
     169         -0.181415        1.000000        0.00066950        0.31124302        0.38438566        0.28139143
     170         -0.180752        1.000000        0.00064938        0.44411666        0.38549787        0.16061130
     171         -0.180062        1.000000        0.00026081        0.34885561        0.41837130        0.22701034
     172         -0.179461        1.000000        0.00118516        0.41994206        0.27599023        0.28861145
     173         -0.178583        1.000000        0.00061942        0.35008542        0.32232605        0.31691219
     174         -0.178367        1.000000        0.00068203        0.23418337        0.26989319        0.49059803
     175         -0.178096        1.000000        0.00068756        0.27967051        0.22498186        0.48654040
     176         -0.177086        1.000000        0.00060677        0.39652058        0.14196906        0.42999640
     177         -0.176601        1.000000        0.00098034        0.49831188        0.14233562        0.32623273
     178         -0.176159        1.000000        0.00057412        0.36921082        0.15256641        0.45744244
     179         -0.175877        1.000000        0.00036734        0.26915569        0.22499937        0.49460186
     180         -0.175627        1.000000        0.00057536        0.08498738        0.86457951        0.04340472
     181         -0.175062        1.000000        0.00049578        0.64392069        0.14210526        0.19138107
     182         -0.173380        1.000000        0.00131136        0.19595841        0.25952852        0.49756100
     183         -0.172908        1.000000        0.00066767        0.38337023        0.18200814        0.41296329
     184         -0.172657        1.000000        0.00083393        0.43572636        0.17093096        0.38124908
     185         -0.172516        1.000000        0.00070855        0.33603750        0.33471470        0.29701299
     186         -0.172336        1.000000        0.00048621        0.10662368        0.62694386        0.25626783
     187         -0.172230        1.000000        0.00041628        0.18305826        0.41804076        0.38093867
     188         -0.171448        1.000000        0.00045675        0.24295903        0.23229787        0.51122905
     189         -0.171343        1.000000        0.00069448        0.15235847        0.35940125        0.48011834
     190         -0.170973        1.000000        0.00067687        0.31593152        0.20121322        0.46958367
     191         -0.170825        1.000000        0.00044823        0.58104939        0.19481276        0.19975418
     192         -0.170724        1.000000        0.00094890        0.39682821        0.23096694        0.35073429
     193         -0.170470        1.000000        0.00306096        0.25958149        0.34029875        0.32838421
     194         -0.170199        1.000000        0.00066695        0.30553046        0.63666868        0.04885313
     195         -0.170147        0.000000        0.00135148        0.25781383        0.30137552        0.39349126
     196         -0.169848        0.000000        0.00294081        0.33263185        0.30866462        0.29184310
     197         -0.169632        0.000000        0.00544664        0.30405320        0.21425276        0.44540273
     198         -0.169515        0.000000        0.00504909        0.33918867        0.44402873        0.18194682
     199         -0.169206        0.000000        0.00332453        0.29383772        0.23920540        0.40871551
     200         -0.168572        0.000000        0.00150014        0.28157087        0.20747069        0.40807917
     201         -0.165841        0.000000        0.01053874        0.50453179        0.40882718        0.07059445
     202         -0.065108        0.000000        0.01488449        0.12794997        0.11515431        0.01376578
     203         -0.060308        0.000000        0.01916083        0.05356416        0.15509801        0.05556813
     204         -0.055971        0.000000        0.02310312        0.17161300        0.01955378        0.04587524
     205         -0.047387        0.000000        0.02732747        0.13725071        0.01556620        0.09994692
     206         -0.043959        0.000000        0.01647181        0.08562089        0.12643571        0.05384326
     207         -0.042738        0.000000        0.02217173        0.03967476        0.14106699        0.09882870
     208         -0.041976        0.000000        0.02321752        0.13340920        0.07046432        0.07553164
     209         -0.041030        0.000000        0.02094903        0.02436935        0.11122517        0.14857101
     210         -0.039097        0.000000        0.01813511        0.04644459        0.07960667        0.14618144
     211         -0.036926        0.000000        0.02113267        0.08646050        0.13641753        0.04996584
     212         -0.035003        0.000000        0.01913697        0.06359004        0.06777505        0.14716331
     213         -0.032568        0.000000        0.02097014        0.05956344        0.05028438        0.16456506
     214         -0.031873        0.000000        0.02175106        0.08199818        0.02433194        0.16810851
     215         -0.031369        0.000000        0.01937995        0.15663930        0.06814503        0.05950280
     216         -0.030754        0.000000        0.02305708        0.18006607        0.04919386        0.05930933
     217         -0.028288        0.000000        0.01881829        0.06927603        0.01397341        0.19980677
     218         -0.027016        0.000000        0.01854808        0.13432782        0.08533578        0.05397365
     219         -0.022543        0.000000        0.01286896        0.19734498        0.06764706        0.02683077
     220         -0.018105        0.000000        0.01534047        0.04110484        0.16302341        0.08999745
     221         -0.017392        0.000000        0.02797796        0.05676546        0.18165714        0.05188279
     222         -0.016635        0.000000        0.01516993        0.05310266        0.19034369        0.04257041
     223         -0.014004        0.000000        0.01741619        0.06830863        0.17845586        0.03587503
     224         -0.012011        0.000000        0.01836523        0.05788289        0.14289924        0.09797714
     225         -0.003490        0.000000        0.01262638        0.04601337        0.00605453        0.25455090
     226          0.079297        0.000000        0.00002871        0.00030529        0.00099013        0.00056255
     227          0.087110        0.000000        0.00006080        0.00027436        0.00138957        0.00033525
     228          0.088762        0.000000        0.00001394        0.00029233        0.00022196        0.00029838
     229          0.095663        0.000000        0.00003464        0.00077558        0.00033510        0.00041749
     230          0.100795        0.000000        0.00005875        0.00106156        0.00065777        0.00036426
     231          0.103713        0.000000        0.00004617        0.00066245        0.00101722        0.00038278
     232          0.105024        0.000000        0.00006752        0.00128982        0.00020587        0.00089527
     233          0.141430        0.000000        0.00001397        0.00017286        0.00017327        0.00016608
     234          0.153626        0.000000        0.00001405        0.00011158        0.00042237        0.00003915
     235          0.158429        0.000000        0.00000983        0.00010193        0.00015351        0.00011272
     236          0.171133        0.000000        0.00000085        0.00006229        0.00006145        0.00007901
     237          0.208267        0.000000        0.00001171        0.00008386        0.00002996        0.00006150
     238          0.217781        0.000000        0.00000599        0.00021884        0.00037891        0.00019795
     239          0.247307        0.000000        0.00002574        0.00038467        0.00020264        0.00012791
     240          0.276236        0.000000        0.00012511        0.00149956        0.00218401        0.00052653
     241          0.284850        0.000000        0.00001864        0.00027140        0.00093498        0.00019510
     242          0.291373        0.000000        0.00020472        0.00432196        0.00060825        0.00181886
     243          0.294640        0.000000        0.00001943        0.00018931        0.00049493        0.00070498
     244          0.297870        0.000000        0.00048883        0.00530111        0.00084612        0.00430261
     245          0.299453        0.000000        0.00063203        0.00757758        0.00303066        0.00237105
     246          0.300938        0.000000        0.00046695        0.00551599        0.00298689        0.00394009
     247          0.301249        0.000000        0.00021892        0.00265602        0.00357035        0.00069680
     248          0.302752        0.000000        0.00028589        0.00348624        0.00204774        0.00232965
     249          0.308412        0.000000        0.00026009        0.00431198        0.00237312        0.00128094
     250          0.321901        0.000000        0.00038279        0.00719103        0.00093962        0.00295153
     251          0.332468        0.000000        0.00079227        0.00843960        0.00122046        0.00610326
     252          0.333066        0.000000        0.00094714        0.01022392        0.00087663        0.00801087
     253          0.349314        0.000000        0.00060888        0.00758966        0.00704277        0.00122329
     254          0.438869        0.000000        0.00003532        0.00015093        0.00026409        0.00003712
     255          0.445460        0.000000        0.00002344        0.00018504        0.00010364        0.00002056
     256          0.448909        0.000000        0.00001621        0.00044484        0.00048053        0.00005125
     257          0.450356        0.000000        0.00000657        0.00005774        0.00003880        0.00011339
     258          0.450590        0.000000        0.00002009        0.00014013        0.00009348        0.00017504
     259          0.453082        0.000000        0.00002811        0.00029027        0.00009171        0.00035430