# Projected DOS for atomic kind N at iteration step i = 0, E(Fermi) =    -0.170888 a.u.
#     MO Eigenvalue [a.u.]      Occupation                 s                py                pz                px
       1         -0.976870        1.000000        0.62578665        0.00003222        0.00010885        0.00012952
       2         -0.972841        1.000000        0.62000027        0.00056803        0.00005512        0.00009461
       3         -0.967684        1.000000        0.62251830        0.00000111        0.00005502        0.00000560
       4         -0.958105        1.000000        0.62009959        0.00004257        0.00058881        0.00039961
       5         -0.950349        1.000000        0.61706328        0.00018090        0.00045218        0.00008898
       6         -0.940041        1.000000        0.61322206        0.00002954        0.00014200        0.00001361
       7         -0.933590        1.000000        0.61360679        0.00002160        0.00000568        0.00015928
       8         -0.709919        1.000000        0.01395741        0.01251884        0.01892521        0.20061958
       9         -0.709594        1.000000        0.01877534        0.01809648        0.02580202        0.16435978
      10         -0.703074        1.000000        0.01654519        0.01002113        0.17553935        0.02474499
      11         -0.697966        1.000000        0.01898856        0.00214839        0.07084536        0.13415473
      12         -0.695251        1.000000        0.02127489        0.00515848        0.01727905        0.17837445
      13         -0.683102        1.000000        0.01747671        0.00268896        0.12704701        0.06109251
      14         -0.678587        1.000000        0.01633690        0.03872055        0.02669107        0.12411246
      15         -0.626296        1.000000        0.00000410        0.00003882        0.00005708        0.00010787
      16         -0.615944        1.000000        0.00033839        0.00632007        0.00238764        0.00365077
      17         -0.615531        1.000000        0.00024861        0.00016383        0.06775128        0.00827330
      18         -0.608934        1.000000        0.00008626        0.24035568        0.29491859        0.07875397
      19         -0.606733        1.000000        0.00024958        0.04778909        0.13332841        0.00826313
      20         -0.598655        1.000000        0.00004142        0.00478645        0.02843482        0.00344612
      21         -0.597420        1.000000        0.00011200        0.26769427        0.10697624        0.21448390
      22         -0.596410        1.000000        0.00014104        0.01011075        0.28770266        0.02907290
      23         -0.588478        1.000000        0.00002365        0.50112707        0.00684899        0.00399940
      24         -0.587862        1.000000        0.00007582        0.10928929        0.01170963        0.06540431
      25         -0.586834        1.000000        0.00032470        0.08073584        0.05012895        0.05043355
      26         -0.585571        1.000000        0.00204774        0.48341853        0.01720517        0.03913740
      27         -0.584838        1.000000        0.00022398        0.17224862        0.07885993        0.05818438
      28         -0.583502        1.000000        0.00006415        0.10923600        0.03530938        0.01101318
      29         -0.581266        1.000000        0.00092992        0.07971733        0.00190701        0.03558443
      30         -0.580957        1.000000        0.00009798        0.01750906        0.00415413        0.00521506
      31         -0.580314        1.000000        0.00012140        0.01684336        0.00619076        0.01599572
      32         -0.579189        1.000000        0.00000716        0.33323982        0.25277476        0.00573354
      33         -0.578630        1.000000        0.00014568        0.10033967        0.02818146        0.09761722
      34         -0.577326        1.000000        0.00025298        0.12427469        0.00542301        0.09504011
      35         -0.576039        1.000000        0.00013629        0.04362219        0.00543180        0.02587215
      36         -0.575038        1.000000        0.00003611        0.01468851        0.01248180        0.00450301
      37         -0.572865        1.000000        0.00018848        0.01731301        0.01759906        0.01605829
      38         -0.570767        1.000000        0.00008012        0.01157769        0.05371376        0.00327181
      39         -0.569668        1.000000        0.00298802        0.00757207        0.24169035        0.22034136
      40         -0.569140        1.000000        0.00060708        0.07697503        0.09212499        0.04127168
      41         -0.567990        1.000000        0.00044674        0.06610493        0.00685793        0.02536752
      42         -0.567815        1.000000        0.00001047        0.00055276        0.00095982        0.00048425
      43         -0.566423        1.000000        0.00002015        0.00483222        0.00094412        0.00025827
      44         -0.565135        1.000000        0.00043875        0.00465330        0.06701224        0.00168550
      45         -0.564789        1.000000        0.00004310        0.01147753        0.01372085        0.02158649
      46         -0.564740        1.000000        0.00004972        0.01134967        0.01083270        0.01522875
      47         -0.562452        1.000000        0.00155267        0.01696574        0.24964875        0.01323600
      48         -0.559845        1.000000        0.00017025        0.02555071        0.07923937        0.13675846
      49         -0.559163        1.000000        0.00018199        0.01119938        0.06109241        0.09444566
      50         -0.557132        1.000000        0.00001045        0.03362761        0.02035384        0.01849429
      51         -0.554897        1.000000        0.00008595        0.33306320        0.00324433        0.00318910
      52         -0.553512        1.000000        0.00003057        0.01627624        0.02695502        0.03757882
      53         -0.553086        1.000000        0.00013407        0.14323314        0.06086351        0.00479933
      54         -0.552957        1.000000        0.00004551        0.03851262        0.01958114        0.00815888
      55         -0.551932        1.000000        0.00000867        0.01304385        0.00140981        0.00441056
      56         -0.551311        1.000000        0.00005927        0.01453241        0.00930711        0.00447506
      57         -0.550993        1.000000        0.00005313        0.02503039        0.00235734        0.00150035
      58         -0.550766        1.000000        0.00015303        0.08013128        0.00555759        0.01003305
      59         -0.550434        1.000000        0.00030424        0.17516545        0.01056110        0.04463495
      60         -0.546473        1.000000        0.00002496        0.03890375        0.01850950        0.02858690
      61         -0.545240        1.000000        0.00001912        0.02600880        0.00888477        0.00023999
      62         -0.545087        1.000000        0.00006560        0.00520590        0.00084992        0.00030159
      63         -0.544752        1.000000        0.00000159        0.00062721        0.00070568        0.00046823
      64         -0.543952        1.000000        0.00003503        0.00013103        0.31475147        0.05336772
      65         -0.499185        1.000000        0.01038205        0.01549121        0.03616086        0.35871957
      66         -0.492608        1.000000        0.00660914        0.00978592        0.04559590        0.38225259
      67         -0.489119        1.000000        0.00805081        0.03689564        0.34999125        0.04460225
      68         -0.482499        1.000000        0.00624065        0.00775269        0.22926872        0.20002482
      69         -0.477995        1.000000        0.00614552        0.01976446        0.00903042        0.40650086
      70         -0.463489        1.000000        0.00782487        0.00738976        0.29445087        0.12973854
      71         -0.458576        1.000000        0.00863545        0.09568735        0.04308001        0.27524178
      72         -0.456743        1.000000        0.00059508        0.00444706        0.00864651        0.02268322
      73         -0.452831        1.000000        0.00000327        0.00043469        0.00055056        0.00054090
      74         -0.448999        1.000000        0.00001245        0.00123830        0.00052862        0.00131983
      75         -0.445140        1.000000        0.00002208        0.00017536        0.00016107        0.00064228
      76         -0.442463        1.000000        0.00002008        0.00021743        0.00023068        0.00087245
      77         -0.440038        1.000000        0.00000726        0.00093955        0.00056093        0.00053644
      78         -0.438121        1.000000        0.00001007        0.00008632        0.00120050        0.00067742
      79         -0.432906        1.000000        0.00000735        0.00017907        0.00020291        0.00066181
      80         -0.424688        1.000000        0.00008205        0.03219249        0.00666216        0.00014550
      81         -0.422500        1.000000        0.00003969        0.00791366        0.02131759        0.00737428
      82         -0.417073        1.000000        0.00001753        0.00251877        0.03229043        0.00081861
      83         -0.416254        1.000000        0.00000768        0.01774250        0.00305095        0.01114616
      84         -0.416112        1.000000        0.00001071        0.01910846        0.00279019        0.00929638
      85         -0.413769        1.000000        0.00000065        0.02880432        0.00007967        0.01033525
      86         -0.411629        1.000000        0.00020466        0.00533463        0.01990218        0.01805011
      87         -0.411612        1.000000        0.00008839        0.01015758        0.02659404        0.00217751
      88         -0.410295        1.000000        0.00001625        0.02765501        0.00609792        0.00190627
      89         -0.407815        1.000000        0.00012767        0.03147170        0.01869293        0.00001573
      90         -0.401460        1.000000        0.00000982        0.02705621        0.00675432        0.00465458
      91         -0.399672        1.000000        0.00000037        0.01039593        0.00714644        0.01929038
      92         -0.395468        1.000000        0.00000013        0.00708078        0.02085963        0.01370124
      93         -0.394327        1.000000        0.00000015        0.02331009        0.01425959        0.00063306
      94         -0.305828        1.000000        0.00000215        0.00000544        0.00000336        0.00001438
      95         -0.292851        1.000000        0.00010899        0.00047314        0.00004761        0.00031499
      96         -0.290803        1.000000        0.00001886        0.00002387        0.00004503        0.00000488
      97         -0.277985        1.000000        0.00009313        0.00027921        0.00008003        0.00012480
      98         -0.271354        1.000000        0.00028974        0.00046820        0.00002906        0.00080466
      99         -0.265565        1.000000        0.00013824        0.00066983        0.00019041        0.00006766
     100         -0.262062        1.000000        0.00029125        0.00050576        0.00068426        0.00032087
     101         -0.259102        1.000000        0.00007335        0.00049369        0.00002864        0.00011739
     102         -0.258267        1.000000        0.00049878        0.00066706        0.00010459        0.00076915
     103         -0.257276        1.000000        0.00003204        0.00018888        0.00004538        0.00004160
     104         -0.255597        1.000000        0.00078712        0.00057541        0.00026893        0.00058378
     105         -0.253055        1.000000        0.00071590        0.00010657        0.00188706        0.00012836
     106         -0.252632        1.000000        0.00056048        0.00027631        0.00081035        0.00019953
     107         -0.250878        1.000000        0.00018892        0.00053250        0.00025053        0.00019250
     108         -0.249102        1.000000        0.00016944        0.00026988        0.00037826        0.00005105
     109         -0.245814        1.000000        0.00002976        0.00001510        0.00031433        0.00007292
     110         -0.244428        1.000000        0.00014280        0.00069590        0.00006976        0.00019152
     111         -0.243475        1.000000        0.00016342        0.00003282        0.00013052        0.00007526
     112         -0.240769        1.000000        0.00026545        0.00056209        0.00041953        0.00016940
     113         -0.239759        1.000000        0.00003086        0.00000988        0.00006635        0.00030300
     114         -0.239486        1.000000        0.00064532        0.00059104        0.00025413        0.00142886
     115         -0.237211        1.000000        0.00108664        0.00028032        0.00117234        0.00028088
     116         -0.236402        1.000000        0.00016955        0.00024861        0.00023509        0.00013102
     117         -0.235713        1.000000        0.00008367        0.00068884        0.00023014        0.00048403
     118         -0.233930        1.000000        0.00059641        0.00033441        0.00013973        0.00042771
     119         -0.232639        1.000000        0.00043933        0.00038338        0.00028269        0.00028419
     120         -0.230222        1.000000        0.00040099        0.00161354        0.00011429        0.00054052
     121         -0.228668        1.000000        0.00077360        0.00036413        0.00063368        0.00037461
     122         -0.226914        1.000000        0.00029567        0.00125499        0.00015217        0.00054580
     123         -0.225853        1.000000        0.00077174        0.00102107        0.00136406        0.00024202
     124         -0.225386        1.000000        0.00023418        0.00015889        0.00022178        0.00006846
     125         -0.221874        1.000000        0.00141781        0.00025830        0.00095918        0.00036250
     126         -0.221311        1.000000        0.00231280        0.00217737        0.00020097        0.00224974
     127         -0.218792        1.000000        0.00048730        0.00058242        0.00017388        0.00048584
     128         -0.218137        1.000000        0.00123863        0.00097258        0.00040302        0.00113979
     129         -0.216836        1.000000        0.00004554        0.00019123        0.00019011        0.00097781
     130         -0.214780        1.000000        0.00125821        0.00123102        0.00197199        0.00060923
     131         -0.213752        1.000000        0.00041225        0.00924893        0.00011746        0.00140408
     132         -0.211390        1.000000        0.00016651        0.00029674        0.00012104        0.00031570
     133         -0.210322        1.000000        0.00017683        0.00026084        0.00024590        0.00077662
     134         -0.208457        1.000000        0.00021353        0.00073514        0.00020152        0.00047337
     135         -0.207481        1.000000        0.00207743        0.00025729        0.00118054        0.00133532
     136         -0.206807        1.000000        0.00024333        0.00056458        0.00020068        0.00019744
     137         -0.205890        1.000000        0.00008116        0.00019461        0.00028827        0.00025273
     138         -0.204867        1.000000        0.00027004        0.00087065        0.00046976        0.00038711
     139         -0.204656        1.000000        0.00017271        0.00165509        0.00020447        0.00017687
     140         -0.203932        1.000000        0.00016032        0.00012280        0.00036472        0.00005476
     141         -0.202643        1.000000        0.00042982        0.00033137        0.00011974        0.00009670
     142         -0.201775        1.000000        0.00018058        0.00009041        0.00003269        0.00019705
     143         -0.199737        1.000000        0.00036380        0.00041841        0.00011695        0.00019892
     144         -0.198914        1.000000        0.00006158        0.00010148        0.00006647        0.00004946
     145         -0.198468        1.000000        0.00007964        0.00038680        0.00009656        0.00015802
     146         -0.197400        1.000000        0.00003592        0.00059933        0.00006177        0.00012389
     147         -0.196947        1.000000        0.00022406        0.00046250        0.00081349        0.00027202
     148         -0.196335        1.000000        0.00037949        0.00086266        0.00029416        0.00029057
     149         -0.195378        1.000000        0.00048083        0.00128468        0.00036403        0.00026694
     150         -0.194376        1.000000        0.00003764        0.00025725        0.00275138        0.00025555
     151         -0.193729        1.000000        0.00091473        0.00132469        0.00014182        0.00004994
     152         -0.193407        1.000000        0.00017013        0.00046905        0.00101223        0.00009599
     153         -0.193002        1.000000        0.00097949        0.00273817        0.00027418        0.00037633
     154         -0.192037        1.000000        0.00066303        0.00206225        0.00145631        0.00051924
     155         -0.191752        1.000000        0.00007815        0.00033921        0.00018295        0.00005994
     156         -0.190653        1.000000        0.00054582        0.00189298        0.00017482        0.00051262
     157         -0.190118        1.000000        0.00057007        0.00218263        0.00005932        0.00042311
     158         -0.189341        1.000000        0.00028880        0.00120633        0.00008831        0.00037556
     159         -0.188814        1.000000        0.00065421        0.00182104        0.00025175        0.00039869
     160         -0.188160        1.000000        0.00030710        0.00058044        0.00043220        0.00018552
     161         -0.187267        1.000000        0.00019693        0.00011798        0.00195774        0.00040136
     162         -0.186642        1.000000        0.00059825        0.00276123        0.00014273        0.00070501
     163         -0.185336        1.000000        0.00007918        0.00014537        0.00027249        0.00009951
     164         -0.185294        1.000000        0.00011034        0.00050524        0.00040657        0.00027086
     165         -0.184820        1.000000        0.00039624        0.00047676        0.00021816        0.00014694
     166         -0.184488        1.000000        0.00036758        0.00054760        0.00010778        0.00015908
     167         -0.183022        1.000000        0.00008792        0.00004572        0.00011495        0.00005971
     168         -0.182577        1.000000        0.00009695        0.00010358        0.00007783        0.00009231
     169         -0.181916        1.000000        0.00021514        0.00019823        0.00023559        0.00008347
     170         -0.181365        1.000000        0.00003910        0.00001318        0.00008647        0.00002221
     171         -0.180415        1.000000        0.00003218        0.00005487        0.00008195        0.00004191
     172         -0.179825        1.000000        0.00033258        0.00000791        0.00029436        0.00015614
     173         -0.178925        1.000000        0.00004097        0.00027801        0.00010026        0.00002760
     174         -0.178684        1.000000        0.00002573        0.00002594        0.00070502        0.00008864
     175         -0.178365        1.000000        0.00007713        0.00006749        0.00034965        0.00003879
     176         -0.177760        1.000000        0.00004564        0.00003906        0.00005204        0.00002403
     177         -0.177163        1.000000        0.00008309        0.00021281        0.00001905        0.00007731
     178         -0.176657        1.000000        0.00012795        0.00019297        0.00002371        0.00002785
     179         -0.176206        1.000000        0.00003151        0.00006619        0.00041834        0.00005062
     180         -0.175959        1.000000        0.00019050        0.00047766        0.00002071        0.00015445
     181         -0.175543        1.000000        0.00004903        0.00017276        0.00005453        0.00002468
     182         -0.174032        1.000000        0.00005074        0.00009558        0.00006531        0.00005875
     183         -0.173640        1.000000        0.00007213        0.00006276        0.00012976        0.00002713
     184         -0.173256        1.000000        0.00002857        0.00007705        0.00008433        0.00005130
     185         -0.173202        1.000000        0.00008134        0.00014427        0.00001485        0.00006145
     186         -0.173133        1.000000        0.00008126        0.00026522        0.00003792        0.00002779
     187         -0.172691        1.000000        0.00002772        0.00002572        0.00012346        0.00003917
     188         -0.172343        1.000000        0.00001226        0.00003305        0.00003884        0.00002892
     189         -0.172103        1.000000        0.00002972        0.00002259        0.00002979        0.00004783
     190         -0.171978        1.000000        0.00003634        0.00003609        0.00003356        0.00003057
     191         -0.171780        1.000000        0.00000724        0.00001549        0.00001659        0.00002545
     192         -0.171711        1.000000        0.00004563        0.00011329        0.00001295        0.00006580
     193         -0.171612        1.000000        0.00002161        0.00000476        0.00003151        0.00001378
     194         -0.171103        1.000000        0.00000324        0.00004061        0.00004132        0.00004092
     195         -0.170888        1.000000        0.00000651        0.00000412        0.00001909        0.00000848
     196         -0.170741        0.000000        0.00001336        0.00004482        0.00000554        0.00003152
     197         -0.170577        0.000000        0.00000882        0.00001118        0.00001963        0.00000670
     198         -0.170357        0.000000        0.00000973        0.00003440        0.00002276        0.00004969
     199         -0.170282        0.000000        0.00001642        0.00005959        0.00002061        0.00003411
     200         -0.169617        0.000000        0.00002312        0.00002379        0.00001366        0.00003395
     201         -0.166213        0.000000        0.00000473        0.00000957        0.00000377        0.00000128
     202         -0.065459        0.000000        0.00040417        0.00047137        0.00006291        0.00013032
     203         -0.060708        0.000000        0.00009298        0.00006279        0.00013464        0.00002408
     204         -0.056286        0.000000        0.00007882        0.00017830        0.00003034        0.00003769
     205         -0.047629        0.000000        0.00007908        0.00009061        0.00020725        0.00011766
     206         -0.044273        0.000000        0.00022276        0.00001421        0.00019579        0.00013038
     207         -0.043033        0.000000        0.00013277        0.00016907        0.00003281        0.00003922
     208         -0.042369        0.000000        0.00021420        0.00008918        0.00006333        0.00001855
     209         -0.041332        0.000000        0.00013459        0.00009128        0.00005481        0.00004269
     210         -0.039500        0.000000        0.00010086        0.00014920        0.00004626        0.00012356
     211         -0.037268        0.000000        0.00002459        0.00012334        0.00007445        0.00001241
     212         -0.035304        0.000000        0.00011952        0.00006692        0.00017654        0.00008677
     213         -0.032877        0.000000        0.00013830        0.00003360        0.00022998        0.00010035
     214         -0.032228        0.000000        0.00016786        0.00017659        0.00015882        0.00003648
     215         -0.031830        0.000000        0.00023425        0.00011986        0.00002455        0.00009471
     216         -0.031082        0.000000        0.00008013        0.00003297        0.00006342        0.00011955
     217         -0.028595        0.000000        0.00009995        0.00002129        0.00008492        0.00002870
     218         -0.027320        0.000000        0.00003302        0.00002040        0.00013295        0.00003751
     219         -0.022857        0.000000        0.00006659        0.00009254        0.00004685        0.00001661
     220         -0.018485        0.000000        0.00012428        0.00003283        0.00001652        0.00001107
     221         -0.017725        0.000000        0.00018227        0.00014679        0.00006915        0.00015714
     222         -0.016999        0.000000        0.00008000        0.00009469        0.00001413        0.00006427
     223         -0.014423        0.000000        0.00027731        0.00045659        0.00005170        0.00013064
     224         -0.012420        0.000000        0.00003062        0.00001506        0.00029611        0.00004501
     225         -0.003998        0.000000        0.00032902        0.00017235        0.00045767        0.00015151
     226          0.078969        0.000000        0.10950325        0.01812946        0.03188134        0.19759601
     227          0.086774        0.000000        0.10843289        0.01781043        0.20601273        0.02314966
     228          0.088422        0.000000        0.13290604        0.01177092        0.02813932        0.18037771
     229          0.095327        0.000000        0.12633483        0.00456608        0.06555917        0.16174253
     230          0.100472        0.000000        0.12605309        0.00228367        0.02845951        0.20416296
     231          0.103387        0.000000        0.10002186        0.06134385        0.02697811        0.17381261
     232          0.104699        0.000000        0.09666111        0.00428745        0.18160164        0.07905715
     233          0.141106        0.000000        0.04036124        0.00012523        0.27568573        0.01903069
     234          0.153304        0.000000        0.05522714        0.16160000        0.00482523        0.11224684
     235          0.158117        0.000000        0.03601196        0.07536289        0.14284950        0.08148274
     236          0.170804        0.000000        0.00271964        0.20313812        0.12235368        0.00040386
     237          0.207941        0.000000        0.01919817        0.23456949        0.00224560        0.07789494
     238          0.217462        0.000000        0.11154223        0.01420006        0.04753117        0.17146692
     239          0.246985        0.000000        0.10072772        0.03188429        0.00120005        0.20426532
     240          0.275909        0.000000        0.00019185        0.04530257        0.25637277        0.02145434
     241          0.284510        0.000000        0.09968315        0.10284912        0.13219951        0.00198184
     242          0.291042        0.000000        0.00294248        0.30241653        0.00075941        0.01504721
     243          0.294309        0.000000        0.11714517        0.05447911        0.13674320        0.02740936
     244          0.297558        0.000000        0.00210627        0.11360128        0.05541765        0.15062466
     245          0.299139        0.000000        0.00610739        0.16972378        0.08249538        0.05561658
     246          0.300623        0.000000        0.00701399        0.06132587        0.14009485        0.10762712
     247          0.300923        0.000000        0.17419432        0.11053370        0.03560292        0.02016439
     248          0.302444        0.000000        0.00402842        0.21233781        0.08833430        0.01271078
     249          0.308104        0.000000        0.00009934        0.18918897        0.10587955        0.02144704
     250          0.321571        0.000000        0.17268626        0.01146642        0.00339329        0.14896696
     251          0.332158        0.000000        0.18613602        0.02059654        0.06865053        0.05787934
     252          0.332753        0.000000        0.23523860        0.00768478        0.05412039        0.04284644
     253          0.349011        0.000000        0.24363154        0.02985626        0.02157461        0.05065739
     254          0.438586        0.000000        0.00015604        0.00062180        0.02191492        0.00224873
     255          0.445181        0.000000        0.00055852        0.01667635        0.00006902        0.00004525
     256          0.448623        0.000000        0.00015369        0.01108913        0.01081580        0.00183976
     257          0.450068        0.000000        0.00001657        0.00241396        0.00070560        0.01377473
     258          0.450295        0.000000        0.00000438        0.00596917        0.00777129        0.00023774
     259          0.452789        0.000000        0.00074222        0.01507461        0.00411164        0.00389344