# Projected DOS for atomic kind H at iteration step i = 0, E(Fermi) =    -0.170888 a.u.
#     MO Eigenvalue [a.u.]      Occupation                 s
       1         -0.976870        1.000000        0.26783404
       2         -0.972841        1.000000        0.26977308
       3         -0.967684        1.000000        0.27161311
       4         -0.958105        1.000000        0.26703166
       5         -0.950349        1.000000        0.26618685
       6         -0.940041        1.000000        0.28078641
       7         -0.933590        1.000000        0.28317678
       8         -0.709919        1.000000        0.32657495
       9         -0.709594        1.000000        0.33792119
      10         -0.703074        1.000000        0.33664395
      11         -0.697966        1.000000        0.34058729
      12         -0.695251        1.000000        0.34475912
      13         -0.683102        1.000000        0.34695133
      14         -0.678587        1.000000        0.34701941
      15         -0.626296        1.000000        0.00014965
      16         -0.615944        1.000000        0.00849306
      17         -0.615531        1.000000        0.04659310
      18         -0.608934        1.000000        0.33443733
      19         -0.606733        1.000000        0.10492432
      20         -0.598655        1.000000        0.02029122
      21         -0.597420        1.000000        0.31907912
      22         -0.596410        1.000000        0.17121250
      23         -0.588478        1.000000        0.28195527
      24         -0.587862        1.000000        0.11485529
      25         -0.586834        1.000000        0.10994666
      26         -0.585571        1.000000        0.28949763
      27         -0.584838        1.000000        0.17721404
      28         -0.583502        1.000000        0.08769577
      29         -0.581266        1.000000        0.06554239
      30         -0.580957        1.000000        0.01564977
      31         -0.580314        1.000000        0.02222864
      32         -0.579189        1.000000        0.30295767
      33         -0.578630        1.000000        0.12304247
      34         -0.577326        1.000000        0.11921978
      35         -0.576039        1.000000        0.03964893
      36         -0.575038        1.000000        0.01623821
      37         -0.572865        1.000000        0.03190275
      38         -0.570767        1.000000        0.04309493
      39         -0.569668        1.000000        0.25836866
      40         -0.569140        1.000000        0.12218787
      41         -0.567990        1.000000        0.05902247
      42         -0.567815        1.000000        0.00116223
      43         -0.566423        1.000000        0.00292096
      44         -0.565135        1.000000        0.04112094
      45         -0.564789        1.000000        0.02519451
      46         -0.564740        1.000000        0.02008244
      47         -0.562452        1.000000        0.15507984
      48         -0.559845        1.000000        0.13100356
      49         -0.559163        1.000000        0.08948874
      50         -0.557132        1.000000        0.03892768
      51         -0.554897        1.000000        0.17387519
      52         -0.553512        1.000000        0.04074430
      53         -0.553086        1.000000        0.10079853
      54         -0.552957        1.000000        0.03094774
      55         -0.551932        1.000000        0.00974603
      56         -0.551311        1.000000        0.01218736
      57         -0.550993        1.000000        0.01446770
      58         -0.550766        1.000000        0.04823949
      59         -0.550434        1.000000        0.11920730
      60         -0.546473        1.000000        0.04388311
      61         -0.545240        1.000000        0.01588512
      62         -0.545087        1.000000        0.00302413
      63         -0.544752        1.000000        0.00108418
      64         -0.543952        1.000000        0.18375519
      65         -0.499185        1.000000        0.20300438
      66         -0.492608        1.000000        0.18739072
      67         -0.489119        1.000000        0.18795617
      68         -0.482499        1.000000        0.18861393
      69         -0.477995        1.000000        0.18653330
      70         -0.463489        1.000000        0.17136747
      71         -0.458576        1.000000        0.16376846
      72         -0.456743        1.000000        0.01419654
      73         -0.452831        1.000000        0.00077888
      74         -0.448999        1.000000        0.00194070
      75         -0.445140        1.000000        0.00081943
      76         -0.442463        1.000000        0.00088478
      77         -0.440038        1.000000        0.00174679
      78         -0.438121        1.000000        0.00121216
      79         -0.432906        1.000000        0.00668072
      80         -0.424688        1.000000        0.42248747
      81         -0.422500        1.000000        0.41977933
      82         -0.417073        1.000000        0.41940641
      83         -0.416254        1.000000        0.41762666
      84         -0.416112        1.000000        0.41524130
      85         -0.413769        1.000000        0.41511758
      86         -0.411629        1.000000        0.42397844
      87         -0.411612        1.000000        0.42386151
      88         -0.410295        1.000000        0.41893158
      89         -0.407815        1.000000        0.42386528
      90         -0.401460        1.000000        0.42022261
      91         -0.399672        1.000000        0.41971374
      92         -0.395468        1.000000        0.42140106
      93         -0.394327        1.000000        0.42071966
      94         -0.305828        1.000000        0.00006496
      95         -0.292851        1.000000        0.00020772
      96         -0.290803        1.000000        0.00013980
      97         -0.277985        1.000000        0.00025431
      98         -0.271354        1.000000        0.00090430
      99         -0.265565        1.000000        0.00026027
     100         -0.262062        1.000000        0.00038145
     101         -0.259102        1.000000        0.00022774
     102         -0.258267        1.000000        0.00056400
     103         -0.257276        1.000000        0.00015000
     104         -0.255597        1.000000        0.00063372
     105         -0.253055        1.000000        0.00085722
     106         -0.252632        1.000000        0.00079419
     107         -0.250878        1.000000        0.00034332
     108         -0.249102        1.000000        0.00046441
     109         -0.245814        1.000000        0.00033502
     110         -0.244428        1.000000        0.00047851
     111         -0.243475        1.000000        0.00034584
     112         -0.240769        1.000000        0.00044621
     113         -0.239759        1.000000        0.00034528
     114         -0.239486        1.000000        0.00068557
     115         -0.237211        1.000000        0.00127913
     116         -0.236402        1.000000        0.00035757
     117         -0.235713        1.000000        0.00035916
     118         -0.233930        1.000000        0.00065243
     119         -0.232639        1.000000        0.00046928
     120         -0.230222        1.000000        0.00049829
     121         -0.228668        1.000000        0.00076076
     122         -0.226914        1.000000        0.00059715
     123         -0.225853        1.000000        0.00085839
     124         -0.225386        1.000000        0.00057081
     125         -0.221874        1.000000        0.00111096
     126         -0.221311        1.000000        0.00208247
     127         -0.218792        1.000000        0.00056412
     128         -0.218137        1.000000        0.00115033
     129         -0.216836        1.000000        0.00053738
     130         -0.214780        1.000000        0.00112461
     131         -0.213752        1.000000        0.00153268
     132         -0.211390        1.000000        0.00054177
     133         -0.210322        1.000000        0.00081649
     134         -0.208457        1.000000        0.00053406
     135         -0.207481        1.000000        0.00197278
     136         -0.206807        1.000000        0.00049500
     137         -0.205890        1.000000        0.00049526
     138         -0.204867        1.000000        0.00062808
     139         -0.204656        1.000000        0.00084147
     140         -0.203932        1.000000        0.00035623
     141         -0.202643        1.000000        0.00067215
     142         -0.201775        1.000000        0.00028105
     143         -0.199737        1.000000        0.00052238
     144         -0.198914        1.000000        0.00011036
     145         -0.198468        1.000000        0.00027971
     146         -0.197400        1.000000        0.00029549
     147         -0.196947        1.000000        0.00056741
     148         -0.196335        1.000000        0.00049789
     149         -0.195378        1.000000        0.00077083
     150         -0.194376        1.000000        0.00069571
     151         -0.193729        1.000000        0.00084442
     152         -0.193407        1.000000        0.00039238
     153         -0.193002        1.000000        0.00133411
     154         -0.192037        1.000000        0.00115482
     155         -0.191752        1.000000        0.00021589
     156         -0.190653        1.000000        0.00095811
     157         -0.190118        1.000000        0.00088837
     158         -0.189341        1.000000        0.00065154
     159         -0.188814        1.000000        0.00108678
     160         -0.188160        1.000000        0.00039685
     161         -0.187267        1.000000        0.00057960
     162         -0.186642        1.000000        0.00115245
     163         -0.185336        1.000000        0.00016919
     164         -0.185294        1.000000        0.00032743
     165         -0.184820        1.000000        0.00034636
     166         -0.184488        1.000000        0.00039585
     167         -0.183022        1.000000        0.00014702
     168         -0.182577        1.000000        0.00012466
     169         -0.181916        1.000000        0.00018029
     170         -0.181365        1.000000        0.00012822
     171         -0.180415        1.000000        0.00012040
     172         -0.179825        1.000000        0.00060588
     173         -0.178925        1.000000        0.00013300
     174         -0.178684        1.000000        0.00027525
     175         -0.178365        1.000000        0.00022472
     176         -0.177760        1.000000        0.00018393
     177         -0.177163        1.000000        0.00041573
     178         -0.176657        1.000000        0.00021901
     179         -0.176206        1.000000        0.00013264
     180         -0.175959        1.000000        0.00030477
     181         -0.175543        1.000000        0.00033916
     182         -0.174032        1.000000        0.00024900
     183         -0.173640        1.000000        0.00015944
     184         -0.173256        1.000000        0.00009048
     185         -0.173202        1.000000        0.00012932
     186         -0.173133        1.000000        0.00017690
     187         -0.172691        1.000000        0.00007782
     188         -0.172343        1.000000        0.00008456
     189         -0.172103        1.000000        0.00018694
     190         -0.171978        1.000000        0.00017363
     191         -0.171780        1.000000        0.00008955
     192         -0.171711        1.000000        0.00010690
     193         -0.171612        1.000000        0.00006017
     194         -0.171103        1.000000        0.00004937
     195         -0.170888        1.000000        0.00003232
     196         -0.170741        0.000000        0.00005128
     197         -0.170577        0.000000        0.00004698
     198         -0.170357        0.000000        0.00005102
     199         -0.170282        0.000000        0.00007714
     200         -0.169617        0.000000        0.00008096
     201         -0.166213        0.000000        0.00000844
     202         -0.065459        0.000000        0.00065337
     203         -0.060708        0.000000        0.00018409
     204         -0.056286        0.000000        0.00021138
     205         -0.047629        0.000000        0.00030188
     206         -0.044273        0.000000        0.00045466
     207         -0.043033        0.000000        0.00022849
     208         -0.042369        0.000000        0.00031031
     209         -0.041332        0.000000        0.00021293
     210         -0.039500        0.000000        0.00031714
     211         -0.037268        0.000000        0.00019462
     212         -0.035304        0.000000        0.00032704
     213         -0.032877        0.000000        0.00029520
     214         -0.032228        0.000000        0.00032952
     215         -0.031830        0.000000        0.00040932
     216         -0.031082        0.000000        0.00010177
     217         -0.028595        0.000000        0.00024086
     218         -0.027320        0.000000        0.00020572
     219         -0.022857        0.000000        0.00018383
     220         -0.018485        0.000000        0.00018196
     221         -0.017725        0.000000        0.00029286
     222         -0.016999        0.000000        0.00024549
     223         -0.014423        0.000000        0.00070406
     224         -0.012420        0.000000        0.00029651
     225         -0.003998        0.000000        0.00091489
     226          0.078969        0.000000        0.00775721
     227          0.086774        0.000000        0.00438881
     228          0.088422        0.000000        0.01262934
     229          0.095327        0.000000        0.02425496
     230          0.100472        0.000000        0.02633945
     231          0.103387        0.000000        0.00334062
     232          0.104699        0.000000        0.00298078
     233          0.141106        0.000000        0.64363338
     234          0.153304        0.000000        0.65960118
     235          0.158117        0.000000        0.64258538
     236          0.170804        0.000000        0.67023606
     237          0.207941        0.000000        0.66417155
     238          0.217462        0.000000        0.64263296
     239          0.246985        0.000000        0.65504287
     240          0.275909        0.000000        0.66499715
     241          0.284510        0.000000        0.65490934
     242          0.291042        0.000000        0.66432816
     243          0.294309        0.000000        0.65505716
     244          0.297558        0.000000        0.66009164
     245          0.299139        0.000000        0.66355637
     246          0.300623        0.000000        0.66233777
     247          0.300923        0.000000        0.64548916
     248          0.302444        0.000000        0.66455033
     249          0.308104        0.000000        0.66240165
     250          0.321571        0.000000        0.64349578
     251          0.332158        0.000000        0.64139758
     252          0.332753        0.000000        0.63447086
     253          0.349011        0.000000        0.63087877
     254          0.438586        0.000000        0.58410312
     255          0.445181        0.000000        0.58843001
     256          0.448623        0.000000        0.58942538
     257          0.450068        0.000000        0.58769329
     258          0.450295        0.000000        0.58922602
     259          0.452789        0.000000        0.58619648
     260          0.454571        0.000000        0.58735029
     261          0.456023        0.000000        0.58270319
     262          0.456339        0.000000        0.58557559
     263          0.456804        0.000000        0.58456228
     264          0.468051        0.000000        0.58241545
     265          0.471428        0.000000        0.58068492
     266          0.474057        0.000000        0.58135696
     267          0.477800        0.000000        0.58219579
     268          0.542735        0.000000        0.55338169
     269          0.560063        0.000000        0.55166799
     270          0.562212        0.000000        0.55239699
     271          0.562826        0.000000        0.55224895
     272          0.564337        0.000000        0.55162964
     273          0.568815        0.000000        0.55379087
     274          0.571768        0.000000        0.55205441
