# Projected DOS for atomic kind Pb at iteration step i = 0, E(Fermi) =    -0.170199 a.u.
#     MO Eigenvalue [a.u.]      Occupation                 s                py                pz                px
       1         -0.976507        1.000000        0.00000001        0.00000012        0.00000015        0.00000008
       2         -0.972482        1.000000        0.00000001        0.00000009        0.00000003        0.00000014
       3         -0.967328        1.000000        0.00000155        0.00002262        0.00002740        0.00001160
       4         -0.957738        1.000000        0.00000006        0.00000048        0.00000044        0.00000042
       5         -0.949993        1.000000        0.00000039        0.00000510        0.00000861        0.00000192
       6         -0.939683        1.000000        0.00000020        0.00000166        0.00000260        0.00000083
       7         -0.933237        1.000000        0.00000012        0.00000096        0.00000079        0.00000135
       8         -0.709556        1.000000        0.00000324        0.00000528        0.00000885        0.00000534
       9         -0.709244        1.000000        0.00000149        0.00000286        0.00000166        0.00000086
      10         -0.702720        1.000000        0.00004971        0.00009311        0.00007771        0.00012154
      11         -0.697606        1.000000        0.00000736        0.00001252        0.00001309        0.00001450
      12         -0.694905        1.000000        0.00001977        0.00001628        0.00002249        0.00000178
      13         -0.682756        1.000000        0.00003160        0.00003684        0.00002520        0.00002345
      14         -0.678241        1.000000        0.00000556        0.00000814        0.00000241        0.00000819
      15         -0.625984        1.000000        0.00082598        0.00083281        0.00035504        0.00001039
      16         -0.615401        1.000000        0.00635946        0.00569235        0.00142662        0.00010228
      17         -0.615053        1.000000        0.00312127        0.00206352        0.00008877        0.00286384
      18         -0.608547        1.000000        0.00006921        0.00001132        0.00000513        0.00002450
      19         -0.606279        1.000000        0.00900374        0.00199422        0.00025774        0.00444918
      20         -0.598304        1.000000        0.09757158        0.00129115        0.01327704        0.00010271
      21         -0.597042        1.000000        0.00269105        0.00006690        0.00097039        0.00032102
      22         -0.595983        1.000000        0.01117849        0.00096080        0.00067019        0.00282798
      23         -0.588053        1.000000        0.00639041        0.00031994        0.00011468        0.00022910
      24         -0.587403        1.000000        0.03235396        0.00189770        0.01368376        0.00116804
      25         -0.586298        1.000000        0.02688269        0.00734881        0.00743196        0.00083734
      26         -0.585178        1.000000        0.00308017        0.00024913        0.00028256        0.00020484
      27         -0.584385        1.000000        0.02519993        0.00135535        0.00669064        0.00091870
      28         -0.583030        1.000000        0.08204945        0.00018495        0.01176848        0.00164643
      29         -0.580789        1.000000        0.04633841        0.01275308        0.00751617        0.00050208
      30         -0.580632        1.000000        0.01841249        0.00426331        0.00365461        0.00090858
      31         -0.579972        1.000000        0.04786819        0.01729929        0.00307579        0.00144953
      32         -0.578803        1.000000        0.00177059        0.00082295        0.00029582        0.00018447
      33         -0.578255        1.000000        0.02924402        0.01290224        0.00439523        0.00102214
      34         -0.576847        1.000000        0.02681686        0.00441328        0.00353945        0.00126832
      35         -0.575499        1.000000        0.00834706        0.00169904        0.00079872        0.00018057
      36         -0.574536        1.000000        0.00365459        0.00015068        0.00028168        0.00096796
      37         -0.572217        1.000000        0.07390140        0.00229722        0.00428480        0.00425718
      38         -0.570091        1.000000        0.00929958        0.00201986        0.00810674        0.02175986
      39         -0.569221        1.000000        0.00382063        0.00037193        0.00156893        0.00115692
      40         -0.568575        1.000000        0.00907147        0.00175367        0.00833531        0.00550447
      41         -0.567462        1.000000        0.00527379        0.01927020        0.01680393        0.00485167
      42         -0.567292        1.000000        0.01092260        0.00092575        0.00248414        0.02997409
      43         -0.565884        1.000000        0.00012092        0.00025594        0.00055325        0.00319863
      44         -0.564604        1.000000        0.05328376        0.00027835        0.00526708        0.01985015
      45         -0.564320        1.000000        0.03691748        0.00003332        0.00642506        0.02402016
      46         -0.564027        1.000000        0.08700280        0.00152395        0.00403640        0.01183666
      47         -0.561986        1.000000        0.01779354        0.00354963        0.00675696        0.00484027
      48         -0.559295        1.000000        0.03559972        0.00447095        0.00626913        0.00383335
      49         -0.558493        1.000000        0.02931451        0.01162612        0.00798756        0.00378435
      50         -0.556547        1.000000        0.02435271        0.01938889        0.00667368        0.00452468
      51         -0.554391        1.000000        0.02249627        0.00264013        0.00533950        0.00374210
      52         -0.553007        1.000000        0.03389183        0.00235884        0.00392876        0.01674119
      53         -0.552611        1.000000        0.03356839        0.00092891        0.00941451        0.00620190
      54         -0.552129        1.000000        0.00453895        0.01378537        0.00269580        0.01049149
      55         -0.551096        1.000000        0.00081003        0.01303455        0.01333034        0.00019841
      56         -0.550563        1.000000        0.00304010        0.01694100        0.00940318        0.00394101
      57         -0.550343        1.000000        0.00801551        0.01354997        0.01099375        0.00343438
      58         -0.550151        1.000000        0.00604471        0.00726173        0.01594206        0.00459401
      59         -0.549859        1.000000        0.00673513        0.00654564        0.00582377        0.00492938
      60         -0.545864        1.000000        0.00109186        0.00167525        0.02213996        0.00399976
      61         -0.544579        1.000000        0.00619605        0.00016897        0.00660529        0.01744236
      62         -0.544192        1.000000        0.00365426        0.00097397        0.00041810        0.01683205
      63         -0.543802        1.000000        0.00343472        0.01832397        0.00472250        0.00050057
      64         -0.543457        1.000000        0.00424491        0.00322013        0.00375350        0.00597166
      65         -0.498836        1.000000        0.00017835        0.00000865        0.00001292        0.00001422
      66         -0.492264        1.000000        0.00032515        0.00002033        0.00000070        0.00000414
      67         -0.488771        1.000000        0.00021021        0.00006472        0.00011644        0.00018587
      68         -0.482145        1.000000        0.00051237        0.00000833        0.00002641        0.00006027
      69         -0.477652        1.000000        0.00211475        0.00000275        0.00003496        0.00000541
      70         -0.463144        1.000000        0.01845011        0.00007306        0.00014760        0.00002599
      71         -0.458230        1.000000        0.04540229        0.00008559        0.00002971        0.00008970
      72         -0.456388        1.000000        0.62077950        0.00065576        0.00017531        0.00042144
      73         -0.452388        1.000000        0.72740366        0.00051788        0.00095396        0.00142598
      74         -0.448610        1.000000        0.75715323        0.00048009        0.00019231        0.00131380
      75         -0.444761        1.000000        0.75192307        0.00062974        0.00103806        0.00129772
      76         -0.441975        1.000000        0.74907309        0.00052977        0.00024572        0.00086553
      77         -0.439603        1.000000        0.75673360        0.00014576        0.00056177        0.00043330
      78         -0.437852        1.000000        0.76850791        0.00006640        0.00021904        0.00094592
      79         -0.432616        1.000000        0.76152894        0.00020462        0.00029010        0.00095181
      80         -0.424365        1.000000        0.00083983        0.00001038        0.00000622        0.00001808
      81         -0.422174        1.000000        0.00047471        0.00001157        0.00000317        0.00000507
      82         -0.416735        1.000000        0.00196713        0.00002221        0.00002530        0.00008293
      83         -0.415927        1.000000        0.00043130        0.00011367        0.00006406        0.00025311
      84         -0.415785        1.000000        0.00442871        0.00008281        0.00005663        0.00007556
      85         -0.413436        1.000000        0.00892165        0.00009804        0.00036761        0.00021595
      86         -0.411297        1.000000        0.00028699        0.00000593        0.00000144        0.00005708
      87         -0.411290        1.000000        0.00009944        0.00002423        0.00002525        0.00001202
      88         -0.409955        1.000000        0.00070554        0.00002660        0.00005718        0.00011751
      89         -0.407492        1.000000        0.00021695        0.00002222        0.00003498        0.00000242
      90         -0.401141        1.000000        0.00143412        0.00010800        0.00022620        0.00002457
      91         -0.399353        1.000000        0.00085459        0.00014915        0.00013183        0.00013508
      92         -0.395146        1.000000        0.00066919        0.00001940        0.00000857        0.00011247
      93         -0.394008        1.000000        0.00072767        0.00000908        0.00002556        0.00015240
      94         -0.305437        1.000000        0.00057770        0.01208153        0.00075384        0.00011769
      95         -0.292038        1.000000        0.00117979        0.01250693        0.01109522        0.00081681
      96         -0.290104        1.000000        0.00104209        0.00873218        0.00099287        0.01194502
      97         -0.277343        1.000000        0.00104877        0.04495523        0.01690852        0.02356469
      98         -0.270901        1.000000        0.00265041        0.05625049        0.16221595        0.00113091
      99         -0.264863        1.000000        0.00460507        0.05118528        0.06472823        0.09180178
     100         -0.261410        1.000000        0.00636753        0.04295207        0.03780024        0.16848821
     101         -0.258640        1.000000        0.00429052        0.05948377        0.13124169        0.05725510
     102         -0.257609        1.000000        0.00200121        0.01994543        0.18074168        0.04014231
     103         -0.256838        1.000000        0.00246115        0.14023684        0.10649907        0.00678996
     104         -0.255240        1.000000        0.00030745        0.07511019        0.01023078        0.10126818
     105         -0.252739        1.000000        0.00043079        0.03773005        0.00714468        0.10270017
     106         -0.252231        1.000000        0.00079626        0.01826686        0.02321638        0.16093430
     107         -0.250398        1.000000        0.00775868        0.08684257        0.10551529        0.04106787
     108         -0.248721        1.000000        0.00203964        0.04329939        0.02379818        0.15054597
     109         -0.245315        1.000000        0.00259527        0.13912953        0.04282339        0.03924445
     110         -0.244007        1.000000        0.00555009        0.10690124        0.05507485        0.08635437
     111         -0.243048        1.000000        0.00336526        0.09440510        0.05526477        0.04414934
     112         -0.240304        1.000000        0.00062800        0.02573526        0.03149325        0.08860112
     113         -0.239458        1.000000        0.00024004        0.00431409        0.00290028        0.00780385
     114         -0.238951        1.000000        0.00082837        0.07860594        0.06858224        0.01557594
     115         -0.236788        1.000000        0.00185135        0.09218070        0.05861077        0.04218663
     116         -0.235960        1.000000        0.00174260        0.10695663        0.03695636        0.01957003
     117         -0.235320        1.000000        0.00193826        0.03645524        0.07894944        0.02598050
     118         -0.233546        1.000000        0.00152618        0.02975975        0.01885597        0.09374821
     119         -0.232033        1.000000        0.00327590        0.12309801        0.04095743        0.02343793
     120         -0.229899        1.000000        0.00285165        0.03095256        0.10652786        0.07576165
     121         -0.228292        1.000000        0.00155717        0.01684885        0.11805534        0.05043969
     122         -0.226459        1.000000        0.00494783        0.06940165        0.05917657        0.08570656
     123         -0.225522        1.000000        0.00165825        0.00459218        0.03969591        0.03001164
     124         -0.224969        1.000000        0.00303790        0.07380219        0.08270511        0.04576413
     125         -0.221422        1.000000        0.00451660        0.02030474        0.03618457        0.03947832
     126         -0.220832        1.000000        0.00429833        0.01942156        0.02344321        0.03444789
     127         -0.218396        1.000000        0.00263764        0.01109799        0.02117849        0.02537045
     128         -0.217663        1.000000        0.00676959        0.01515664        0.02299423        0.04508350
     129         -0.216533        1.000000        0.00038725        0.00484969        0.00455705        0.00336576
     130         -0.214451        1.000000        0.00389443        0.01275322        0.02213467        0.00132288
     131         -0.213351        1.000000        0.00613791        0.01456287        0.01991250        0.01683682
     132         -0.211002        1.000000        0.00186491        0.00905950        0.00274930        0.01142622
     133         -0.209883        1.000000        0.00740610        0.02520564        0.00869597        0.01989036
     134         -0.208092        1.000000        0.00731255        0.01516034        0.01066297        0.01681031
     135         -0.207088        1.000000        0.00365748        0.00290046        0.02314072        0.00808250
     136         -0.206488        1.000000        0.00121092        0.00409180        0.00560755        0.00501122
     137         -0.205560        1.000000        0.00181210        0.00117671        0.00355544        0.00222363
     138         -0.204536        1.000000        0.00038591        0.00219873        0.00317526        0.00202125
     139         -0.204243        1.000000        0.00587305        0.01056777        0.00676205        0.01551283
     140         -0.203640        1.000000        0.00086504        0.00182339        0.00117708        0.00205047
     141         -0.202232        1.000000        0.00519647        0.00547813        0.00254688        0.00809636
     142         -0.201421        1.000000        0.00138170        0.00396286        0.00191132        0.00403187
     143         -0.199336        1.000000        0.00470821        0.00407600        0.00234462        0.00392954
     144         -0.198663        1.000000        0.00048599        0.00059673        0.00048489        0.00149405
     145         -0.198086        1.000000        0.00214916        0.00596398        0.00186883        0.00213973
     146         -0.197110        1.000000        0.00149002        0.00203868        0.00224581        0.00245446
     147         -0.196540        1.000000        0.01526171        0.02879971        0.01063614        0.00879335
     148         -0.195937        1.000000        0.00628972        0.00795384        0.00246014        0.00509804
     149         -0.195063        1.000000        0.00489164        0.00362358        0.00427477        0.00367539
     150         -0.193923        1.000000        0.00701031        0.00372469        0.00303887        0.00895727
     151         -0.193250        1.000000        0.01658498        0.01252499        0.00330375        0.01835214
     152         -0.193084        1.000000        0.00659015        0.00653566        0.00086338        0.00817498
     153         -0.192606        1.000000        0.01051451        0.00757353        0.00363214        0.00686299
     154         -0.191651        1.000000        0.00400931        0.00283965        0.00169916        0.00265331
     155         -0.191338        1.000000        0.00202591        0.00233205        0.00339174        0.00137563
     156         -0.190258        1.000000        0.00989674        0.00508461        0.00305517        0.00476232
     157         -0.189771        1.000000        0.00654442        0.00432531        0.00238293        0.00282480
     158         -0.188791        1.000000        0.02240176        0.01081256        0.00685118        0.01268250
     159         -0.188337        1.000000        0.00224506        0.00132700        0.00191895        0.00117936
     160         -0.187758        1.000000        0.00280582        0.00270255        0.00054759        0.00233931
     161         -0.186684        1.000000        0.00932748        0.00583659        0.00117483        0.00581084
     162         -0.186295        1.000000        0.00735766        0.00228923        0.00332845        0.00526241
     163         -0.184940        1.000000        0.00648308        0.00245289        0.00201240        0.00269991
     164         -0.184641        1.000000        0.00360595        0.00105972        0.00046877        0.00091003
     165         -0.184309        1.000000        0.00618204        0.00227926        0.00531455        0.00158710
     166         -0.183868        1.000000        0.00476065        0.00116817        0.00308871        0.00220147
     167         -0.182798        1.000000        0.00093226        0.00037298        0.00024323        0.00074259
     168         -0.182350        1.000000        0.00175750        0.00032463        0.00027925        0.00088214
     169         -0.181415        1.000000        0.01462720        0.00303690        0.00079952        0.00243469
     170         -0.180752        1.000000        0.00406214        0.00224450        0.00191218        0.00040675
     171         -0.180062        1.000000        0.00118956        0.00185056        0.00166632        0.00014782
     172         -0.179461        1.000000        0.00391628        0.00527073        0.00070717        0.00213900
     173         -0.178583        1.000000        0.00407678        0.00302644        0.00043714        0.00157801
     174         -0.178367        1.000000        0.00121110        0.00068847        0.00025482        0.00156734
     175         -0.178096        1.000000        0.00343646        0.00097203        0.00016997        0.00233621
     176         -0.177086        1.000000        0.02240595        0.00217564        0.00280773        0.00286437
     177         -0.176601        1.000000        0.01786838        0.00583532        0.00205990        0.00499354
     178         -0.176159        1.000000        0.01199362        0.00429551        0.00096584        0.00195924
     179         -0.175877        1.000000        0.00730649        0.00153775        0.00047024        0.00078916
     180         -0.175627        1.000000        0.00179488        0.00036270        0.00286400        0.00026236
     181         -0.175062        1.000000        0.01461759        0.00301525        0.00049414        0.00218978
     182         -0.173380        1.000000        0.02727218        0.00292150        0.00364950        0.01062317
     183         -0.172908        1.000000        0.01571510        0.00068522        0.00171578        0.00229681
     184         -0.172657        1.000000        0.00832385        0.00047595        0.00060495        0.00154776
     185         -0.172516        1.000000        0.02162303        0.00120179        0.00194477        0.00611265
     186         -0.172336        1.000000        0.00531321        0.00041247        0.00090703        0.00217709
     187         -0.172230        1.000000        0.01219037        0.00090041        0.00169961        0.00199244
     188         -0.171448        1.000000        0.00987527        0.00083510        0.00054316        0.00069210
     189         -0.171343        1.000000        0.00402036        0.00041275        0.00047953        0.00102246
     190         -0.170973        1.000000        0.00929379        0.00084711        0.00076064        0.00087214
     191         -0.170825        1.000000        0.01874011        0.00118717        0.00156002        0.00208795
     192         -0.170724        1.000000        0.01732769        0.00067708        0.00057556        0.00127734
     193         -0.170470        1.000000        0.05800469        0.00293791        0.00222895        0.00505204
     194         -0.170199        1.000000        0.00646186        0.00043714        0.00035282        0.00044296
     195         -0.170147        0.000000        0.03880407        0.00280992        0.00221766        0.00188093
     196         -0.169848        0.000000        0.05905707        0.00203408        0.00035996        0.00223290
     197         -0.169632        0.000000        0.02664297        0.00160160        0.00029480        0.00203569
     198         -0.169515        0.000000        0.02612329        0.00163080        0.00052168        0.00123556
     199         -0.169206        0.000000        0.04583376        0.00238189        0.00151810        0.00485942
     200         -0.168572        0.000000        0.08795827        0.00656310        0.00325623        0.00332839
     201         -0.165841        0.000000        0.00419807        0.00096617        0.00002562        0.00027590
     202         -0.065108        0.000000        0.00471671        0.32457875        0.33716081        0.05990460
     203         -0.060308        0.000000        0.00517235        0.37712001        0.25542808        0.07824450
     204         -0.055971        0.000000        0.00364146        0.62796642        0.01869492        0.08884447
     205         -0.047387        0.000000        0.00535055        0.24378606        0.02301317        0.44686028
     206         -0.043959        0.000000        0.00782658        0.51964756        0.05385892        0.13510054
     207         -0.042738        0.000000        0.00806784        0.06428156        0.35013785        0.27501280
     208         -0.041976        0.000000        0.00242264        0.27171775        0.33350080        0.08893902
     209         -0.041030        0.000000        0.00395270        0.02614081        0.26786535        0.39625550
     210         -0.039097        0.000000        0.00089332        0.30538420        0.04887277        0.35365888
     211         -0.036926        0.000000        0.00331133        0.22968533        0.36752123        0.10476186
     212         -0.035003        0.000000        0.00191715        0.07572303        0.41844826        0.20517168
     213         -0.032568        0.000000        0.00570418        0.14659671        0.05088571        0.50006437
     214         -0.031873        0.000000        0.00316423        0.19414192        0.07985653        0.42550596
     215         -0.031369        0.000000        0.00099727        0.31607978        0.26749218        0.11071469
     216         -0.030754        0.000000        0.00393317        0.50837649        0.01314469        0.16211494
     217         -0.028288        0.000000        0.00222087        0.19757091        0.03067545        0.46695946
     218         -0.027016        0.000000        0.00129001        0.23251038        0.24630716        0.22714110
     219         -0.022543        0.000000        0.00129957        0.48297446        0.16646507        0.04401461
     220         -0.018105        0.000000        0.00235847        0.11908043        0.44897934        0.11964126
     221         -0.017392        0.000000        0.00010893        0.01260474        0.64808313        0.01958448
     222         -0.016635        0.000000        0.00433801        0.14033024        0.42739136        0.12617308
     223         -0.014004        0.000000        0.00121337        0.14495560        0.47817354        0.07386362
     224         -0.012011        0.000000        0.00095965        0.04364490        0.22429130        0.41315140
     225         -0.003490        0.000000        0.00032053        0.02311289        0.04273639        0.61243989
     226          0.079297        0.000000        0.00000752        0.00019873        0.00001363        0.00008034
     227          0.087110        0.000000        0.00000257        0.00048360        0.00017326        0.00115003
     228          0.088762        0.000000        0.00000166        0.00005495        0.00008103        0.00005036
     229          0.095663        0.000000        0.00000210        0.00012295        0.00010611        0.00020807
     230          0.100795        0.000000        0.00000183        0.00001919        0.00006909        0.00002057
     231          0.103713        0.000000        0.00000394        0.00001623        0.00004609        0.00015365
     232          0.105024        0.000000        0.00000447        0.00005045        0.00018975        0.00002533
     233          0.141430        0.000000        0.00000053        0.00001477        0.00000623        0.00000299
     234          0.153626        0.000000        0.00000029        0.00000404        0.00000320        0.00001291
     235          0.158429        0.000000        0.00000049        0.00001046        0.00000732        0.00001501
     236          0.171133        0.000000        0.00000137        0.00000031        0.00000229        0.00003442
     237          0.208267        0.000000        0.00000015        0.00000489        0.00001603        0.00003255
     238          0.217781        0.000000        0.00000457        0.00000189        0.00000184        0.00006255
     239          0.247307        0.000000        0.00000182        0.00025606        0.00027503        0.00002223
     240          0.276236        0.000000        0.00000367        0.00001571        0.00000105        0.00011282
     241          0.284850        0.000000        0.00000195        0.00000279        0.00001243        0.00002452
     242          0.291373        0.000000        0.00000841        0.00004891        0.00008786        0.00000748
     243          0.294640        0.000000        0.00000708        0.00024361        0.00040767        0.00035605
     244          0.297870        0.000000        0.00002226        0.00009927        0.00028042        0.00006538
     245          0.299453        0.000000        0.00003445        0.00006402        0.00021508        0.00022496
     246          0.300938        0.000000        0.00003220        0.00005309        0.00007159        0.00025919
     247          0.301249        0.000000        0.00000325        0.00003023        0.00000778        0.00016648
     248          0.302752        0.000000        0.00000642        0.00005983        0.00010107        0.00003133
     249          0.308412        0.000000        0.00001182        0.00002398        0.00009567        0.00007210
     250          0.321901        0.000000        0.00001843        0.00007020        0.00019196        0.00001706
     251          0.332468        0.000000        0.00000827        0.00003977        0.00009126        0.00002964
     252          0.333066        0.000000        0.00003126        0.00011537        0.00038764        0.00002560
     253          0.349314        0.000000        0.00005570        0.00003890        0.00010148        0.00049487
     254          0.438869        0.000000        0.00000068        0.00000178        0.00000076        0.00001121
     255          0.445460        0.000000        0.00000077        0.00000096        0.00000133        0.00000955
     256          0.448909        0.000000        0.00000177        0.00000820        0.00001670        0.00003731
     257          0.450356        0.000000        0.00000445        0.00003183        0.00003098        0.00001045
     258          0.450590        0.000000        0.00000056        0.00000760        0.00001447        0.00000590
     259          0.453082        0.000000        0.00000139        0.00000413        0.00000779        0.00001072