# Projected DOS for atomic kind C at iteration step i = 0, E(Fermi) =    -0.170888 a.u.
#     MO Eigenvalue [a.u.]      Occupation                 s                py                pz                px
       1         -0.976870        1.000000        0.05958023        0.00201913        0.00376653        0.04071203
       2         -0.972841        1.000000        0.06258465        0.00186752        0.00535988        0.03936989
       3         -0.967684        1.000000        0.05989757        0.00323789        0.03702221        0.00531887
       4         -0.958105        1.000000        0.06426038        0.00067955        0.02085390        0.02566155
       5         -0.950349        1.000000        0.06759741        0.00187000        0.00190809        0.04407389
       6         -0.940041        1.000000        0.06064294        0.00066606        0.02965350        0.01382304
       7         -0.933590        1.000000        0.05920402        0.00968204        0.00507051        0.02820446
       8         -0.709919        1.000000        0.42675458        0.00003645        0.00000117        0.00012439
       9         -0.709594        1.000000        0.43357274        0.00041805        0.00005702        0.00055719
      10         -0.703074        1.000000        0.43418897        0.00000910        0.00076860        0.00009772
      11         -0.697966        1.000000        0.43100517        0.00000374        0.00025550        0.00101972
      12         -0.695251        1.000000        0.42954128        0.00000427        0.00053486        0.00134687
      13         -0.683102        1.000000        0.43937102        0.00003704        0.00097763        0.00059545
      14         -0.678587        1.000000        0.44409012        0.00010135        0.00056269        0.00099414
      15         -0.626296        1.000000        0.00013014        0.00004318        0.00001600        0.00012188
      16         -0.615944        1.000000        0.00004861        0.00067628        0.00086161        0.00032102
      17         -0.615531        1.000000        0.00004988        0.00001601        0.00624711        0.00135440
      18         -0.608934        1.000000        0.00001022        0.01924504        0.02324712        0.00675473
      19         -0.606733        1.000000        0.00003618        0.00556025        0.01441215        0.00028276
      20         -0.598655        1.000000        0.00021834        0.00075178        0.00211529        0.00088222
      21         -0.597420        1.000000        0.00014980        0.02551079        0.00738580        0.01956017
      22         -0.596410        1.000000        0.00000997        0.00070625        0.02365462        0.00315121
      23         -0.588478        1.000000        0.00002500        0.04675323        0.00078259        0.00028436
      24         -0.587862        1.000000        0.00004813        0.01132209        0.00202787        0.00612671
      25         -0.586834        1.000000        0.00022096        0.00747559        0.00723309        0.00561344
      26         -0.585571        1.000000        0.00146816        0.05108611        0.00106543        0.01061228
      27         -0.584838        1.000000        0.00058314        0.01734960        0.00798758        0.00645697
      28         -0.583502        1.000000        0.00016560        0.01016724        0.00342522        0.00144566
      29         -0.581266        1.000000        0.00079050        0.00999144        0.00060930        0.00283410
      30         -0.580957        1.000000        0.00012355        0.00153844        0.00038322        0.00063657
      31         -0.580314        1.000000        0.00016931        0.00206250        0.00055241        0.00225536
      32         -0.579189        1.000000        0.00013738        0.03664857        0.02979390        0.00046033
      33         -0.578630        1.000000        0.00027928        0.01063393        0.00334052        0.00970441
      34         -0.577326        1.000000        0.00028578        0.01325871        0.00102805        0.00922244
      35         -0.576039        1.000000        0.00010463        0.00426495        0.00072194        0.00281402
      36         -0.575038        1.000000        0.00002900        0.00157595        0.00135435        0.00077574
      37         -0.572865        1.000000        0.00014856        0.00138380        0.00140927        0.00206729
      38         -0.570767        1.000000        0.00016308        0.00151885        0.00503804        0.00045918
      39         -0.569668        1.000000        0.00156734        0.00131286        0.04396681        0.01467084
      40         -0.569140        1.000000        0.00042145        0.00779238        0.01113354        0.00353040
      41         -0.567990        1.000000        0.00024499        0.00504271        0.00044425        0.00366572
      42         -0.567815        1.000000        0.00001475        0.00011733        0.00017002        0.00020579
      43         -0.566423        1.000000        0.00005395        0.00032240        0.00010307        0.00009991
      44         -0.565135        1.000000        0.00022847        0.00098753        0.00796439        0.00141675
      45         -0.564789        1.000000        0.00002054        0.00133477        0.00215311        0.00181780
      46         -0.564740        1.000000        0.00005257        0.00126355        0.00154925        0.00118925
      47         -0.562452        1.000000        0.00103137        0.00279204        0.03051656        0.00515617
      48         -0.559845        1.000000        0.00005102        0.00264202        0.00737173        0.01382360
      49         -0.559163        1.000000        0.00007749        0.00099410        0.00569209        0.01031179
      50         -0.557132        1.000000        0.00002619        0.00358734        0.00211050        0.00153750
      51         -0.554897        1.000000        0.00001898        0.03718940        0.00038113        0.00036195
      52         -0.553512        1.000000        0.00008353        0.00238470        0.00354400        0.00297386
      53         -0.553086        1.000000        0.00007410        0.01998850        0.00867957        0.00038446
      54         -0.552957        1.000000        0.00001992        0.00523108        0.00250081        0.00090573
      55         -0.551932        1.000000        0.00000670        0.00143285        0.00015546        0.00043201
      56         -0.551311        1.000000        0.00002523        0.00185024        0.00093902        0.00091776
      57         -0.550993        1.000000        0.00008212        0.00309106        0.00046658        0.00014430
      58         -0.550766        1.000000        0.00024932        0.00940880        0.00067627        0.00077653
      59         -0.550434        1.000000        0.00018557        0.02044289        0.00068901        0.00298193
      60         -0.546473        1.000000        0.00006387        0.00312532        0.00335660        0.00333248
      61         -0.545240        1.000000        0.00001903        0.00360662        0.00136274        0.00015617
      62         -0.545087        1.000000        0.00003681        0.00060253        0.00030987        0.00006141
      63         -0.544752        1.000000        0.00005080        0.00011711        0.00017577        0.00004557
      64         -0.543952        1.000000        0.00015618        0.00000302        0.03333192        0.00772566
      65         -0.499185        1.000000        0.03745563        0.01525466        0.02007228        0.30117601
      66         -0.492608        1.000000        0.02907906        0.01971215        0.03990149        0.27765799
      67         -0.489119        1.000000        0.02929285        0.01619902        0.27587950        0.04459281
      68         -0.482499        1.000000        0.02681229        0.00437183        0.13923781        0.19327048
      69         -0.477995        1.000000        0.02506630        0.01031882        0.01826077        0.31139031
      70         -0.463489        1.000000        0.02207893        0.00638706        0.21277235        0.11455193
      71         -0.458576        1.000000        0.02116752        0.06272213        0.05125756        0.20712404
      72         -0.456743        1.000000        0.00204395        0.00481716        0.00853500        0.01433796
      73         -0.452831        1.000000        0.00006012        0.00028878        0.00049793        0.00035185
      74         -0.448999        1.000000        0.00011836        0.00138002        0.00096403        0.00110547
      75         -0.445140        1.000000        0.00002209        0.00043630        0.00045312        0.00040305
      76         -0.442463        1.000000        0.00003769        0.00090999        0.00049389        0.00020026
      77         -0.440038        1.000000        0.00005809        0.00110373        0.00024415        0.00155545
      78         -0.438121        1.000000        0.00013092        0.00013114        0.00111074        0.00063790
      79         -0.432906        1.000000        0.00008183        0.00233700        0.00190750        0.00430330
      80         -0.424688        1.000000        0.00003825        0.41848211        0.11673005        0.00058398
      81         -0.422500        1.000000        0.00000023        0.09055211        0.36754446        0.08368512
      82         -0.417073        1.000000        0.00003061        0.01327945        0.49573908        0.03039730
      83         -0.416254        1.000000        0.00000507        0.29522256        0.05369701        0.19498046
      84         -0.416112        1.000000        0.00000619        0.32107370        0.05313706        0.16830082
      85         -0.413769        1.000000        0.00003692        0.39215318        0.00172987        0.13572978
      86         -0.411629        1.000000        0.00001202        0.08719405        0.21561905        0.22375435
      87         -0.411612        1.000000        0.00000113        0.16748339        0.32407197        0.04250839
      88         -0.410295        1.000000        0.00000279        0.44841343        0.07302543        0.01921834
      89         -0.407815        1.000000        0.00003434        0.34173860        0.17814649        0.00089913
      90         -0.401460        1.000000        0.00000899        0.37011536        0.08407983        0.06936695
      91         -0.399672        1.000000        0.00000052        0.14877411        0.09999180        0.28244552
      92         -0.395468        1.000000        0.00000803        0.08990295        0.27026860        0.17208325
      93         -0.394327        1.000000        0.00013509        0.33715322        0.18372233        0.01527997
      94         -0.305828        1.000000        0.00001386        0.00005256        0.00001516        0.00001090
      95         -0.292851        1.000000        0.00001167        0.00001704        0.00008938        0.00013621
      96         -0.290803        1.000000        0.00001779        0.00005051        0.00005545        0.00000678
      97         -0.277985        1.000000        0.00001616        0.00020924        0.00001953        0.00000785
      98         -0.271354        1.000000        0.00029530        0.00072860        0.00015408        0.00063733
      99         -0.265565        1.000000        0.00007279        0.00010063        0.00023318        0.00007732
     100         -0.262062        1.000000        0.00006169        0.00009713        0.00012277        0.00019594
     101         -0.259102        1.000000        0.00012961        0.00021536        0.00004025        0.00014092
     102         -0.258267        1.000000        0.00010506        0.00011965        0.00037344        0.00007631
     103         -0.257276        1.000000        0.00003547        0.00011328        0.00003798        0.00006403
     104         -0.255597        1.000000        0.00003846        0.00021513        0.00049142        0.00003184
     105         -0.253055        1.000000        0.00005823        0.00007258        0.00010573        0.00029961
     106         -0.252632        1.000000        0.00017594        0.00009239        0.00039028        0.00008195
     107         -0.250878        1.000000        0.00009281        0.00037299        0.00007732        0.00010996
     108         -0.249102        1.000000        0.00024370        0.00011707        0.00024563        0.00005152
     109         -0.245814        1.000000        0.00020433        0.00029947        0.00003205        0.00023893
     110         -0.244428        1.000000        0.00014020        0.00007802        0.00050485        0.00048096
     111         -0.243475        1.000000        0.00007564        0.00012827        0.00009652        0.00010592
     112         -0.240769        1.000000        0.00015203        0.00012924        0.00005682        0.00013035
     113         -0.239759        1.000000        0.00058985        0.00081759        0.00008429        0.00018079
     114         -0.239486        1.000000        0.00013728        0.00005927        0.00045028        0.00016226
     115         -0.237211        1.000000        0.00010481        0.00003799        0.00023092        0.00054848
     116         -0.236402        1.000000        0.00021977        0.00015198        0.00013590        0.00013341
     117         -0.235713        1.000000        0.00023845        0.00009686        0.00027039        0.00016898
     118         -0.233930        1.000000        0.00023525        0.00039043        0.00020096        0.00015858
     119         -0.232639        1.000000        0.00014940        0.00024525        0.00035226        0.00008339
     120         -0.230222        1.000000        0.00002970        0.00013676        0.00016829        0.00006514
     121         -0.228668        1.000000        0.00017862        0.00016110        0.00040954        0.00020001
     122         -0.226914        1.000000        0.00020947        0.00010820        0.00011449        0.00029508
     123         -0.225853        1.000000        0.00017241        0.00016425        0.00026769        0.00017292
     124         -0.225386        1.000000        0.00036566        0.00032776        0.00056264        0.00038256
     125         -0.221874        1.000000        0.00024546        0.00074227        0.00032422        0.00044803
     126         -0.221311        1.000000        0.00067671        0.00071221        0.00218642        0.00010166
     127         -0.218792        1.000000        0.00027534        0.00106194        0.00028337        0.00013260
     128         -0.218137        1.000000        0.00050702        0.00029406        0.00017031        0.00084905
     129         -0.216836        1.000000        0.00051312        0.00062364        0.00014151        0.00051459
     130         -0.214780        1.000000        0.00019498        0.00095556        0.00024494        0.00051826
     131         -0.213752        1.000000        0.00004677        0.00039993        0.00034405        0.00024831
     132         -0.211390        1.000000        0.00035020        0.00087849        0.00013302        0.00026258
     133         -0.210322        1.000000        0.00030893        0.00065234        0.00024076        0.00027311
     134         -0.208457        1.000000        0.00055148        0.00020786        0.00022524        0.00030639
     135         -0.207481        1.000000        0.00015580        0.00041164        0.00043966        0.00172380
     136         -0.206807        1.000000        0.00013652        0.00022171        0.00016891        0.00026565
     137         -0.205890        1.000000        0.00007340        0.00069498        0.00007297        0.00025845
     138         -0.204867        1.000000        0.00015426        0.00031999        0.00020901        0.00030470
     139         -0.204656        1.000000        0.00024397        0.00043527        0.00035535        0.00051224
     140         -0.203932        1.000000        0.00004296        0.00025396        0.00013771        0.00014624
     141         -0.202643        1.000000        0.00004367        0.00020158        0.00021102        0.00068147
     142         -0.201775        1.000000        0.00002008        0.00013298        0.00012543        0.00026196
     143         -0.199737        1.000000        0.00029210        0.00039606        0.00006002        0.00006417
     144         -0.198914        1.000000        0.00001133        0.00004824        0.00003197        0.00002319
     145         -0.198468        1.000000        0.00016745        0.00023874        0.00042354        0.00011641
     146         -0.197400        1.000000        0.00021328        0.00015938        0.00005808        0.00004653
     147         -0.196947        1.000000        0.00011016        0.00031138        0.00026674        0.00012089
     148         -0.196335        1.000000        0.00009340        0.00005611        0.00009362        0.00017378
     149         -0.195378        1.000000        0.00010869        0.00027490        0.00013290        0.00011226
     150         -0.194376        1.000000        0.00023489        0.00015802        0.00005308        0.00007365
     151         -0.193729        1.000000        0.00009173        0.00016904        0.00007093        0.00040073
     152         -0.193407        1.000000        0.00001567        0.00004720        0.00004906        0.00008030
     153         -0.193002        1.000000        0.00008626        0.00010272        0.00016145        0.00019168
     154         -0.192037        1.000000        0.00007279        0.00011955        0.00005804        0.00020828
     155         -0.191752        1.000000        0.00008778        0.00021669        0.00003677        0.00003867
     156         -0.190653        1.000000        0.00006749        0.00011406        0.00011535        0.00019897
     157         -0.190118        1.000000        0.00006748        0.00017314        0.00006823        0.00011976
     158         -0.189341        1.000000        0.00002880        0.00018172        0.00009577        0.00006748
     159         -0.188814        1.000000        0.00000429        0.00005222        0.00000961        0.00016645
     160         -0.188160        1.000000        0.00020828        0.00021636        0.00012785        0.00006438
     161         -0.187267        1.000000        0.00017018        0.00007184        0.00011379        0.00004351
     162         -0.186642        1.000000        0.00008544        0.00008202        0.00015537        0.00025458
     163         -0.185336        1.000000        0.00002668        0.00001488        0.00004216        0.00001839
     164         -0.185294        1.000000        0.00005266        0.00005949        0.00007826        0.00012861
     165         -0.184820        1.000000        0.00005069        0.00002772        0.00076039        0.00010277
     166         -0.184488        1.000000        0.00015550        0.00014632        0.00022925        0.00043341
     167         -0.183022        1.000000        0.00004214        0.00001113        0.00011916        0.00005839
     168         -0.182577        1.000000        0.00002233        0.00001615        0.00008727        0.00003557
     169         -0.181916        1.000000        0.00006538        0.00012579        0.00034521        0.00005387
     170         -0.181365        1.000000        0.00003586        0.00007086        0.00015788        0.00006650
     171         -0.180415        1.000000        0.00007754        0.00008598        0.00015332        0.00004998
     172         -0.179825        1.000000        0.00022091        0.00027180        0.00012379        0.00018712
     173         -0.178925        1.000000        0.00007046        0.00014177        0.00007368        0.00007482
     174         -0.178684        1.000000        0.00000841        0.00004955        0.00003406        0.00002761
     175         -0.178365        1.000000        0.00001505        0.00004408        0.00001990        0.00001572
     176         -0.177760        1.000000        0.00004775        0.00005764        0.00013734        0.00010859
     177         -0.177163        1.000000        0.00018624        0.00014345        0.00014373        0.00016058
     178         -0.176657        1.000000        0.00006211        0.00010124        0.00004287        0.00008788
     179         -0.176206        1.000000        0.00004006        0.00004776        0.00001873        0.00005191
     180         -0.175959        1.000000        0.00000509        0.00001043        0.00002001        0.00002767
     181         -0.175543        1.000000        0.00019887        0.00021221        0.00044036        0.00008064
     182         -0.174032        1.000000        0.00018510        0.00012168        0.00024990        0.00021993
     183         -0.173640        1.000000        0.00000910        0.00002127        0.00007316        0.00002395
     184         -0.173256        1.000000        0.00001851        0.00003945        0.00003464        0.00000580
     185         -0.173202        1.000000        0.00001002        0.00004999        0.00001741        0.00006356
     186         -0.173133        1.000000        0.00005273        0.00012988        0.00003257        0.00007358
     187         -0.172691        1.000000        0.00004946        0.00008141        0.00005320        0.00005819
     188         -0.172343        1.000000        0.00005202        0.00013473        0.00019904        0.00008419
     189         -0.172103        1.000000        0.00023162        0.00046583        0.00014841        0.00025522
     190         -0.171978        1.000000        0.00018181        0.00039615        0.00042049        0.00022695
     191         -0.171780        1.000000        0.00020726        0.00028643        0.00051499        0.00007822
     192         -0.171711        1.000000        0.00000129        0.00001196        0.00000815        0.00002393
     193         -0.171612        1.000000        0.00001221        0.00003307        0.00003701        0.00002559
     194         -0.171103        1.000000        0.00004330        0.00004106        0.00002874        0.00001463
     195         -0.170888        1.000000        0.00001394        0.00001148        0.00001140        0.00001861
     196         -0.170741        0.000000        0.00001213        0.00003657        0.00004644        0.00000717
     197         -0.170577        0.000000        0.00000422        0.00004632        0.00003632        0.00002004
     198         -0.170357        0.000000        0.00001535        0.00003618        0.00000930        0.00001844
     199         -0.170282        0.000000        0.00002692        0.00004560        0.00007259        0.00003818
     200         -0.169617        0.000000        0.00001433        0.00002989        0.00003546        0.00005182
     201         -0.166213        0.000000        0.00000178        0.00000703        0.00000434        0.00000060
     202         -0.065459        0.000000        0.00001988        0.00001714        0.00009996        0.00002497
     203         -0.060708        0.000000        0.00004537        0.00002207        0.00002569        0.00005367
     204         -0.056286        0.000000        0.00003921        0.00001337        0.00005969        0.00005669
     205         -0.047629        0.000000        0.00002523        0.00001922        0.00003041        0.00001752
     206         -0.044273        0.000000        0.00004405        0.00002374        0.00003102        0.00007233
     207         -0.043033        0.000000        0.00001771        0.00003909        0.00002209        0.00006174
     208         -0.042369        0.000000        0.00000655        0.00003694        0.00006399        0.00001096
     209         -0.041332        0.000000        0.00003122        0.00002776        0.00000571        0.00007359
     210         -0.039500        0.000000        0.00002845        0.00001699        0.00003005        0.00001805
     211         -0.037268        0.000000        0.00018175        0.00007810        0.00003009        0.00002624
     212         -0.035304        0.000000        0.00015109        0.00003086        0.00008286        0.00002445
     213         -0.032877        0.000000        0.00032783        0.00002710        0.00014562        0.00007623
     214         -0.032228        0.000000        0.00010678        0.00002596        0.00014823        0.00004729
     215         -0.031830        0.000000        0.00000888        0.00002147        0.00003861        0.00004884
     216         -0.031082        0.000000        0.00017813        0.00002120        0.00007437        0.00013670
     217         -0.028595        0.000000        0.00005675        0.00000453        0.00007421        0.00008959
     218         -0.027320        0.000000        0.00006866        0.00001728        0.00003551        0.00001757
     219         -0.022857        0.000000        0.00006395        0.00002472        0.00001178        0.00005178
     220         -0.018485        0.000000        0.00000791        0.00000837        0.00002777        0.00006638
     221         -0.017725        0.000000        0.00019581        0.00010443        0.00011481        0.00007225
     222         -0.016999        0.000000        0.00004141        0.00000569        0.00001732        0.00003918
     223         -0.014423        0.000000        0.00000421        0.00000634        0.00003890        0.00003801
     224         -0.012420        0.000000        0.00003211        0.00004700        0.00004712        0.00002282
     225         -0.003998        0.000000        0.00000432        0.00003271        0.00003603        0.00005489
     226          0.078969        0.000000        0.08111237        0.02590181        0.05773207        0.46820030
     227          0.086774        0.000000        0.08537207        0.03474188        0.45014822        0.06607384
     228          0.088422        0.000000        0.08561943        0.02696669        0.04833166        0.47224533
     229          0.095327        0.000000        0.08183849        0.00732237        0.22950390        0.29687601
     230          0.100472        0.000000        0.07858498        0.02161909        0.02920143        0.48104379
     231          0.103387        0.000000        0.08148970        0.11678585        0.07569042        0.35820624
     232          0.104699        0.000000        0.08075827        0.00870179        0.36457716        0.17864613
     233          0.141106        0.000000        0.00529845        0.00017385        0.00816750        0.00697317
     234          0.153304        0.000000        0.00243066        0.00000097        0.00007597        0.00338421
     235          0.158117        0.000000        0.00542947        0.00076221        0.00008476        0.01502062
     236          0.170804        0.000000        0.00001522        0.00044377        0.00034801        0.00010009
     237          0.207941        0.000000        0.00021306        0.00053073        0.00001543        0.00092033
     238          0.217462        0.000000        0.00470484        0.00000023        0.00002521        0.00702527
     239          0.246985        0.000000        0.00235895        0.00064275        0.00004470        0.00253958
     240          0.275909        0.000000        0.00000170        0.00149157        0.00545022        0.00026776
     241          0.284510        0.000000        0.00213673        0.00240492        0.00212573        0.00024757
     242          0.291042        0.000000        0.00007964        0.00710007        0.00002535        0.00019824
     243          0.294309        0.000000        0.00210584        0.00261746        0.00106939        0.00095158
     244          0.297558        0.000000        0.00001880        0.00233483        0.00122864        0.00318074
     245          0.299139        0.000000        0.00006008        0.00334267        0.00377271        0.00116963
     246          0.300623        0.000000        0.00008884        0.00113533        0.00477199        0.00228155
     247          0.300923        0.000000        0.00318739        0.00226890        0.00063933        0.00055676
     248          0.302444        0.000000        0.00008560        0.00759623        0.00145398        0.00055345
     249          0.308104        0.000000        0.00004178        0.00863208        0.00168031        0.00219583
     250          0.321571        0.000000        0.00350316        0.00030085        0.00273879        0.00168262
     251          0.332158        0.000000        0.00407349        0.00182764        0.00265352        0.00005445
     252          0.332753        0.000000        0.00408332        0.00036705        0.00052437        0.00005178
     253          0.349011        0.000000        0.00578498        0.00001751        0.00039281        0.00004590
     254          0.438586        0.000000        0.00010862        0.01087550        0.34579914        0.03367024
     255          0.445181        0.000000        0.00062996        0.36565417        0.00326058        0.02433081
     256          0.448623        0.000000        0.00007611        0.19390333        0.13889936        0.05274048
     257          0.450068        0.000000        0.00010750        0.07086139        0.01819735        0.30593532
     258          0.450295        0.000000        0.00040047        0.17650880        0.21454791        0.00487803
     259          0.452789        0.000000        0.00004925        0.20614078        0.12721793        0.05578541