# Projected DOS for atomic kind C at iteration step i = 0, E(Fermi) =    -0.181050 a.u.
#     MO Eigenvalue [a.u.]      Occupation                 s                py                pz                px
       1         -0.970487        1.000000        0.05805747        0.00046624        0.00000030        0.04436673
       2         -0.969348        1.000000        0.06186072        0.00005079        0.00353892        0.04408891
       3         -0.960101        1.000000        0.06337868        0.00174965        0.01545197        0.03014853
       4         -0.947214        1.000000        0.05991637        0.00000001        0.00598144        0.03866322
       5         -0.939895        1.000000        0.05975797        0.00018235        0.00788109        0.03618433
       6         -0.935035        1.000000        0.06156258        0.00003796        0.00776459        0.03711982
       7         -0.931421        1.000000        0.06433864        0.00000038        0.00276818        0.04288190
       8         -0.702714        1.000000        0.42198513        0.00001911        0.00004917        0.00012842
       9         -0.702548        1.000000        0.43843461        0.00000848        0.00000392        0.00053939
      10         -0.696299        1.000000        0.42997481        0.00004737        0.00004829        0.00059396
      11         -0.687150        1.000000        0.43340456        0.00000377        0.00009025        0.00066568
      12         -0.680653        1.000000        0.43899474        0.00001166        0.00016863        0.00086560
      13         -0.678999        1.000000        0.43088024        0.00000000        0.00023588        0.00024910
      14         -0.678848        1.000000        0.43293622        0.00000702        0.00003447        0.00134576
      15         -0.631758        1.000000        0.00002223        0.00002378        0.00058226        0.00001267
      16         -0.600666        1.000000        0.00007786        0.00754022        0.02110082        0.00026492
      17         -0.598076        1.000000        0.00053685        0.00311633        0.00504627        0.00030343
      18         -0.597600        1.000000        0.00038862        0.00376936        0.00206840        0.00102360
      19         -0.596766        1.000000        0.00002913        0.03841515        0.01360795        0.00119986
      20         -0.595586        1.000000        0.00094950        0.00361113        0.00504325        0.00105236
      21         -0.593205        1.000000        0.00107315        0.00249091        0.00248170        0.00087115
      22         -0.591468        1.000000        0.00050647        0.01312966        0.00108345        0.00039311
      23         -0.590889        1.000000        0.00008380        0.03726197        0.00233351        0.00039128
      24         -0.589966        1.000000        0.00015947        0.02373934        0.00087336        0.00026611
      25         -0.588278        1.000000        0.00060202        0.00671743        0.00169377        0.00026575
      26         -0.584418        1.000000        0.00009160        0.01209207        0.02298186        0.00034137
      27         -0.583284        1.000000        0.00009096        0.00261709        0.00353240        0.00024748
      28         -0.582294        1.000000        0.00019790        0.00251621        0.00169572        0.00024920
      29         -0.580605        1.000000        0.00042253        0.01014516        0.00177057        0.00065370
      30         -0.580058        1.000000        0.00021801        0.00388822        0.00237530        0.00027998
      31         -0.578563        1.000000        0.00016874        0.00191756        0.00020661        0.00023406
      32         -0.577303        1.000000        0.00031206        0.00305343        0.01110046        0.00228200
      33         -0.576766        1.000000        0.00083217        0.01309199        0.03009167        0.00735493
      34         -0.576374        1.000000        0.00065085        0.00851672        0.02011041        0.00520246
      35         -0.574558        1.000000        0.00024330        0.00081427        0.00230435        0.00039836
      36         -0.574131        1.000000        0.00013260        0.00076208        0.01280694        0.00364634
      37         -0.573415        1.000000        0.00008640        0.00008261        0.00152345        0.00025362
      38         -0.572457        1.000000        0.00005939        0.00078323        0.00016376        0.00001888
      39         -0.572179        1.000000        0.00012714        0.00031673        0.00040129        0.00020230
      40         -0.571173        1.000000        0.00043278        0.00034485        0.01020236        0.00364206
      41         -0.569116        1.000000        0.00012354        0.00267821        0.00249920        0.00039393
      42         -0.567713        1.000000        0.00008216        0.00115601        0.00110354        0.00053268
      43         -0.567193        1.000000        0.00002055        0.00074419        0.00504440        0.00135456
      44         -0.566491        1.000000        0.00012106        0.00169061        0.01473645        0.00460897
      45         -0.566020        1.000000        0.00004398        0.00320167        0.00829995        0.00132276
      46         -0.565207        1.000000        0.00006834        0.00059649        0.00123129        0.00054811
      47         -0.564893        1.000000        0.00027460        0.00634555        0.01708563        0.00377991
      48         -0.564124        1.000000        0.00006254        0.00042103        0.00018334        0.00018557
      49         -0.563099        1.000000        0.00000833        0.00006327        0.00155467        0.00037676
      50         -0.562074        1.000000        0.00000729        0.00097622        0.00042550        0.00016454
      51         -0.561781        1.000000        0.00009358        0.00508399        0.00809874        0.00115722
      52         -0.560665        1.000000        0.00002314        0.00104151        0.00143708        0.00040508
      53         -0.560587        1.000000        0.00004792        0.00158955        0.00408325        0.00228480
      54         -0.560379        1.000000        0.00007320        0.00761356        0.00372815        0.00087146
      55         -0.558672        1.000000        0.00010157        0.02846008        0.00566596        0.00153989
      56         -0.558191        1.000000        0.00002357        0.01265801        0.02686268        0.00557624
      57         -0.557899        1.000000        0.00002445        0.00067970        0.00073157        0.00013153
      58         -0.556148        1.000000        0.00007900        0.00319367        0.00107143        0.00029394
      59         -0.554321        1.000000        0.00010234        0.03803710        0.01056229        0.00548517
      60         -0.549848        1.000000        0.00018317        0.00552028        0.04276797        0.01057164
      61         -0.549188        1.000000        0.00060545        0.02321856        0.02780144        0.00073309
      62         -0.547648        1.000000        0.00000096        0.00000092        0.00001865        0.00000442
      63         -0.545729        1.000000        0.00000835        0.05242421        0.00350163        0.00135487
      64         -0.537727        1.000000        0.00001306        0.03959099        0.02115395        0.00182847
      65         -0.490871        1.000000        0.03776105        0.00011790        0.02705087        0.30927361
      66         -0.487358        1.000000        0.03050995        0.00376973        0.00165382        0.33021652
      67         -0.481489        1.000000        0.03131425        0.01172484        0.10235542        0.22270709
      68         -0.470033        1.000000        0.02768320        0.00000769        0.04929242        0.28747688
      69         -0.465308        1.000000        0.00115295        0.00019592        0.00252483        0.01218776
      70         -0.463609        1.000000        0.02431542        0.00185518        0.05029044        0.26747787
      71         -0.460723        1.000000        0.00464627        0.00034733        0.00858183        0.04652581
      72         -0.460235        1.000000        0.02190761        0.00013734        0.01724719        0.29371746
      73         -0.459510        1.000000        0.02194649        0.00025161        0.04323525        0.19365709
      74         -0.457869        1.000000        0.00411036        0.00008304        0.00802116        0.04178861
      75         -0.456895        1.000000        0.00108225        0.00021087        0.00158428        0.01236446
      76         -0.454657        1.000000        0.00121686        0.00018099        0.00187533        0.01258574
      77         -0.452394        1.000000        0.00073920        0.00009498        0.00194284        0.00811005
      78         -0.450841        1.000000        0.00059853        0.00017439        0.00173025        0.00489152
      79         -0.446880        1.000000        0.00047647        0.00015187        0.00142390        0.00387767
      80         -0.416521        1.000000        0.00003718        0.39655004        0.14713753        0.00263746
      81         -0.415216        1.000000        0.00001495        0.14339088        0.39524931        0.00492656
      82         -0.411826        1.000000        0.00001263        0.35555588        0.16835161        0.01852918
      83         -0.410273        1.000000        0.00002697        0.52064021        0.01187972        0.00984498
      84         -0.408656        1.000000        0.00001482        0.18085026        0.32526728        0.02269554
      85         -0.407697        1.000000        0.00000670        0.00288483        0.34958282        0.17755788
      86         -0.401124        1.000000        0.00001176        0.11085231        0.36145359        0.05839174
      87         -0.400478        1.000000        0.00000046        0.41686450        0.09569027        0.01544422
      88         -0.395285        1.000000        0.00002372        0.48714223        0.03046121        0.00211218
      89         -0.394911        1.000000        0.00001402        0.15118723        0.30853862        0.07573213
      90         -0.394500        1.000000        0.00000862        0.36462539        0.15734970        0.01531420
      91         -0.393772        1.000000        0.00002061        0.01527136        0.41745758        0.09285460
      92         -0.393064        1.000000        0.00002043        0.05169507        0.44697301        0.02841086
      93         -0.391306        1.000000        0.00000042        0.51104378        0.01562052        0.00124525
      94         -0.309737        1.000000        0.00006157        0.00016152        0.00029989        0.00011502
      95         -0.281009        1.000000        0.00004168        0.00006353        0.00014261        0.00021319
      96         -0.277422        1.000000        0.00005813        0.00049243        0.00013210        0.00010238
      97         -0.276207        1.000000        0.00007194        0.00066816        0.00049873        0.00003094
      98         -0.275305        1.000000        0.00004129        0.00037046        0.00033434        0.00009339
      99         -0.274032        1.000000        0.00003879        0.00085532        0.00013511        0.00003078
     100         -0.273273        1.000000        0.00010068        0.00024389        0.00021364        0.00005914
     101         -0.269060        1.000000        0.00010461        0.00017219        0.00026147        0.00012109
     102         -0.268108        1.000000        0.00003204        0.00018243        0.00027177        0.00008591
     103         -0.266093        1.000000        0.00004345        0.00040719        0.00005673        0.00021655
     104         -0.264011        1.000000        0.00006247        0.00048596        0.00036407        0.00014556
     105         -0.261648        1.000000        0.00003832        0.00018647        0.00009253        0.00002627
     106         -0.258260        1.000000        0.00008888        0.00035901        0.00033264        0.00004360
     107         -0.251562        1.000000        0.00030163        0.00010349        0.00019115        0.00043802
     108         -0.250544        1.000000        0.00039452        0.00081061        0.00028873        0.00073837
     109         -0.248647        1.000000        0.00078724        0.00072116        0.00015623        0.00036974
     110         -0.246935        1.000000        0.00012407        0.00004853        0.00024039        0.00032823
     111         -0.244596        1.000000        0.00015494        0.00030077        0.00064359        0.00033527
     112         -0.242373        1.000000        0.00027752        0.00032845        0.00010102        0.00043191
     113         -0.241910        1.000000        0.00029991        0.00041250        0.00020937        0.00059598
     114         -0.239507        1.000000        0.00021606        0.00012205        0.00049839        0.00073894
     115         -0.238608        1.000000        0.00016652        0.00095865        0.00013191        0.00021940
     116         -0.236250        1.000000        0.00020594        0.00058612        0.00065881        0.00071007
     117         -0.234516        1.000000        0.00024520        0.00028482        0.00015828        0.00047796
     118         -0.231694        1.000000        0.00037726        0.00059963        0.00048069        0.00179298
     119         -0.230936        1.000000        0.00118918        0.00043298        0.00027574        0.00150090
     120         -0.228902        1.000000        0.00029485        0.00064899        0.00006270        0.00100922
     121         -0.227955        1.000000        0.00048625        0.00038731        0.00081012        0.00043361
     122         -0.225237        1.000000        0.00004250        0.00017876        0.00033169        0.00051639
     123         -0.223259        1.000000        0.00100375        0.00028037        0.00145708        0.00031073
     124         -0.221629        1.000000        0.00035478        0.00089111        0.00135195        0.00052614
     125         -0.220805        1.000000        0.00044701        0.00051714        0.00058762        0.00046270
     126         -0.220063        1.000000        0.00046214        0.00164464        0.00067467        0.00085830
     127         -0.218766        1.000000        0.00025302        0.00038128        0.00044342        0.00044728
     128         -0.217761        1.000000        0.00044433        0.00013676        0.00016234        0.00029358
     129         -0.216531        1.000000        0.00033761        0.00128451        0.00030382        0.00024844
     130         -0.215519        1.000000        0.00040599        0.00026460        0.00041822        0.00014077
     131         -0.214089        1.000000        0.00033526        0.00028604        0.00064669        0.00075873
     132         -0.213016        1.000000        0.00013548        0.00022004        0.00047509        0.00031507
     133         -0.212147        1.000000        0.00022321        0.00116703        0.00056045        0.00010788
     134         -0.211178        1.000000        0.00017860        0.00024311        0.00061308        0.00023898
     135         -0.210597        1.000000        0.00017991        0.00080163        0.00070668        0.00039064
     136         -0.210307        1.000000        0.00010746        0.00080192        0.00043899        0.00014370
     137         -0.209349        1.000000        0.00010305        0.00030050        0.00053609        0.00012384
     138         -0.208319        1.000000        0.00032552        0.00043623        0.00042867        0.00019163
     139         -0.207435        1.000000        0.00024074        0.00035613        0.00041375        0.00037752
     140         -0.207083        1.000000        0.00008568        0.00025572        0.00030712        0.00013430
     141         -0.205745        1.000000        0.00016292        0.00044480        0.00011196        0.00027643
     142         -0.204468        1.000000        0.00016104        0.00009913        0.00029076        0.00045453
     143         -0.204221        1.000000        0.00008663        0.00011054        0.00020987        0.00005396
     144         -0.202674        1.000000        0.00033391        0.00018739        0.00027459        0.00007275
     145         -0.201840        1.000000        0.00025474        0.00023134        0.00033404        0.00039122
     146         -0.201029        1.000000        0.00023713        0.00043515        0.00033921        0.00006978
     147         -0.199708        1.000000        0.00011149        0.00028278        0.00023581        0.00029107
     148         -0.198281        1.000000        0.00009416        0.00024542        0.00024372        0.00015990
     149         -0.197785        1.000000        0.00017434        0.00007735        0.00039480        0.00019711
     150         -0.196766        1.000000        0.00001761        0.00024786        0.00096281        0.00024812
     151         -0.196541        1.000000        0.00036304        0.00032036        0.00053881        0.00011171
     152         -0.196098        1.000000        0.00004188        0.00011657        0.00018431        0.00017743
     153         -0.195612        1.000000        0.00008543        0.00022427        0.00028461        0.00018702
     154         -0.195201        1.000000        0.00008075        0.00010607        0.00041800        0.00016619
     155         -0.194645        1.000000        0.00011776        0.00021052        0.00028135        0.00003247
     156         -0.194404        1.000000        0.00009100        0.00026574        0.00035126        0.00002636
     157         -0.194013        1.000000        0.00007061        0.00036424        0.00031995        0.00002764
     158         -0.193602        1.000000        0.00013315        0.00035659        0.00014498        0.00005667
     159         -0.193023        1.000000        0.00002055        0.00029294        0.00018291        0.00007579
     160         -0.192898        1.000000        0.00012396        0.00145477        0.00027122        0.00007521
     161         -0.192598        1.000000        0.00006766        0.00003370        0.00030599        0.00010857
     162         -0.192423        1.000000        0.00013338        0.00073082        0.00017890        0.00004651
     163         -0.191892        1.000000        0.00009730        0.00012824        0.00011842        0.00006131
     164         -0.191300        1.000000        0.00033208        0.00038060        0.00039334        0.00014198
     165         -0.190937        1.000000        0.00003310        0.00008812        0.00013933        0.00006749
     166         -0.190180        1.000000        0.00012000        0.00011685        0.00006399        0.00011383
     167         -0.189729        1.000000        0.00015599        0.00021485        0.00045248        0.00016393
     168         -0.189331        1.000000        0.00017545        0.00018789        0.00013899        0.00014245
     169         -0.189153        1.000000        0.00009245        0.00013917        0.00026666        0.00006524
     170         -0.188695        1.000000        0.00010887        0.00036376        0.00022791        0.00008281
     171         -0.188070        1.000000        0.00009462        0.00012654        0.00063829        0.00008656
     172         -0.187763        1.000000        0.00002810        0.00026110        0.00006661        0.00017283
     173         -0.187507        1.000000        0.00005304        0.00012315        0.00023532        0.00024261
     174         -0.186782        1.000000        0.00014129        0.00009257        0.00024548        0.00013363
     175         -0.186384        1.000000        0.00020889        0.00007101        0.00071743        0.00021521
     176         -0.186141        1.000000        0.00003715        0.00066524        0.00003070        0.00003595
     177         -0.185765        1.000000        0.00002420        0.00027942        0.00001763        0.00002165
     178         -0.185635        1.000000        0.00009189        0.00013336        0.00023326        0.00002716
     179         -0.185458        1.000000        0.00001390        0.00029615        0.00002257        0.00006702
     180         -0.185256        1.000000        0.00007398        0.00008238        0.00007298        0.00002597
     181         -0.185123        1.000000        0.00002789        0.00001516        0.00013412        0.00001983
     182         -0.184925        1.000000        0.00003443        0.00003521        0.00018414        0.00006398
     183         -0.183990        1.000000        0.00003280        0.00003389        0.00007648        0.00001109
     184         -0.183834        1.000000        0.00003952        0.00023153        0.00002406        0.00002856
     185         -0.183721        1.000000        0.00010672        0.00006062        0.00016603        0.00004844
     186         -0.183045        1.000000        0.00020162        0.00028139        0.00022350        0.00007099
     187         -0.182989        1.000000        0.00017515        0.00013493        0.00012073        0.00012919
     188         -0.182631        1.000000        0.00006069        0.00015541        0.00013764        0.00003032
     189         -0.182148        1.000000        0.00009194        0.00013718        0.00006891        0.00006987
     190         -0.181966        1.000000        0.00005252        0.00006094        0.00020456        0.00000874
     191         -0.181879        1.000000        0.00004825        0.00006979        0.00010069        0.00004590
     192         -0.181752        1.000000        0.00003679        0.00010500        0.00001179        0.00005577
     193         -0.181530        1.000000        0.00002601        0.00005778        0.00003087        0.00007152
     194         -0.181503        1.000000        0.00006329        0.00005405        0.00026921        0.00006381
     195         -0.181050        1.000000        0.00005642        0.00007232        0.00003451        0.00004829
     196         -0.180997        0.000000        0.00007649        0.00016193        0.00001920        0.00002603
     197         -0.180624        0.000000        0.00008082        0.00001588        0.00008870        0.00004867
     198         -0.180319        0.000000        0.00009784        0.00004723        0.00026699        0.00002005
     199         -0.179955        0.000000        0.00002232        0.00007794        0.00002371        0.00003036
     200         -0.179197        0.000000        0.00000514        0.00001120        0.00006877        0.00000407
     201         -0.175047        0.000000        0.00002606        0.00001849        0.00003157        0.00001812
     202         -0.092100        0.000000        0.00001800        0.00001904        0.00000977        0.00001657
     203         -0.072478        0.000000        0.00002416        0.00002235        0.00002595        0.00005091
     204         -0.060444        0.000000        0.00001535        0.00000905        0.00003079        0.00004446
     205         -0.056125        0.000000        0.00005304        0.00002341        0.00001175        0.00002093
     206         -0.053815        0.000000        0.00001389        0.00002466        0.00002296        0.00004081
     207         -0.053235        0.000000        0.00000677        0.00001095        0.00002461        0.00004957
     208         -0.051746        0.000000        0.00000649        0.00005542        0.00002938        0.00001485
     209         -0.048188        0.000000        0.00001596        0.00002259        0.00001688        0.00001307
     210         -0.047622        0.000000        0.00006817        0.00005369        0.00002394        0.00003478
     211         -0.046035        0.000000        0.00010478        0.00007125        0.00005099        0.00000850
     212         -0.042411        0.000000        0.00003531        0.00003841        0.00001662        0.00003213
     213         -0.040581        0.000000        0.00009496        0.00005795        0.00008295        0.00008385
     214         -0.033940        0.000000        0.00001931        0.00001577        0.00001532        0.00003725
     215         -0.028124        0.000000        0.00002971        0.00003199        0.00000623        0.00002669
     216         -0.025123        0.000000        0.00004448        0.00002468        0.00001659        0.00005376
     217         -0.024235        0.000000        0.00002845        0.00002519        0.00002441        0.00003673
     218         -0.023504        0.000000        0.00002081        0.00000899        0.00001771        0.00003991
     219         -0.020342        0.000000        0.00000857        0.00000411        0.00002292        0.00005843
     220         -0.017567        0.000000        0.00001830        0.00000590        0.00003590        0.00010031
     221         -0.014394        0.000000        0.00001486        0.00000780        0.00001325        0.00004037
     222         -0.009601        0.000000        0.00006766        0.00001067        0.00003341        0.00013197
     223         -0.007752        0.000000        0.00000683        0.00000201        0.00000789        0.00001222
     224         -0.005612        0.000000        0.00003060        0.00003828        0.00000607        0.00005970
     225         -0.002039        0.000000        0.00001802        0.00001858        0.00000814        0.00006416
     226          0.079913        0.000000        0.08292982        0.00651916        0.00005026        0.54569045
     227          0.101052        0.000000        0.08168744        0.02120839        0.17582636        0.35290603
     228          0.102677        0.000000        0.07994678        0.00084985        0.04624509        0.49516040
     229          0.110137        0.000000        0.08350902        0.00305759        0.10089506        0.44490188
     230          0.112170        0.000000        0.07914654        0.00011204        0.07484906        0.47750028
     231          0.121425        0.000000        0.08063111        0.00002213        0.03461057        0.51059923
     232          0.122398        0.000000        0.07296556        0.00035255        0.10193926        0.45356803
     233          0.154620        0.000000        0.00394571        0.00008618        0.00016326        0.01166868
     234          0.190685        0.000000        0.00200005        0.00071108        0.00195667        0.00041158
     235          0.202930        0.000000        0.00244818        0.00100332        0.00080803        0.00380074
     236          0.255281        0.000000        0.00118549        0.00249849        0.00199171        0.00020508
     237          0.277238        0.000000        0.00004820        0.00387793        0.00244901        0.00063920
     238          0.282469        0.000000        0.00041525        0.00562336        0.00144817        0.00010746
     239          0.288735        0.000000        0.00000992        0.00315074        0.00233764        0.00018480
     240          0.290634        0.000000        0.00324181        0.00322585        0.00055394        0.00050792
     241          0.291156        0.000000        0.00004648        0.00271490        0.00376645        0.00020149
     242          0.294762        0.000000        0.00001457        0.00082935        0.00369658        0.00115560
     243          0.295774        0.000000        0.00031620        0.00650661        0.00009831        0.00023687
     244          0.297890        0.000000        0.00001286        0.00104155        0.00364817        0.00111360
     245          0.299995        0.000000        0.00326493        0.00274524        0.00059991        0.00009692
     246          0.300462        0.000000        0.00027216        0.00582819        0.00118406        0.00031123
     247          0.301475        0.000000        0.00000498        0.00518246        0.00105849        0.00019144
     248          0.301727        0.000000        0.00002229        0.00056348        0.00651572        0.00049716
     249          0.308977        0.000000        0.00391254        0.00000383        0.00246826        0.00130042
     250          0.336672        0.000000        0.00534716        0.00002234        0.00008516        0.00013265
     251          0.338169        0.000000        0.00527711        0.00004983        0.00005814        0.00005480
     252          0.344043        0.000000        0.00571281        0.00075280        0.00005873        0.00036563
     253          0.355343        0.000000        0.00679814        0.00000646        0.00009843        0.00055525
     254          0.446846        0.000000        0.00042571        0.36738245        0.01601528        0.00607538
     255          0.447278        0.000000        0.00016093        0.00209891        0.25804803        0.13217210
     256          0.448999        0.000000        0.00018875        0.01557698        0.37640996        0.00012646
     257          0.453996        0.000000        0.00002423        0.10643050        0.26584268        0.02111589
     258          0.456903        0.000000        0.00000111        0.37349329        0.01107995        0.00568269
     259          0.461357        0.000000        0.00039170        0.28210014        0.09422662        0.01209819