# Projected DOS for atomic kind Pb at iteration step i = 0, E(Fermi) =    -0.180419 a.u.
#     MO Eigenvalue [a.u.]      Occupation                 s                py                pz                px
       1         -0.970340        1.000000        0.00000001        0.00000031        0.00000008        0.00000007
       2         -0.969203        1.000000        0.00000006        0.00000048        0.00000057        0.00000053
       3         -0.959967        1.000000        0.00000006        0.00000038        0.00000096        0.00000014
       4         -0.947088        1.000000        0.00000044        0.00000585        0.00000489        0.00000341
       5         -0.939761        1.000000        0.00000042        0.00000692        0.00000757        0.00000199
       6         -0.934889        1.000000        0.00000057        0.00000850        0.00000619        0.00000429
       7         -0.931287        1.000000        0.00000402        0.00002546        0.00005946        0.00001736
       8         -0.702552        1.000000        0.00001908        0.00002761        0.00003017        0.00001415
       9         -0.702387        1.000000        0.00000765        0.00001459        0.00000341        0.00000322
      10         -0.696161        1.000000        0.00000871        0.00000926        0.00000847        0.00000519
      11         -0.687025        1.000000        0.00006916        0.00006880        0.00004794        0.00002083
      12         -0.680511        1.000000        0.00002245        0.00002238        0.00003288        0.00000476
      13         -0.678835        1.000000        0.00007290        0.00006208        0.00004670        0.00001343
      14         -0.678713        1.000000        0.00008345        0.00004999        0.00015228        0.00006865
      15         -0.630785        1.000000        0.00646046        0.00059402        0.00002277        0.00731426
      16         -0.600217        1.000000        0.02944558        0.00187500        0.00089389        0.00148231
      17         -0.597538        1.000000        0.09637913        0.00337539        0.00714907        0.00079226
      18         -0.597350        1.000000        0.05696729        0.00828836        0.01004748        0.00122200
      19         -0.596587        1.000000        0.00241005        0.00021768        0.00036690        0.00017055
      20         -0.595270        1.000000        0.05695384        0.02139757        0.00209745        0.00094549
      21         -0.592822        1.000000        0.08339358        0.01223837        0.00285124        0.00148551
      22         -0.591024        1.000000        0.05279279        0.00711616        0.00240637        0.00076555
      23         -0.590607        1.000000        0.01969161        0.00213995        0.00184703        0.00025847
      24         -0.589488        1.000000        0.03759146        0.00496338        0.00187807        0.00093070
      25         -0.587851        1.000000        0.05290632        0.00247959        0.00817693        0.00084316
      26         -0.583948        1.000000        0.01363519        0.00127278        0.00108867        0.00172775
      27         -0.583008        1.000000        0.05854328        0.00462284        0.00309464        0.00684461
      28         -0.581592        1.000000        0.01981933        0.00331865        0.02603640        0.00128000
      29         -0.580143        1.000000        0.00710255        0.00549183        0.01438518        0.00229879
      30         -0.579619        1.000000        0.02517857        0.00218188        0.01903823        0.00500679
      31         -0.578046        1.000000        0.03664502        0.01972988        0.00768933        0.00331782
      32         -0.576909        1.000000        0.02370548        0.00826365        0.00552085        0.00459623
      33         -0.576465        1.000000        0.01062970        0.00041704        0.00385709        0.00212840
      34         -0.576025        1.000000        0.02389998        0.00701814        0.00665248        0.00197661
      35         -0.573789        1.000000        0.03598500        0.00712283        0.00849033        0.00798470
      36         -0.573675        1.000000        0.03447095        0.00476425        0.01276598        0.00826020
      37         -0.573063        1.000000        0.03519205        0.00896623        0.01085851        0.00863089
      38         -0.572165        1.000000        0.00512423        0.00343805        0.00244235        0.03806192
      39         -0.571789        1.000000        0.02939964        0.00580185        0.00659065        0.02358275
      40         -0.571018        1.000000        0.01967209        0.00657238        0.00298642        0.01043987
      41         -0.568288        1.000000        0.01645072        0.00029197        0.00475358        0.02312132
      42         -0.567230        1.000000        0.00052265        0.00212697        0.01504106        0.01392143
      43         -0.566721        1.000000        0.00133512        0.00450717        0.01409601        0.00428648
      44         -0.565843        1.000000        0.02812551        0.00428169        0.00826376        0.00860828
      45         -0.565133        1.000000        0.01656707        0.00159722        0.00255431        0.00597073
      46         -0.564432        1.000000        0.00254093        0.00198157        0.01141037        0.00858706
      47         -0.564211        1.000000        0.00968534        0.00271273        0.00213445        0.01228780
      48         -0.563921        1.000000        0.00348393        0.00225037        0.00354035        0.00873344
      49         -0.562550        1.000000        0.00114036        0.00018695        0.00764643        0.01292378
      50         -0.561314        1.000000        0.00792745        0.01102111        0.00631595        0.00150818
      51         -0.561193        1.000000        0.01892382        0.00512621        0.01236117        0.00367838
      52         -0.559549        1.000000        0.00532693        0.01840027        0.00087146        0.00375327
      53         -0.559390        1.000000        0.00085701        0.00114488        0.01061252        0.01273929
      54         -0.559341        1.000000        0.00463212        0.00784115        0.00256372        0.00353951
      55         -0.557918        1.000000        0.00157338        0.00414159        0.00105647        0.00308324
      56         -0.557783        1.000000        0.00198105        0.00991775        0.00378032        0.00103352
      57         -0.557312        1.000000        0.00603361        0.01712857        0.00004756        0.00084646
      58         -0.555329        1.000000        0.00356283        0.00031034        0.00729651        0.01837113
      59         -0.554063        1.000000        0.00225127        0.00038511        0.00384027        0.00040100
      60         -0.549561        1.000000        0.00058744        0.00069645        0.00397732        0.00014295
      61         -0.549073        1.000000        0.00263886        0.00241341        0.00126490        0.00086661
      62         -0.546932        1.000000        0.00008096        0.00033314        0.00000435        0.00000052
      63         -0.545270        1.000000        0.00524532        0.00055224        0.00457808        0.00029419
      64         -0.537611        1.000000        0.00266362        0.00310870        0.00194000        0.00021255
      65         -0.490722        1.000000        0.00042237        0.00000727        0.00002496        0.00000221
      66         -0.487211        1.000000        0.00095603        0.00003268        0.00000076        0.00000392
      67         -0.481362        1.000000        0.00358628        0.00004087        0.00007990        0.00000523
      68         -0.469921        1.000000        0.01182142        0.00004954        0.00004123        0.00001718
      69         -0.465166        1.000000        0.65166042        0.00118920        0.00223930        0.00172242
      70         -0.463457        1.000000        0.05612812        0.00007402        0.00014594        0.00020402
      71         -0.460468        1.000000        0.57729099        0.00058007        0.00176480        0.00102795
      72         -0.460101        1.000000        0.08860305        0.00011548        0.00033752        0.00024916
      73         -0.459336        1.000000        0.25956585        0.00007878        0.00073032        0.00057694
      74         -0.457619        1.000000        0.62693782        0.00071741        0.00149863        0.00079973
      75         -0.456451        1.000000        0.70706804        0.00047550        0.00032812        0.00140149
      76         -0.454306        1.000000        0.71665569        0.00038684        0.00027757        0.00084513
      77         -0.452184        1.000000        0.73370408        0.00046549        0.00027971        0.00039271
      78         -0.450487        1.000000        0.74903038        0.00030426        0.00100302        0.00048292
      79         -0.446541        1.000000        0.76877065        0.00033400        0.00009742        0.00015984
      80         -0.416370        1.000000        0.00009136        0.00001280        0.00001638        0.00002383
      81         -0.415034        1.000000        0.00020323        0.00004900        0.00000470        0.00000903
      82         -0.411661        1.000000        0.00009499        0.00008217        0.00009341        0.00001259
      83         -0.410129        1.000000        0.00049510        0.00002229        0.00009319        0.00001422
      84         -0.408496        1.000000        0.00051599        0.00014111        0.00026174        0.00008583
      85         -0.407551        1.000000        0.00016957        0.00002272        0.00005604        0.00001608
      86         -0.401007        1.000000        0.00017577        0.00003866        0.00006376        0.00002885
      87         -0.400351        1.000000        0.00045847        0.00012748        0.00011193        0.00006834
      88         -0.395138        1.000000        0.00020064        0.00006708        0.00014883        0.00014881
      89         -0.394759        1.000000        0.00002160        0.00000412        0.00006953        0.00002841
      90         -0.394362        1.000000        0.00016286        0.00002771        0.00005016        0.00007065
      91         -0.393590        1.000000        0.00010218        0.00001551        0.00006099        0.00003375
      92         -0.392926        1.000000        0.00071542        0.00013507        0.00045824        0.00036439
      93         -0.391150        1.000000        0.00005124        0.00009569        0.00011341        0.00008982
      94         -0.308320        1.000000        0.00106450        0.00713133        0.00057424        0.01257307
      95         -0.280655        1.000000        0.00539327        0.02596548        0.24722991        0.01203111
      96         -0.277269        1.000000        0.00722777        0.17125913        0.06037856        0.04458621
      97         -0.275754        1.000000        0.00371339        0.08073246        0.05678952        0.09652557
      98         -0.274904        1.000000        0.01020055        0.02368006        0.10205572        0.14484764
      99         -0.273775        1.000000        0.00707747        0.06839460        0.02450244        0.16005756
     100         -0.273037        1.000000        0.00536810        0.10099473        0.03992094        0.12552029
     101         -0.268611        1.000000        0.00405318        0.04057307        0.14887359        0.07230826
     102         -0.267581        1.000000        0.00978452        0.09806855        0.11380686        0.04344438
     103         -0.265807        1.000000        0.00356600        0.10366870        0.04166988        0.13071015
     104         -0.263537        1.000000        0.00295319        0.15201124        0.07741690        0.02918233
     105         -0.261036        1.000000        0.00302166        0.12734703        0.12303818        0.02177546
     106         -0.257635        1.000000        0.00101786        0.04598438        0.04248986        0.17475589
     107         -0.251186        1.000000        0.00047997        0.00347927        0.09812541        0.07009427
     108         -0.250095        1.000000        0.00214111        0.05618268        0.05908406        0.05056665
     109         -0.248303        1.000000        0.00230136        0.04033827        0.08149151        0.03595600
     110         -0.246338        1.000000        0.00068743        0.02602197        0.07033051        0.12934265
     111         -0.244068        1.000000        0.00405868        0.08253591        0.09843216        0.03936790
     112         -0.241861        1.000000        0.00249960        0.02876411        0.09193503        0.09730586
     113         -0.241264        1.000000        0.00352535        0.01367155        0.05621485        0.13686648
     114         -0.238936        1.000000        0.00509606        0.01319534        0.12214718        0.05213625
     115         -0.238243        1.000000        0.00307179        0.04369005        0.05241468        0.09678679
     116         -0.235971        1.000000        0.00779036        0.13388666        0.02926352        0.01083622
     117         -0.234141        1.000000        0.00334221        0.13088976        0.04491868        0.02432270
     118         -0.231161        1.000000        0.00199053        0.00648467        0.02922321        0.02619471
     119         -0.230224        1.000000        0.00172431        0.00953016        0.02093474        0.02944029
     120         -0.228195        1.000000        0.00980756        0.01357300        0.01826904        0.06263142
     121         -0.227724        1.000000        0.00306062        0.06702623        0.00897417        0.00264247
     122         -0.224651        1.000000        0.00786905        0.05749795        0.03463285        0.03514338
     123         -0.223420        1.000000        0.00073035        0.00664179        0.00422210        0.01153201
     124         -0.221089        1.000000        0.00235923        0.00834722        0.00497892        0.00629505
     125         -0.220334        1.000000        0.00375614        0.02028812        0.00528584        0.01344159
     126         -0.219484        1.000000        0.00062409        0.00923863        0.00348296        0.00612069
     127         -0.218237        1.000000        0.00745231        0.02581269        0.01761201        0.01251514
     128         -0.217128        1.000000        0.00753113        0.02991710        0.00569769        0.00388291
     129         -0.215923        1.000000        0.00198449        0.00499514        0.00549465        0.00256674
     130         -0.215016        1.000000        0.01134491        0.05378355        0.01169853        0.01686841
     131         -0.213329        1.000000        0.00494031        0.01018716        0.00911741        0.00744575
     132         -0.212440        1.000000        0.00086972        0.00395887        0.00420189        0.00141995
     133         -0.211672        1.000000        0.00275472        0.00943731        0.00161297        0.00390889
     134         -0.210698        1.000000        0.00258024        0.00901360        0.00481629        0.00203610
     135         -0.210588        1.000000        0.00101754        0.00486914        0.00176279        0.00273884
     136         -0.209886        1.000000        0.00531380        0.01047303        0.00220908        0.00513944
     137         -0.208512        1.000000        0.00272075        0.00301223        0.00228429        0.00474222
     138         -0.208285        1.000000        0.00429294        0.00881882        0.00114133        0.00311774
     139         -0.207422        1.000000        0.00076438        0.00463281        0.00134993        0.00304849
     140         -0.206349        1.000000        0.00485907        0.00504283        0.00177331        0.00368489
     141         -0.205739        1.000000        0.00614007        0.01523105        0.00175562        0.00171878
     142         -0.204164        1.000000        0.00312856        0.00445079        0.00094137        0.00209169
     143         -0.203749        1.000000        0.00247432        0.00308126        0.00167528        0.00160577
     144         -0.201934        1.000000        0.00316709        0.00534682        0.00017091        0.00040243
     145         -0.201162        1.000000        0.00337183        0.00182574        0.00149643        0.00278332
     146         -0.199849        1.000000        0.00241266        0.00277759        0.00089878        0.00144499
     147         -0.199382        1.000000        0.00383827        0.00104630        0.00039662        0.00206803
     148         -0.197960        1.000000        0.00541105        0.00393469        0.00162712        0.00158041
     149         -0.197466        1.000000        0.00071815        0.00036091        0.00062385        0.00043802
     150         -0.196515        1.000000        0.00158163        0.00061933        0.00055241        0.00065520
     151         -0.196411        1.000000        0.00229977        0.00043643        0.00116900        0.00142775
     152         -0.195643        1.000000        0.00551163        0.00132254        0.00227641        0.00202011
     153         -0.195031        1.000000        0.00319782        0.00186424        0.00163036        0.00120886
     154         -0.194653        1.000000        0.01035233        0.00491760        0.00302399        0.00424653
     155         -0.194507        1.000000        0.00633767        0.00303346        0.00217620        0.00181633
     156         -0.194076        1.000000        0.00464464        0.00059211        0.00113534        0.00124567
     157         -0.193426        1.000000        0.00140029        0.00156135        0.00046132        0.00067454
     158         -0.193162        1.000000        0.01224200        0.00331342        0.00354632        0.00290387
     159         -0.192732        1.000000        0.00072820        0.00064072        0.00106820        0.00030492
     160         -0.192311        1.000000        0.00144645        0.00063544        0.00035513        0.00030630
     161         -0.191710        1.000000        0.00296407        0.00043859        0.00046575        0.00087592
     162         -0.191578        1.000000        0.00373069        0.00089454        0.00147058        0.00074040
     163         -0.191384        1.000000        0.00219078        0.00012377        0.00025722        0.00039950
     164         -0.190859        1.000000        0.00133364        0.00066257        0.00024272        0.00029503
     165         -0.190077        1.000000        0.00570910        0.00160845        0.00098452        0.00121379
     166         -0.189600        1.000000        0.00092026        0.00036191        0.00070884        0.00048228
     167         -0.189241        1.000000        0.00392100        0.00081297        0.00058435        0.00033136
     168         -0.188974        1.000000        0.01989517        0.00407297        0.00297665        0.00340598
     169         -0.188395        1.000000        0.01015429        0.00198697        0.00200631        0.00146237
     170         -0.187897        1.000000        0.01149354        0.00659075        0.00135198        0.00231036
     171         -0.187674        1.000000        0.00637291        0.00183108        0.00177323        0.00044223
     172         -0.186909        1.000000        0.00258234        0.00040477        0.00095842        0.00069958
     173         -0.186515        1.000000        0.00117768        0.00024186        0.00040077        0.00043839
     174         -0.186298        1.000000        0.00644374        0.00065124        0.00056683        0.00111978
     175         -0.185709        1.000000        0.00562774        0.00020890        0.00096964        0.00074958
     176         -0.185539        1.000000        0.00143202        0.00014414        0.00006771        0.00031069
     177         -0.185330        1.000000        0.00672922        0.00018862        0.00033362        0.00095099
     178         -0.185204        1.000000        0.00325783        0.00071620        0.00024867        0.00064252
     179         -0.185044        1.000000        0.01732840        0.00107820        0.00138501        0.00195265
     180         -0.184362        1.000000        0.00440673        0.00117520        0.00150710        0.00061520
     181         -0.184075        1.000000        0.00687001        0.00019652        0.00076565        0.00162574
     182         -0.183891        1.000000        0.00121177        0.00005360        0.00021648        0.00023290
     183         -0.183601        1.000000        0.01279630        0.00136123        0.00178108        0.00087035
     184         -0.183050        1.000000        0.00638017        0.00064513        0.00026453        0.00046211
     185         -0.182655        1.000000        0.01987403        0.00332516        0.00118522        0.00029173
     186         -0.182288        1.000000        0.00689042        0.00075532        0.00093297        0.00054915
     187         -0.181942        1.000000        0.01386790        0.00053040        0.00097093        0.00124326
     188         -0.181794        1.000000        0.01872997        0.00033322        0.00139980        0.00157824
     189         -0.181540        1.000000        0.02149729        0.00212985        0.00117949        0.00179172
     190         -0.181230        1.000000        0.01283399        0.00125129        0.00095455        0.00098253
     191         -0.181120        1.000000        0.01174340        0.00097237        0.00076150        0.00120873
     192         -0.180757        1.000000        0.00578551        0.00037132        0.00018388        0.00050943
     193         -0.180560        1.000000        0.00161958        0.00011302        0.00014595        0.00009133
     194         -0.180419        1.000000        0.01104449        0.00032656        0.00095016        0.00071356
     195         -0.180166        0.000000        0.02384976        0.00167838        0.00028911        0.00123810
     196         -0.179883        0.000000        0.04008998        0.00234646        0.00209393        0.00196143
     197         -0.179763        0.000000        0.04523017        0.00084036        0.00267807        0.00362374
     198         -0.179429        0.000000        0.05186026        0.00278301        0.00208335        0.00093448
     199         -0.178703        0.000000        0.10060881        0.00299970        0.00320483        0.00555707
     200         -0.178061        0.000000        0.01545248        0.00069369        0.00078187        0.00056826
     201         -0.174655        0.000000        0.14153102        0.00137755        0.00120093        0.00139173
     202         -0.091981        0.000000        0.00897196        0.65785644        0.06927814        0.04251933
     203         -0.072048        0.000000        0.00489703        0.66915515        0.03726239        0.03730059
     204         -0.060219        0.000000        0.00538586        0.52164359        0.11647810        0.07741365
     205         -0.055875        0.000000        0.00845773        0.34926411        0.07780039        0.28089438
     206         -0.053417        0.000000        0.00878118        0.09972259        0.17190133        0.42495454
     207         -0.052956        0.000000        0.00300170        0.23529166        0.23012584        0.24432282
     208         -0.051409        0.000000        0.00557147        0.05538225        0.24310639        0.39883025
     209         -0.047869        0.000000        0.00532987        0.09937689        0.52076592        0.08031413
     210         -0.047368        0.000000        0.00495969        0.06558980        0.35652737        0.27412234
     211         -0.045836        0.000000        0.00301391        0.06665452        0.01516725        0.62380005
     212         -0.042107        0.000000        0.00068841        0.05359703        0.38692865        0.26000682
     213         -0.040360        0.000000        0.00133063        0.13803007        0.48961754        0.07440081
     214         -0.033415        0.000000        0.00209492        0.30804387        0.08324397        0.30215637
     215         -0.027638        0.000000        0.00144292        0.43082757        0.03230317        0.23220853
     216         -0.024762        0.000000        0.00041659        0.14127725        0.38079669        0.16700686
     217         -0.023871        0.000000        0.00065572        0.26423902        0.31256064        0.11034144
     218         -0.023081        0.000000        0.00133979        0.15275173        0.01968858        0.51150449
     219         -0.020161        0.000000        0.00037930        0.45437900        0.17208863        0.05003359
     220         -0.017288        0.000000        0.00052609        0.12061936        0.47293229        0.08892340
     221         -0.014051        0.000000        0.00013810        0.00510175        0.58310839        0.08364183
     222         -0.009505        0.000000        0.00033174        0.09660159        0.06013064        0.51278448
     223         -0.007656        0.000000        0.00017623        0.24122104        0.05222950        0.37934160
     224         -0.005519        0.000000        0.00012633        0.37017845        0.02490343        0.27779212
     225         -0.001781        0.000000        0.00017715        0.03233989        0.62457456        0.00766864
     226          0.080045        0.000000        0.00000075        0.00015681        0.00000877        0.00006883
     227          0.101171        0.000000        0.00000913        0.00008709        0.00019468        0.00000763
     228          0.102816        0.000000        0.00000256        0.00005791        0.00006086        0.00005868
     229          0.110257        0.000000        0.00000045        0.00000483        0.00008939        0.00004827
     230          0.112276        0.000000        0.00000111        0.00005007        0.00004379        0.00001786
     231          0.121533        0.000000        0.00000047        0.00018029        0.00029653        0.00007823
     232          0.122539        0.000000        0.00000224        0.00001257        0.00006797        0.00001186
     233          0.154823        0.000000        0.00000054        0.00001497        0.00001576        0.00001658
     234          0.190852        0.000000        0.00000025        0.00000359        0.00000382        0.00000039
     235          0.203100        0.000000        0.00000129        0.00001489        0.00000093        0.00000644
     236          0.255432        0.000000        0.00000121        0.00000420        0.00000343        0.00001462
     237          0.277395        0.000000        0.00000119        0.00001571        0.00001850        0.00000591
     238          0.282602        0.000000        0.00000375        0.00003379        0.00008897        0.00001264
     239          0.288867        0.000000        0.00000902        0.00010934        0.00002531        0.00001592
     240          0.290796        0.000000        0.00001171        0.00000256        0.00000075        0.00016258
     241          0.291296        0.000000        0.00000417        0.00010091        0.00006481        0.00000850
     242          0.294905        0.000000        0.00000073        0.00004665        0.00003281        0.00002609
     243          0.295907        0.000000        0.00000165        0.00005205        0.00004331        0.00002412
     244          0.298025        0.000000        0.00000092        0.00001903        0.00004359        0.00001737
     245          0.300158        0.000000        0.00000285        0.00002140        0.00002448        0.00003574
     246          0.300607        0.000000        0.00000201        0.00001816        0.00012877        0.00002872
     247          0.301599        0.000000        0.00000113        0.00006322        0.00011303        0.00002289
     248          0.301895        0.000000        0.00000154        0.00000963        0.00000850        0.00000822
     249          0.309107        0.000000        0.00001152        0.00002966        0.00018245        0.00002864
     250          0.336818        0.000000        0.00000567        0.00004565        0.00000590        0.00002111
     251          0.338310        0.000000        0.00000223        0.00000692        0.00009933        0.00000930
     252          0.344196        0.000000        0.00000524        0.00004361        0.00006671        0.00004435
     253          0.355480        0.000000        0.00000314        0.00000212        0.00005624        0.00001176
     254          0.446971        0.000000        0.00000041        0.00000200        0.00000240        0.00000566
     255          0.447405        0.000000        0.00000025        0.00000305        0.00000481        0.00000198
     256          0.449173        0.000000        0.00000015        0.00000301        0.00000131        0.00000626
     257          0.454124        0.000000        0.00000005        0.00005101        0.00010000        0.00003423
     258          0.457033        0.000000        0.00000064        0.00000291        0.00001812        0.00000290
     259          0.461496        0.000000        0.00000040        0.00001010        0.00001240        0.00000334