# Projected DOS for atomic kind I at iteration step i = 0, E(Fermi) =    -0.180419 a.u.
#     MO Eigenvalue [a.u.]      Occupation                 s                py                pz                px
       1         -0.970340        1.000000        0.00002507        0.00001798        0.00015799        0.00003548
       2         -0.969203        1.000000        0.00001589        0.00008876        0.00007910        0.00000558
       3         -0.959967        1.000000        0.00004727        0.00018106        0.00003138        0.00010238
       4         -0.947088        1.000000        0.00015120        0.00021315        0.00043441        0.00023412
       5         -0.939761        1.000000        0.00013457        0.00040399        0.00009339        0.00021147
       6         -0.934889        1.000000        0.00015297        0.00029187        0.00020804        0.00029272
       7         -0.931287        1.000000        0.00031384        0.00051635        0.00035971        0.00028390
       8         -0.702552        1.000000        0.00043706        0.00020516        0.00016240        0.00019328
       9         -0.702387        1.000000        0.00041464        0.00006866        0.00019145        0.00023261
      10         -0.696161        1.000000        0.00079407        0.00022601        0.00021738        0.00023248
      11         -0.687025        1.000000        0.00279161        0.00047044        0.00061805        0.00054205
      12         -0.680511        1.000000        0.00163217        0.00040685        0.00018339        0.00015161
      13         -0.678835        1.000000        0.00269169        0.00049593        0.00036399        0.00044190
      14         -0.678713        1.000000        0.00349302        0.00067928        0.00048065        0.00025664
      15         -0.630785        1.000000        0.95145319        0.01644003        0.00147593        0.00511930
      16         -0.600217        1.000000        0.39372583        0.00507632        0.00366058        0.00133693
      17         -0.597538        1.000000        0.71663103        0.00731891        0.00362936        0.00469652
      18         -0.597350        1.000000        0.81087725        0.00114268        0.00238697        0.00278596
      19         -0.596587        1.000000        0.03274401        0.00022742        0.00044188        0.00013886
      20         -0.595270        1.000000        0.74822574        0.00395812        0.00323754        0.00235966
      21         -0.592822        1.000000        0.81036217        0.00354127        0.00394293        0.00442715
      22         -0.591024        1.000000        0.65106623        0.00492672        0.00377080        0.00384200
      23         -0.590607        1.000000        0.22901025        0.00325628        0.00095409        0.00212121
      24         -0.589488        1.000000        0.50962204        0.00360529        0.00341698        0.00232539
      25         -0.587851        1.000000        0.74423439        0.00555035        0.00244068        0.00528761
      26         -0.583948        1.000000        0.44915557        0.00424051        0.00118201        0.00119256
      27         -0.583008        1.000000        0.79967063        0.00419701        0.00456146        0.00240581
      28         -0.581592        1.000000        0.85261912        0.00260557        0.00197768        0.00127701
      29         -0.580143        1.000000        0.74337197        0.00280775        0.00131315        0.00160591
      30         -0.579619        1.000000        0.78817180        0.00252640        0.00299185        0.00216355
      31         -0.578046        1.000000        0.86111142        0.00266143        0.00293359        0.00318597
      32         -0.576909        1.000000        0.67781426        0.00130146        0.00195952        0.00167407
      33         -0.576465        1.000000        0.21512425        0.00120163        0.00155257        0.00073658
      34         -0.576025        1.000000        0.50323364        0.00166509        0.00227846        0.00131493
      35         -0.573789        1.000000        0.73621926        0.00181845        0.00338079        0.00312275
      36         -0.573675        1.000000        0.76749196        0.00167658        0.00334692        0.00304803
      37         -0.573063        1.000000        0.91309204        0.00118881        0.00293768        0.00258192
      38         -0.572165        1.000000        0.93699226        0.00089657        0.00056495        0.00115040
      39         -0.571789        1.000000        0.90634429        0.00159208        0.00182703        0.00293935
      40         -0.571018        1.000000        0.74019437        0.00194853        0.00343709        0.00175453
      41         -0.568288        1.000000        0.83808538        0.00140487        0.00097201        0.00360040
      42         -0.567230        1.000000        0.87167132        0.00057509        0.00145432        0.00149532
      43         -0.566721        1.000000        0.92540756        0.00063648        0.00125360        0.00079683
      44         -0.565843        1.000000        0.62203294        0.00067909        0.00364260        0.00192099
      45         -0.565133        1.000000        0.43563516        0.00100423        0.00234007        0.00245492
      46         -0.564432        1.000000        0.96574755        0.00039599        0.00083072        0.00136785
      47         -0.564211        1.000000        0.81776838        0.00090065        0.00115142        0.00210577
      48         -0.563921        1.000000        0.92627428        0.00042390        0.00066144        0.00152292
      49         -0.562550        1.000000        0.94055713        0.00012465        0.00077266        0.00140113
      50         -0.561314        1.000000        0.90554392        0.00136819        0.00074701        0.00078493
      51         -0.561193        1.000000        0.80703441        0.00094329        0.00195270        0.00101588
      52         -0.559549        1.000000        0.90171636        0.00214695        0.00012698        0.00053089
      53         -0.559390        1.000000        0.87013686        0.00028551        0.00047530        0.00115535
      54         -0.559341        1.000000        0.56152852        0.00138906        0.00069249        0.00118824
      55         -0.557918        1.000000        0.33197138        0.00130558        0.00023138        0.00115500
      56         -0.557783        1.000000        0.67048585        0.00081468        0.00050490        0.00096075
      57         -0.557312        1.000000        0.96101737        0.00154141        0.00071516        0.00038557
      58         -0.555329        1.000000        0.90012544        0.00047379        0.00031018        0.00169472
      59         -0.554063        1.000000        0.17725993        0.00243103        0.00020407        0.00197147
      60         -0.549561        1.000000        0.17354112        0.00067598        0.00134400        0.00101395
      61         -0.549073        1.000000        0.26607738        0.00068203        0.00035545        0.00049596
      62         -0.546932        1.000000        0.99926121        0.00015785        0.00001010        0.00004915
      63         -0.545270        1.000000        0.21936774        0.00139886        0.00072217        0.00139982
      64         -0.537611        1.000000        0.25419014        0.00344923        0.00113756        0.00202125
      65         -0.490722        1.000000        0.00172242        0.00078082        0.00046033        0.00058748
      66         -0.487211        1.000000        0.00193604        0.00038435        0.00097100        0.00062056
      67         -0.481362        1.000000        0.00213628        0.00127010        0.00146153        0.00114061
      68         -0.469921        1.000000        0.00412520        0.00278033        0.00321022        0.00274355
      69         -0.465166        1.000000        0.15247497        0.04594335        0.05005560        0.04371808
      70         -0.463457        1.000000        0.00972101        0.00627716        0.00406702        0.00401746
      71         -0.460468        1.000000        0.10707956        0.03116792        0.04124553        0.03102945
      72         -0.460101        1.000000        0.01492059        0.00520299        0.00687085        0.00570637
      73         -0.459336        1.000000        0.03899646        0.00846251        0.01707884        0.01836921
      74         -0.457619        1.000000        0.11650118        0.03132697        0.04497475        0.02666494
      75         -0.456451        1.000000        0.14635176        0.04377864        0.02792476        0.04195431
      76         -0.454306        1.000000        0.14153324        0.03489239        0.02814613        0.03718666
      77         -0.452184        1.000000        0.14193437        0.03280307        0.03085977        0.03174066
      78         -0.450487        1.000000        0.13500623        0.02023550        0.04098997        0.03275818
      79         -0.446541        1.000000        0.13784347        0.02010263        0.02898223        0.02937246
      80         -0.416370        1.000000        0.00075158        0.00067013        0.00075280        0.00099053
      81         -0.415034        1.000000        0.00082927        0.00053267        0.00075854        0.00167456
      82         -0.411661        1.000000        0.00193781        0.00345472        0.00174594        0.00247914
      83         -0.410129        1.000000        0.00079020        0.00164735        0.00032853        0.00102126
      84         -0.408496        1.000000        0.00100743        0.00155454        0.00131008        0.00183492
      85         -0.407551        1.000000        0.00080427        0.00126137        0.00056073        0.00204303
      86         -0.401007        1.000000        0.00165909        0.00189687        0.00261654        0.00456627
      87         -0.400351        1.000000        0.00203740        0.00484398        0.00122644        0.00532748
      88         -0.395138        1.000000        0.00267077        0.00533875        0.00239552        0.00306565
      89         -0.394759        1.000000        0.00084040        0.00264819        0.00098275        0.00062619
      90         -0.394362        1.000000        0.00095348        0.00242735        0.00107377        0.00096800
      91         -0.393590        1.000000        0.00127532        0.00180933        0.00165816        0.00221078
      92         -0.392926        1.000000        0.00204404        0.00341970        0.00417214        0.00101088
      93         -0.391150        1.000000        0.00220195        0.00456933        0.00020033        0.00483228
      94         -0.308320        1.000000        0.02241233        0.75080378        0.03094500        0.17278859
      95         -0.280655        1.000000        0.01708059        0.04520485        0.60403978        0.04195165
      96         -0.277269        1.000000        0.01483913        0.39404200        0.17044135        0.13520641
      97         -0.275754        1.000000        0.01165848        0.20189865        0.15420013        0.39152377
      98         -0.274904        1.000000        0.01150609        0.09984709        0.27323536        0.33248629
      99         -0.273775        1.000000        0.01214519        0.25711237        0.05507027        0.41324459
     100         -0.273037        1.000000        0.01413193        0.28397439        0.10483018        0.32336128
     101         -0.268611        1.000000        0.01249501        0.13597551        0.41081005        0.17258843
     102         -0.267581        1.000000        0.01162945        0.25321693        0.33854013        0.12952668
     103         -0.265807        1.000000        0.01331615        0.25812254        0.11113805        0.33468670
     104         -0.263537        1.000000        0.01452824        0.40792314        0.20021036        0.11338694
     105         -0.261036        1.000000        0.01544461        0.33743498        0.31699630        0.05391927
     106         -0.257635        1.000000        0.01457007        0.15565043        0.13323723        0.43002727
     107         -0.251186        1.000000        0.01807778        0.03833977        0.57923182        0.18886042
     108         -0.250095        1.000000        0.01428103        0.27203363        0.29964857        0.23846089
     109         -0.248303        1.000000        0.01345880        0.25435862        0.43769062        0.12855138
     110         -0.246338        1.000000        0.02136095        0.11280484        0.25839063        0.37910082
     111         -0.244068        1.000000        0.01822625        0.15175864        0.38190837        0.21997412
     112         -0.241861        1.000000        0.01900680        0.21391610        0.25738219        0.28490293
     113         -0.241264        1.000000        0.01656646        0.22535778        0.26384660        0.27999801
     114         -0.238936        1.000000        0.01440627        0.17567773        0.40463759        0.20554241
     115         -0.238243        1.000000        0.01521729        0.15755442        0.19448634        0.43306520
     116         -0.235971        1.000000        0.01292333        0.41711143        0.25820186        0.12423111
     117         -0.234141        1.000000        0.01334868        0.38945672        0.21408649        0.17536885
     118         -0.231161        1.000000        0.00455245        0.28095654        0.31898256        0.31718778
     119         -0.230224        1.000000        0.00549387        0.23557458        0.39125495        0.29525279
     120         -0.228195        1.000000        0.00760244        0.25388919        0.30929065        0.31463387
     121         -0.227724        1.000000        0.00313701        0.29781451        0.11829574        0.49041535
     122         -0.224651        1.000000        0.00654273        0.28598925        0.17438530        0.39298260
     123         -0.223420        1.000000        0.00169954        0.36193580        0.10662599        0.49852554
     124         -0.221089        1.000000        0.00197010        0.21950562        0.34880701        0.39493979
     125         -0.220334        1.000000        0.00253033        0.25572186        0.23418942        0.45472087
     126         -0.219484        1.000000        0.00144296        0.20286094        0.38511660        0.37487350
     127         -0.218237        1.000000        0.00241471        0.21212821        0.35215033        0.36062472
     128         -0.217128        1.000000        0.00159060        0.28406208        0.42077699        0.23755520
     129         -0.215923        1.000000        0.00166932        0.31235464        0.56331781        0.10039223
     130         -0.215016        1.000000        0.00430272        0.23358569        0.36492653        0.30030817
     131         -0.213329        1.000000        0.00284895        0.44932281        0.29887783        0.21056596
     132         -0.212440        1.000000        0.00118263        0.29421125        0.21642765        0.47320353
     133         -0.211672        1.000000        0.00113554        0.41096344        0.16905565        0.39483021
     134         -0.210698        1.000000        0.00104621        0.39704478        0.20080123        0.37901744
     135         -0.210588        1.000000        0.00119372        0.25117497        0.22739622        0.50260983
     136         -0.209886        1.000000        0.00073355        0.26052270        0.29716484        0.41462392
     137         -0.208512        1.000000        0.00128458        0.29944647        0.37729992        0.30611169
     138         -0.208285        1.000000        0.00099114        0.40179828        0.15566534        0.42075739
     139         -0.207422        1.000000        0.00051352        0.47557534        0.23410093        0.27504816
     140         -0.206349        1.000000        0.00098309        0.24568219        0.39390369        0.34166887
     141         -0.205739        1.000000        0.00106947        0.44956986        0.14802611        0.37278107
     142         -0.204164        1.000000        0.00079376        0.55127544        0.24187415        0.18868183
     143         -0.203749        1.000000        0.00091068        0.12783028        0.41438903        0.44640878
     144         -0.201934        1.000000        0.00024501        0.44468320        0.37308363        0.16908579
     145         -0.201162        1.000000        0.00084613        0.20281944        0.34836884        0.43286206
     146         -0.199849        1.000000        0.00141499        0.10323495        0.36713538        0.51159807
     147         -0.199382        1.000000        0.00062988        0.24957379        0.42788674        0.31134963
     148         -0.197960        1.000000        0.00122592        0.29425814        0.31627585        0.37075479
     149         -0.197466        1.000000        0.00105298        0.56299115        0.14220515        0.28584328
     150         -0.196515        1.000000        0.00263282        0.15403405        0.47883558        0.34057106
     151         -0.196411        1.000000        0.00101600        0.26422497        0.21319743        0.51085709
     152         -0.195643        1.000000        0.00101592        0.37835465        0.22497483        0.38035024
     153         -0.195031        1.000000        0.00105814        0.28590889        0.53136031        0.16836047
     154         -0.194653        1.000000        0.00080396        0.29019475        0.22090901        0.46333944
     155         -0.194507        1.000000        0.00116931        0.45150688        0.14003752        0.38975374
     156         -0.194076        1.000000        0.00042947        0.42257144        0.36917104        0.19834302
     157         -0.193426        1.000000        0.00073480        0.31540076        0.36768843        0.30850638
     158         -0.193162        1.000000        0.00070572        0.25378863        0.33194892        0.38969690
     159         -0.192732        1.000000        0.00066707        0.18890114        0.39851012        0.40646779
     160         -0.192311        1.000000        0.00037442        0.36696331        0.18405932        0.44516593
     161         -0.191710        1.000000        0.00052078        0.55863046        0.23662815        0.19660157
     162         -0.191578        1.000000        0.00036820        0.53919277        0.29469082        0.15613590
     163         -0.191384        1.000000        0.00067771        0.49234368        0.28834402        0.21214963
     164         -0.190859        1.000000        0.00066754        0.60624103        0.07647443        0.31272407
     165         -0.190077        1.000000        0.00072674        0.26255908        0.38755218        0.33693212
     166         -0.189600        1.000000        0.00127915        0.36414338        0.17772328        0.45080011
     167         -0.189241        1.000000        0.00056919        0.47302125        0.21944465        0.29973199
     168         -0.188974        1.000000        0.00156041        0.39369024        0.38873879        0.18273937
     169         -0.188395        1.000000        0.00102516        0.36368625        0.34913545        0.26910291
     170         -0.187897        1.000000        0.00139835        0.42280306        0.26865272        0.28289934
     171         -0.187674        1.000000        0.00074957        0.40664551        0.29564191        0.28495410
     172         -0.186909        1.000000        0.00170980        0.56585482        0.27755165        0.14735471
     173         -0.186515        1.000000        0.00049313        0.22267186        0.53096228        0.24219689
     174         -0.186298        1.000000        0.00056446        0.48590010        0.23880040        0.26423779
     175         -0.185709        1.000000        0.00079083        0.29693012        0.46095650        0.23179770
     176         -0.185539        1.000000        0.00028569        0.15386545        0.47902239        0.36376566
     177         -0.185330        1.000000        0.00032200        0.34279245        0.32105106        0.32656270
     178         -0.185204        1.000000        0.00051554        0.34944156        0.29542098        0.34862050
     179         -0.185044        1.000000        0.00061333        0.44573789        0.19768423        0.33277480
     180         -0.184362        1.000000        0.00037050        0.15541337        0.61137953        0.22343969
     181         -0.184075        1.000000        0.00021972        0.20125712        0.21400243        0.57460511
     182         -0.183891        1.000000        0.00063344        0.06160587        0.78307779        0.15062001
     183         -0.183601        1.000000        0.00032656        0.25632777        0.28071954        0.44460121
     184         -0.183050        1.000000        0.00037611        0.39628659        0.27921022        0.31551880
     185         -0.182655        1.000000        0.00045696        0.32390392        0.39862727        0.25131497
     186         -0.182288        1.000000        0.00048343        0.26549410        0.25197034        0.47241194
     187         -0.181942        1.000000        0.00031402        0.23099222        0.46831322        0.28315805
     188         -0.181794        1.000000        0.00039083        0.31264048        0.40368225        0.26033657
     189         -0.181540        1.000000        0.00036533        0.34546965        0.37110796        0.25553369
     190         -0.181230        1.000000        0.00032660        0.24423394        0.39035115        0.34852203
     191         -0.181120        1.000000        0.00022750        0.36578033        0.34273560        0.27592579
     192         -0.180757        1.000000        0.00012247        0.28337022        0.21806207        0.49127723
     193         -0.180560        1.000000        0.00031510        0.14112423        0.45222498        0.40324130
     194         -0.180419        1.000000        0.00006997        0.18910713        0.51603608        0.28143661
     195         -0.180166        0.000000        0.00031723        0.23665797        0.42682942        0.30856971
     196         -0.179883        0.000000        0.00022620        0.28487484        0.32041674        0.34734184
     197         -0.179763        0.000000        0.00124808        0.45848150        0.31357449        0.17350390
     198         -0.179429        0.000000        0.00025996        0.18052709        0.45186574        0.30877853
     199         -0.178703        0.000000        0.00028980        0.40327365        0.27568074        0.20788267
     200         -0.178061        0.000000        0.00950730        0.66749900        0.07020580        0.23454126
     201         -0.174655        0.000000        0.00036210        0.33614778        0.25811833        0.25960139
     202         -0.091981        0.000000        0.01362199        0.06201628        0.07431119        0.07120861
     203         -0.072048        0.000000        0.02588141        0.15785690        0.01032566        0.05651855
     204         -0.060219        0.000000        0.02630664        0.18187795        0.03385596        0.03650083
     205         -0.055875        0.000000        0.02870858        0.14088573        0.04147289        0.07213474
     206         -0.053417        0.000000        0.02587696        0.03721095        0.07465238        0.15612620
     207         -0.052956        0.000000        0.02660044        0.07834228        0.08629392        0.09571790
     208         -0.051409        0.000000        0.02744641        0.02861023        0.08027397        0.16037226
     209         -0.047869        0.000000        0.02869319        0.02796002        0.19844316        0.03857706
     210         -0.047368        0.000000        0.03015431        0.01926807        0.13380646        0.11508406
     211         -0.045836        0.000000        0.02360029        0.07119265        0.01030421        0.18573128
     212         -0.042107        0.000000        0.02694669        0.03739209        0.13693680        0.09699435
     213         -0.040360        0.000000        0.02642930        0.08646306        0.15821165        0.02462451
     214         -0.033415        0.000000        0.01588944        0.11117438        0.03036987        0.14661537
     215         -0.027638        0.000000        0.01552463        0.16769248        0.01322954        0.10630687
     216         -0.024762        0.000000        0.01572337        0.06511335        0.15367012        0.07563299
     217         -0.023871        0.000000        0.01693443        0.11060128        0.12105688        0.06329381
     218         -0.023081        0.000000        0.01531869        0.10515825        0.01262722        0.18124440
     219         -0.020161        0.000000        0.01651842        0.19394957        0.08551100        0.02632898
     220         -0.017288        0.000000        0.01492476        0.06735166        0.19013315        0.04374091
     221         -0.014051        0.000000        0.01601248        0.00317469        0.27044330        0.03793104
     222         -0.009505        0.000000        0.01730357        0.05893298        0.02872674        0.22458965
     223         -0.007656        0.000000        0.01586902        0.11605557        0.01950453        0.17514548
     224         -0.005519        0.000000        0.01626467        0.17366275        0.01128824        0.12541405
     225         -0.001781        0.000000        0.01640555        0.00994855        0.30050539        0.00811405
     226          0.080045        0.000000        0.00005250        0.00033337        0.00129154        0.00075319
     227          0.101171        0.000000        0.00012230        0.00076958        0.00150185        0.00078669
     228          0.102816        0.000000        0.00005400        0.00060305        0.00055275        0.00032298
     229          0.110257        0.000000        0.00006897        0.00119440        0.00056109        0.00054782
     230          0.112276        0.000000        0.00013242        0.00069854        0.00188808        0.00115798
     231          0.121533        0.000000        0.00010078        0.00105144        0.00113844        0.00045647
     232          0.122539        0.000000        0.00012461        0.00148215        0.00103912        0.00088749
     233          0.154823        0.000000        0.00001836        0.00034919        0.00021716        0.00005771
     234          0.190852        0.000000        0.00001249        0.00018894        0.00004418        0.00008615
     235          0.203100        0.000000        0.00000515        0.00016057        0.00007132        0.00011428
     236          0.255432        0.000000        0.00001271        0.00028982        0.00009962        0.00008518
     237          0.277395        0.000000        0.00020405        0.00041443        0.00493314        0.00024439
     238          0.282602        0.000000        0.00010698        0.00259397        0.00036998        0.00122861
     239          0.288867        0.000000        0.00037393        0.00270722        0.00092316        0.00276790
     240          0.290796        0.000000        0.00005055        0.00061407        0.00138208        0.00041827
     241          0.291296        0.000000        0.00043903        0.00392133        0.00166554        0.00463430
     242          0.294905        0.000000        0.00042059        0.00529569        0.00022248        0.00238986
     243          0.295907        0.000000        0.00125470        0.00891074        0.00209882        0.00630486
     244          0.298025        0.000000        0.00049823        0.00382728        0.00139100        0.00562911
     245          0.300158        0.000000        0.00018589        0.00135723        0.00332852        0.00106183
     246          0.300607        0.000000        0.00058782        0.00654168        0.00117355        0.00366027
     247          0.301599        0.000000        0.00054443        0.00595991        0.00055709        0.00606138
     248          0.301895        0.000000        0.00063540        0.00149825        0.00842843        0.00170089
     249          0.309107        0.000000        0.00051375        0.00907771        0.00038004        0.00378462
     250          0.336818        0.000000        0.00056681        0.00445940        0.00287883        0.00470402
     251          0.338310        0.000000        0.00065633        0.00805080        0.00046155        0.00449848
     252          0.344196        0.000000        0.00142708        0.00735587        0.00661603        0.00678412
     253          0.355480        0.000000        0.00062374        0.00518112        0.00115512        0.00712317
     254          0.446971        0.000000        0.00001490        0.00015428        0.00007073        0.00002343
     255          0.447405        0.000000        0.00001405        0.00021738        0.00003518        0.00029343
     256          0.449173        0.000000        0.00002869        0.00008017        0.00020260        0.00050587
     257          0.454124        0.000000        0.00002312        0.00043053        0.00037613        0.00015703
     258          0.457033        0.000000        0.00001425        0.00029732        0.00004054        0.00027160
     259          0.461496        0.000000        0.00002199        0.00071200        0.00008225        0.00062295