# Projected DOS for atomic kind N at iteration step i = 0, E(Fermi) =    -0.181050 a.u.
#     MO Eigenvalue [a.u.]      Occupation                 s                py                pz                px
       1         -0.970487        1.000000        0.61996179        0.00015193        0.00023203        0.00006375
       2         -0.969348        1.000000        0.62329561        0.00025928        0.00012575        0.00006221
       3         -0.960101        1.000000        0.61924098        0.00001362        0.00004618        0.00003906
       4         -0.947214        1.000000        0.61239186        0.00000903        0.00001447        0.00016069
       5         -0.939895        1.000000        0.61364394        0.00000466        0.00017894        0.00003712
       6         -0.935035        1.000000        0.61076071        0.00000045        0.00012760        0.00012113
       7         -0.931421        1.000000        0.61048356        0.00009475        0.00008953        0.00007451
       8         -0.702714        1.000000        0.01503298        0.00006603        0.02361617        0.21146050
       9         -0.702548        1.000000        0.01593743        0.00108045        0.00000227        0.20840052
      10         -0.696299        1.000000        0.01813309        0.00672615        0.06078471        0.14801529
      11         -0.687150        1.000000        0.01473337        0.00000836        0.02958954        0.17782647
      12         -0.680653        1.000000        0.01545396        0.00096383        0.03766090        0.16223541
      13         -0.678999        1.000000        0.01467391        0.00013563        0.04061211        0.17082894
      14         -0.678848        1.000000        0.01721939        0.00003859        0.01026565        0.18810838
      15         -0.631758        1.000000        0.00010280        0.00009638        0.00552774        0.00002964
      16         -0.600666        1.000000        0.00025064        0.08104697        0.23554196        0.00160660
      17         -0.598076        1.000000        0.00036743        0.03749811        0.06088115        0.00168791
      18         -0.597600        1.000000        0.00039020        0.03341273        0.02101178        0.00109748
      19         -0.596766        1.000000        0.00023212        0.42603415        0.14964390        0.01680367
      20         -0.595586        1.000000        0.00039903        0.03961445        0.04989806        0.00595126
      21         -0.593205        1.000000        0.00110608        0.02611120        0.01526343        0.00169687
      22         -0.591468        1.000000        0.00056582        0.13742059        0.01384651        0.00334689
      23         -0.590889        1.000000        0.00009814        0.40618255        0.02474816        0.00229053
      24         -0.589966        1.000000        0.00042302        0.26098870        0.00842806        0.00268787
      25         -0.588278        1.000000        0.00082228        0.08324215        0.01678426        0.00092912
      26         -0.584418        1.000000        0.00019664        0.13063803        0.23605441        0.00069409
      27         -0.583284        1.000000        0.00011022        0.02503649        0.03147581        0.00058230
      28         -0.582294        1.000000        0.00025263        0.02529861        0.01716845        0.00534522
      29         -0.580605        1.000000        0.00044070        0.11445678        0.01618320        0.00215908
      30         -0.580058        1.000000        0.00009382        0.04957796        0.02216456        0.00359628
      31         -0.578563        1.000000        0.00006412        0.02746123        0.00445594        0.00087118
      32         -0.577303        1.000000        0.00029643        0.02928226        0.09684327        0.02025992
      33         -0.576766        1.000000        0.00090331        0.10869302        0.27146368        0.05444118
      34         -0.576374        1.000000        0.00070975        0.07090700        0.17982358        0.04974083
      35         -0.574558        1.000000        0.00020387        0.01118696        0.02281017        0.00486201
      36         -0.574131        1.000000        0.00024251        0.00736145        0.10166075        0.05091210
      37         -0.573415        1.000000        0.00000670        0.00032798        0.00853097        0.00166818
      38         -0.572457        1.000000        0.00001343        0.00763271        0.00086280        0.00035968
      39         -0.572179        1.000000        0.00001797        0.00263084        0.00353504        0.00106542
      40         -0.571173        1.000000        0.00029258        0.00219094        0.11211252        0.02759468
      41         -0.569116        1.000000        0.00018034        0.02678005        0.02843967        0.00396541
      42         -0.567713        1.000000        0.00004720        0.00910376        0.00965858        0.00149914
      43         -0.567193        1.000000        0.00005486        0.00361408        0.04808078        0.00892428
      44         -0.566491        1.000000        0.00012997        0.01654753        0.14485728        0.03103272
      45         -0.566020        1.000000        0.00009085        0.03283500        0.08474718        0.01467999
      46         -0.565207        1.000000        0.00001616        0.00462323        0.01142946        0.00157078
      47         -0.564893        1.000000        0.00015960        0.06198461        0.18502984        0.02774947
      48         -0.564124        1.000000        0.00000783        0.00248673        0.00119182        0.00027871
      49         -0.563099        1.000000        0.00001135        0.00114214        0.01585685        0.00327553
      50         -0.562074        1.000000        0.00001001        0.00956642        0.00337834        0.00054274
      51         -0.561781        1.000000        0.00012259        0.04755066        0.07377724        0.01274749
      52         -0.560665        1.000000        0.00001178        0.00818372        0.01153207        0.00273445
      53         -0.560587        1.000000        0.00007692        0.01243270        0.03974680        0.01062856
      54         -0.560379        1.000000        0.00006719        0.06885583        0.03766124        0.00540732
      55         -0.558672        1.000000        0.00009831        0.25603972        0.05845762        0.00817399
      56         -0.558191        1.000000        0.00016790        0.13012292        0.27722817        0.04890465
      57         -0.557899        1.000000        0.00004759        0.00600161        0.00712442        0.00126077
      58         -0.556148        1.000000        0.00003228        0.03198158        0.01403483        0.00156381
      59         -0.554321        1.000000        0.00007992        0.36078482        0.10752406        0.03605414
      60         -0.549848        1.000000        0.00027193        0.04915229        0.38205953        0.07745613
      61         -0.549188        1.000000        0.00149871        0.19536804        0.22403692        0.01937542
      62         -0.547648        1.000000        0.00000049        0.00001300        0.00007528        0.00000099
      63         -0.545729        1.000000        0.00002769        0.44403630        0.02843046        0.01004078
      64         -0.537727        1.000000        0.00001195        0.27999083        0.15576570        0.01012468
      65         -0.490871        1.000000        0.00949262        0.00188814        0.01960188        0.38742169
      66         -0.487358        1.000000        0.00805558        0.00347097        0.00008945        0.42963043
      67         -0.481489        1.000000        0.00760427        0.01994564        0.14452552        0.25805379
      68         -0.470033        1.000000        0.00987389        0.00001625        0.04842481        0.36970126
      69         -0.465308        1.000000        0.00045059        0.00029984        0.00379901        0.01405611
      70         -0.463609        1.000000        0.00859422        0.00104388        0.06786657        0.33449268
      71         -0.460723        1.000000        0.00179675        0.00007111        0.00912637        0.05834779
      72         -0.460235        1.000000        0.00806651        0.00008126        0.02485738        0.36006029
      73         -0.459510        1.000000        0.00842443        0.00033891        0.05017421        0.23661753
      74         -0.457869        1.000000        0.00137166        0.00037758        0.00926122        0.05148269
      75         -0.456895        1.000000        0.00028810        0.00032836        0.00177550        0.01564067
      76         -0.454657        1.000000        0.00023208        0.00018475        0.00205949        0.01653622
      77         -0.452394        1.000000        0.00014604        0.00039717        0.00163500        0.01077822
      78         -0.450841        1.000000        0.00012008        0.00015726        0.00130559        0.00694637
      79         -0.446880        1.000000        0.00003225        0.00020706        0.00084746        0.00571399
      80         -0.416521        1.000000        0.00000399        0.02309585        0.00866591        0.00000207
      81         -0.415216        1.000000        0.00007044        0.00947318        0.02399447        0.00113599
      82         -0.411826        1.000000        0.00000890        0.01892454        0.01058190        0.00068640
      83         -0.410273        1.000000        0.00000079        0.03192078        0.00054210        0.00052174
      84         -0.408656        1.000000        0.00007609        0.01403750        0.02542872        0.00191936
      85         -0.407697        1.000000        0.00002149        0.00019790        0.02838482        0.01339856
      86         -0.401124        1.000000        0.00000146        0.00838908        0.02410454        0.00451535
      87         -0.400478        1.000000        0.00000105        0.02953581        0.00660397        0.00109773
      88         -0.395285        1.000000        0.00000174        0.03962930        0.00288671        0.00022430
      89         -0.394911        1.000000        0.00001860        0.01034576        0.02314647        0.00404005
      90         -0.394500        1.000000        0.00000569        0.02383568        0.01106484        0.00080259
      91         -0.393772        1.000000        0.00001021        0.00141025        0.03317840        0.00679669
      92         -0.393064        1.000000        0.00000350        0.00372670        0.03371774        0.00163165
      93         -0.391306        1.000000        0.00000189        0.03814637        0.00116599        0.00005190
      94         -0.309737        1.000000        0.00007257        0.00003053        0.00053272        0.00006897
      95         -0.281009        1.000000        0.00008275        0.00008086        0.00009798        0.00007296
      96         -0.277422        1.000000        0.00002636        0.00077720        0.00009964        0.00005806
      97         -0.276207        1.000000        0.00020293        0.00025552        0.00037199        0.00015056
      98         -0.275305        1.000000        0.00012617        0.00036545        0.00024114        0.00009108
      99         -0.274032        1.000000        0.00002413        0.00085391        0.00010420        0.00002619
     100         -0.273273        1.000000        0.00009037        0.00060644        0.00022499        0.00008051
     101         -0.269060        1.000000        0.00017107        0.00032988        0.00066666        0.00011335
     102         -0.268108        1.000000        0.00005410        0.00074643        0.00018923        0.00007388
     103         -0.266093        1.000000        0.00044148        0.00124851        0.00008421        0.00013161
     104         -0.264011        1.000000        0.00003904        0.00062661        0.00028693        0.00003865
     105         -0.261648        1.000000        0.00002605        0.00007674        0.00028507        0.00003535
     106         -0.258260        1.000000        0.00028902        0.00043413        0.00016438        0.00001955
     107         -0.251562        1.000000        0.00052586        0.00018470        0.00098404        0.00032304
     108         -0.250544        1.000000        0.00144433        0.00016244        0.00045435        0.00181169
     109         -0.248647        1.000000        0.00073208        0.00084472        0.00084404        0.00073780
     110         -0.246935        1.000000        0.00024208        0.00015488        0.00055697        0.00014321
     111         -0.244596        1.000000        0.00049706        0.00047610        0.00011547        0.00036876
     112         -0.242373        1.000000        0.00071252        0.00092772        0.00041809        0.00034902
     113         -0.241910        1.000000        0.00039805        0.00057946        0.00042009        0.00044987
     114         -0.239507        1.000000        0.00116896        0.00153146        0.00041128        0.00096521
     115         -0.238608        1.000000        0.00023577        0.00138225        0.00016176        0.00029432
     116         -0.236250        1.000000        0.00093838        0.00081315        0.00015848        0.00080352
     117         -0.234516        1.000000        0.00047560        0.00082198        0.00080572        0.00068581
     118         -0.231694        1.000000        0.00442979        0.00228502        0.00067483        0.00223628
     119         -0.230936        1.000000        0.00101732        0.00293474        0.00043347        0.00217565
     120         -0.228902        1.000000        0.00180176        0.00150028        0.00062519        0.00287470
     121         -0.227955        1.000000        0.00061340        0.00015387        0.00387474        0.00035241
     122         -0.225237        1.000000        0.00127516        0.00063859        0.00055558        0.00069860
     123         -0.223259        1.000000        0.00069362        0.00163471        0.00131951        0.00107845
     124         -0.221629        1.000000        0.00086417        0.00455105        0.00085396        0.00062565
     125         -0.220805        1.000000        0.00101327        0.00384842        0.00082569        0.00075039
     126         -0.220063        1.000000        0.00256236        0.00538563        0.00082859        0.00175584
     127         -0.218766        1.000000        0.00160022        0.00196667        0.00188515        0.00089811
     128         -0.217761        1.000000        0.00063486        0.00476016        0.00102843        0.00064856
     129         -0.216531        1.000000        0.00061954        0.00177911        0.00067477        0.00029677
     130         -0.215519        1.000000        0.00018381        0.00049021        0.00026961        0.00062337
     131         -0.214089        1.000000        0.00044635        0.00211266        0.00023263        0.00082437
     132         -0.213016        1.000000        0.00027761        0.00212549        0.00078384        0.00019792
     133         -0.212147        1.000000        0.00053624        0.00224441        0.00040339        0.00012533
     134         -0.211178        1.000000        0.00025621        0.00040539        0.00023913        0.00046306
     135         -0.210597        1.000000        0.00070236        0.00150516        0.00061556        0.00032468
     136         -0.210307        1.000000        0.00018411        0.00153842        0.00063608        0.00012774
     137         -0.209349        1.000000        0.00055204        0.00060471        0.00018524        0.00045280
     138         -0.208319        1.000000        0.00015681        0.00033359        0.00048253        0.00023714
     139         -0.207435        1.000000        0.00110884        0.00117706        0.00035612        0.00069362
     140         -0.207083        1.000000        0.00018812        0.00084961        0.00015904        0.00014931
     141         -0.205745        1.000000        0.00028282        0.00042176        0.00135882        0.00015361
     142         -0.204468        1.000000        0.00076257        0.00205522        0.00032882        0.00091775
     143         -0.204221        1.000000        0.00008836        0.00046977        0.00023858        0.00011264
     144         -0.202674        1.000000        0.00029214        0.00078425        0.00033297        0.00060599
     145         -0.201840        1.000000        0.00052273        0.00062246        0.00073840        0.00094432
     146         -0.201029        1.000000        0.00018942        0.00283584        0.00036977        0.00025012
     147         -0.199708        1.000000        0.00047283        0.00086306        0.00038115        0.00018731
     148         -0.198281        1.000000        0.00068472        0.00419919        0.00124436        0.00051998
     149         -0.197785        1.000000        0.00059325        0.00170132        0.00124401        0.00051251
     150         -0.196766        1.000000        0.00118085        0.00316456        0.01089025        0.00006092
     151         -0.196541        1.000000        0.00046058        0.00119116        0.00039650        0.00051965
     152         -0.196098        1.000000        0.00050565        0.00009845        0.00154943        0.00037636
     153         -0.195612        1.000000        0.00032868        0.00123539        0.00202325        0.00058831
     154         -0.195201        1.000000        0.00037310        0.00083167        0.00019604        0.00022366
     155         -0.194645        1.000000        0.00019805        0.00096922        0.00038277        0.00010810
     156         -0.194404        1.000000        0.00030946        0.00021934        0.00013038        0.00004484
     157         -0.194013        1.000000        0.00010296        0.00033401        0.00040938        0.00027353
     158         -0.193602        1.000000        0.00007374        0.00044892        0.00015436        0.00019493
     159         -0.193023        1.000000        0.00015184        0.00087461        0.00072545        0.00038913
     160         -0.192898        1.000000        0.00008563        0.00160910        0.00009269        0.00017628
     161         -0.192598        1.000000        0.00022088        0.00061592        0.00015704        0.00037184
     162         -0.192423        1.000000        0.00005184        0.00034293        0.00007292        0.00012134
     163         -0.191892        1.000000        0.00005918        0.00013457        0.00013939        0.00016865
     164         -0.191300        1.000000        0.00033820        0.00032616        0.00094723        0.00015247
     165         -0.190937        1.000000        0.00010865        0.00011806        0.00039195        0.00003383
     166         -0.190180        1.000000        0.00040087        0.00102161        0.00078917        0.00008593
     167         -0.189729        1.000000        0.00013134        0.00024740        0.00066596        0.00013360
     168         -0.189331        1.000000        0.00016085        0.00019859        0.00027776        0.00025675
     169         -0.189153        1.000000        0.00021931        0.00024830        0.00107685        0.00017455
     170         -0.188695        1.000000        0.00011163        0.00014797        0.00009090        0.00002217
     171         -0.188070        1.000000        0.00025196        0.00102357        0.00020349        0.00036787
     172         -0.187763        1.000000        0.00038399        0.00041310        0.00029324        0.00019920
     173         -0.187507        1.000000        0.00052563        0.00018611        0.00009802        0.00028235
     174         -0.186782        1.000000        0.00022656        0.00029946        0.00008078        0.00005142
     175         -0.186384        1.000000        0.00014092        0.00019207        0.00010998        0.00010148
     176         -0.186141        1.000000        0.00002248        0.00006424        0.00003360        0.00005053
     177         -0.185765        1.000000        0.00003677        0.00019021        0.00005900        0.00009155
     178         -0.185635        1.000000        0.00005045        0.00004677        0.00004884        0.00003274
     179         -0.185458        1.000000        0.00030670        0.00171526        0.00025153        0.00038012
     180         -0.185256        1.000000        0.00004459        0.00020432        0.00013804        0.00003634
     181         -0.185123        1.000000        0.00001033        0.00028225        0.00022901        0.00003416
     182         -0.184925        1.000000        0.00005586        0.00007966        0.00012095        0.00007301
     183         -0.183990        1.000000        0.00002053        0.00019979        0.00001796        0.00004628
     184         -0.183834        1.000000        0.00006294        0.00019323        0.00005957        0.00003021
     185         -0.183721        1.000000        0.00007058        0.00011869        0.00009623        0.00016140
     186         -0.183045        1.000000        0.00002141        0.00012211        0.00013102        0.00011123
     187         -0.182989        1.000000        0.00008020        0.00015199        0.00005910        0.00026024
     188         -0.182631        1.000000        0.00008827        0.00007320        0.00011764        0.00006746
     189         -0.182148        1.000000        0.00007663        0.00008449        0.00001296        0.00009976
     190         -0.181966        1.000000        0.00001762        0.00005047        0.00003938        0.00005349
     191         -0.181879        1.000000        0.00001780        0.00007226        0.00005738        0.00004316
     192         -0.181752        1.000000        0.00008735        0.00010125        0.00007779        0.00004194
     193         -0.181530        1.000000        0.00005620        0.00016279        0.00006416        0.00003400
     194         -0.181503        1.000000        0.00002728        0.00003999        0.00007602        0.00008962
     195         -0.181050        1.000000        0.00001455        0.00014732        0.00003154        0.00007606
     196         -0.180997        0.000000        0.00001249        0.00016144        0.00001532        0.00007676
     197         -0.180624        0.000000        0.00002931        0.00017996        0.00003877        0.00008123
     198         -0.180319        0.000000        0.00001196        0.00003071        0.00010730        0.00011270
     199         -0.179955        0.000000        0.00004739        0.00008235        0.00018623        0.00003689
     200         -0.179197        0.000000        0.00000531        0.00008471        0.00005168        0.00003502
     201         -0.175047        0.000000        0.00000560        0.00003477        0.00001227        0.00003033
     202         -0.092100        0.000000        0.00002084        0.00002078        0.00002430        0.00002408
     203         -0.072478        0.000000        0.00015473        0.00004461        0.00012489        0.00008319
     204         -0.060444        0.000000        0.00009305        0.00005347        0.00009430        0.00003157
     205         -0.056125        0.000000        0.00004334        0.00003044        0.00001939        0.00007172
     206         -0.053815        0.000000        0.00014531        0.00015413        0.00006487        0.00001556
     207         -0.053235        0.000000        0.00003500        0.00004520        0.00000845        0.00001249
     208         -0.051746        0.000000        0.00002107        0.00011565        0.00003256        0.00000557
     209         -0.048188        0.000000        0.00005457        0.00009242        0.00003751        0.00003770
     210         -0.047622        0.000000        0.00002936        0.00008992        0.00002261        0.00003907
     211         -0.046035        0.000000        0.00003599        0.00005781        0.00003108        0.00003928
     212         -0.042411        0.000000        0.00006065        0.00006343        0.00005928        0.00002084
     213         -0.040581        0.000000        0.00014007        0.00010961        0.00003191        0.00010181
     214         -0.033940        0.000000        0.00003804        0.00005160        0.00005041        0.00001742
     215         -0.028124        0.000000        0.00004619        0.00007817        0.00008857        0.00001204
     216         -0.025123        0.000000        0.00003946        0.00005116        0.00000982        0.00005124
     217         -0.024235        0.000000        0.00002884        0.00003435        0.00000839        0.00002441
     218         -0.023504        0.000000        0.00009778        0.00001349        0.00001022        0.00001064
     219         -0.020342        0.000000        0.00009165        0.00023921        0.00006985        0.00002303
     220         -0.017567        0.000000        0.00012462        0.00020348        0.00004031        0.00002160
     221         -0.014394        0.000000        0.00004293        0.00006918        0.00007091        0.00004307
     222         -0.009601        0.000000        0.00013750        0.00002846        0.00002221        0.00004478
     223         -0.007752        0.000000        0.00001347        0.00020682        0.00000703        0.00001821
     224         -0.005612        0.000000        0.00004344        0.00005328        0.00001267        0.00003904
     225         -0.002039        0.000000        0.00004051        0.00002609        0.00001636        0.00001483
     226          0.079913        0.000000        0.10443667        0.00012603        0.00172365        0.24669003
     227          0.101052        0.000000        0.11286748        0.01009498        0.06314974        0.17177451
     228          0.102677        0.000000        0.13926859        0.00097793        0.02741018        0.18610052
     229          0.110137        0.000000        0.10296631        0.00060346        0.04535579        0.21294620
     230          0.112170        0.000000        0.10670738        0.00002827        0.03078679        0.22237852
     231          0.121425        0.000000        0.10949043        0.00018643        0.01665738        0.23962451
     232          0.122398        0.000000        0.11460647        0.00027627        0.04360067        0.20227462
     233          0.154620        0.000000        0.02691806        0.09012526        0.12091319        0.09625312
     234          0.190685        0.000000        0.04753237        0.03469146        0.23176220        0.02326367
     235          0.202930        0.000000        0.04548447        0.17261800        0.09059548        0.02824918
     236          0.255281        0.000000        0.03638924        0.12116621        0.17443962        0.00111333
     237          0.277238        0.000000        0.00550431        0.09290255        0.22654011        0.00003859
     238          0.282469        0.000000        0.01340630        0.26655897        0.03173568        0.01353841
     239          0.288735        0.000000        0.00064743        0.22069432        0.08756474        0.01381517
     240          0.290634        0.000000        0.14153392        0.11669087        0.01356012        0.06876131
     241          0.291156        0.000000        0.00241102        0.09881267        0.19353113        0.02436308
     242          0.294762        0.000000        0.00014765        0.02699070        0.23824552        0.05693398
     243          0.295774        0.000000        0.00311935        0.30284755        0.00524505        0.00197329
     244          0.297890        0.000000        0.00023268        0.07661739        0.19451303        0.04691977
     245          0.299995        0.000000        0.17696014        0.07861855        0.01371802        0.07058359
     246          0.300462        0.000000        0.01464564        0.24965810        0.04334782        0.01074491
     247          0.301475        0.000000        0.00028318        0.23843467        0.06617488        0.01124277
     248          0.301727        0.000000        0.00032375        0.02656961        0.27112072        0.02149658
     249          0.308977        0.000000        0.17148584        0.01471852        0.01022181        0.13511792
     250          0.336672        0.000000        0.24318198        0.00018968        0.01275533        0.09388867
     251          0.338169        0.000000        0.24573501        0.00012293        0.02387993        0.07821961
     252          0.344043        0.000000        0.23271826        0.00219235        0.00665139        0.10009060
     253          0.355343        0.000000        0.23389959        0.00005793        0.02355055        0.09466677
     254          0.446846        0.000000        0.00017576        0.02112506        0.00274324        0.00041377
     255          0.447278        0.000000        0.00074186        0.00015584        0.01106196        0.00800975
     256          0.448999        0.000000        0.00004932        0.00112788        0.01630723        0.00019141
     257          0.453996        0.000000        0.00036923        0.00555681        0.00997662        0.00005433
     258          0.456903        0.000000        0.00004397        0.02400129        0.00067308        0.00059497
     259          0.461357        0.000000        0.00032709        0.01633940        0.00635527        0.00075578