# Projected DOS for atomic kind H at iteration step i = 0, E(Fermi) =    -0.181050 a.u.
#     MO Eigenvalue [a.u.]      Occupation                 s
       1         -0.970487        1.000000        0.27646272
       2         -0.969348        1.000000        0.26652667
       3         -0.960101        1.000000        0.26956752
       4         -0.947214        1.000000        0.28181458
       5         -0.939895        1.000000        0.28126848
       6         -0.935035        1.000000        0.28153971
       7         -0.931421        1.000000        0.27768636
       8         -0.702714        1.000000        0.32655108
       9         -0.702548        1.000000        0.33465668
      10         -0.696299        1.000000        0.33416533
      11         -0.687150        1.000000        0.33902203
      12         -0.680653        1.000000        0.34117254
      13         -0.678999        1.000000        0.33815872
      14         -0.678848        1.000000        0.34476833
      15         -0.631758        1.000000        0.00428035
      16         -0.600666        1.000000        0.17914206
      17         -0.598076        1.000000        0.06034425
      18         -0.597600        1.000000        0.03726978
      19         -0.596766        1.000000        0.31770473
      20         -0.595586        1.000000        0.05768236
      21         -0.593205        1.000000        0.02731656
      22         -0.591468        1.000000        0.08561599
      23         -0.590889        1.000000        0.24018487
      24         -0.589966        1.000000        0.14676203
      25         -0.588278        1.000000        0.06999740
      26         -0.584418        1.000000        0.19339791
      27         -0.583284        1.000000        0.03338879
      28         -0.582294        1.000000        0.03313783
      29         -0.580605        1.000000        0.08538759
      30         -0.580058        1.000000        0.05190060
      31         -0.578563        1.000000        0.02176648
      32         -0.577303        1.000000        0.08374829
      33         -0.576766        1.000000        0.23312695
      34         -0.576374        1.000000        0.16382564
      35         -0.574558        1.000000        0.02487386
      36         -0.574131        1.000000        0.09037597
      37         -0.573415        1.000000        0.00629932
      38         -0.572457        1.000000        0.00606173
      39         -0.572179        1.000000        0.00446503
      40         -0.571173        1.000000        0.08419061
      41         -0.569116        1.000000        0.03517379
      42         -0.567713        1.000000        0.01127693
      43         -0.567193        1.000000        0.03413780
      44         -0.566491        1.000000        0.10370374
      45         -0.566020        1.000000        0.07453064
      46         -0.565207        1.000000        0.00980759
      47         -0.564893        1.000000        0.14768868
      48         -0.564124        1.000000        0.00223308
      49         -0.563099        1.000000        0.01110940
      50         -0.562074        1.000000        0.00720329
      51         -0.561781        1.000000        0.06956712
      52         -0.560665        1.000000        0.01143895
      53         -0.560587        1.000000        0.02862944
      54         -0.560379        1.000000        0.05793214
      55         -0.558672        1.000000        0.16307462
      56         -0.558191        1.000000        0.24084753
      57         -0.557899        1.000000        0.00788137
      58         -0.556148        1.000000        0.02421603
      59         -0.554321        1.000000        0.26022358
      60         -0.549848        1.000000        0.26483886
      61         -0.549188        1.000000        0.22922894
      62         -0.547648        1.000000        0.00004896
      63         -0.545729        1.000000        0.24482799
      64         -0.537727        1.000000        0.22006296
      65         -0.490871        1.000000        0.20340315
      66         -0.487358        1.000000        0.18770924
      67         -0.481489        1.000000        0.19196566
      68         -0.470033        1.000000        0.18264895
      69         -0.465308        1.000000        0.00824417
      70         -0.463609        1.000000        0.17048751
      71         -0.460723        1.000000        0.03048097
      72         -0.460235        1.000000        0.16549439
      73         -0.459510        1.000000        0.13176990
      74         -0.457869        1.000000        0.02672744
      75         -0.456895        1.000000        0.00744178
      76         -0.454657        1.000000        0.00740667
      77         -0.452394        1.000000        0.00521465
      78         -0.450841        1.000000        0.00348891
      79         -0.446880        1.000000        0.00256432
      80         -0.416521        1.000000        0.41853646
      81         -0.415216        1.000000        0.41769197
      82         -0.411826        1.000000        0.41745965
      83         -0.410273        1.000000        0.42021773
      84         -0.408656        1.000000        0.42299731
      85         -0.407697        1.000000        0.42303523
      86         -0.401124        1.000000        0.42121976
      87         -0.400478        1.000000        0.42053473
      88         -0.395285        1.000000        0.42344404
      89         -0.394911        1.000000        0.42176051
      90         -0.394500        1.000000        0.42123417
      91         -0.393772        1.000000        0.42583664
      92         -0.393064        1.000000        0.42145488
      93         -0.391306        1.000000        0.42058056
      94         -0.309737        1.000000        0.00038659
      95         -0.281009        1.000000        0.00029894
      96         -0.277422        1.000000        0.00036730
      97         -0.276207        1.000000        0.00068711
      98         -0.275305        1.000000        0.00043882
      99         -0.274032        1.000000        0.00040846
     100         -0.273273        1.000000        0.00033331
     101         -0.269060        1.000000        0.00039030
     102         -0.268108        1.000000        0.00030519
     103         -0.266093        1.000000        0.00042766
     104         -0.264011        1.000000        0.00042486
     105         -0.261648        1.000000        0.00020215
     106         -0.258260        1.000000        0.00039800
     107         -0.251562        1.000000        0.00042839
     108         -0.250544        1.000000        0.00110699
     109         -0.248647        1.000000        0.00073974
     110         -0.246935        1.000000        0.00028866
     111         -0.244596        1.000000        0.00054307
     112         -0.242373        1.000000        0.00046529
     113         -0.241910        1.000000        0.00055381
     114         -0.239507        1.000000        0.00063604
     115         -0.238608        1.000000        0.00049460
     116         -0.236250        1.000000        0.00096110
     117         -0.234516        1.000000        0.00057912
     118         -0.231694        1.000000        0.00212880
     119         -0.230936        1.000000        0.00117288
     120         -0.228902        1.000000        0.00146216
     121         -0.227955        1.000000        0.00100075
     122         -0.225237        1.000000        0.00088806
     123         -0.223259        1.000000        0.00107258
     124         -0.221629        1.000000        0.00139541
     125         -0.220805        1.000000        0.00126469
     126         -0.220063        1.000000        0.00251076
     127         -0.218766        1.000000        0.00141810
     128         -0.217761        1.000000        0.00106417
     129         -0.216531        1.000000        0.00124247
     130         -0.215519        1.000000        0.00058062
     131         -0.214089        1.000000        0.00100168
     132         -0.213016        1.000000        0.00084408
     133         -0.212147        1.000000        0.00103089
     134         -0.211178        1.000000        0.00065476
     135         -0.210597        1.000000        0.00101253
     136         -0.210307        1.000000        0.00051967
     137         -0.209349        1.000000        0.00063346
     138         -0.208319        1.000000        0.00058612
     139         -0.207435        1.000000        0.00125535
     140         -0.207083        1.000000        0.00046670
     141         -0.205745        1.000000        0.00054220
     142         -0.204468        1.000000        0.00116241
     143         -0.204221        1.000000        0.00025923
     144         -0.202674        1.000000        0.00063784
     145         -0.201840        1.000000        0.00094157
     146         -0.201029        1.000000        0.00071139
     147         -0.199708        1.000000        0.00069642
     148         -0.198281        1.000000        0.00135188
     149         -0.197785        1.000000        0.00098331
     150         -0.196766        1.000000        0.00264731
     151         -0.196541        1.000000        0.00075792
     152         -0.196098        1.000000        0.00069293
     153         -0.195612        1.000000        0.00087243
     154         -0.195201        1.000000        0.00049776
     155         -0.194645        1.000000        0.00053083
     156         -0.194404        1.000000        0.00038447
     157         -0.194013        1.000000        0.00041783
     158         -0.193602        1.000000        0.00026428
     159         -0.193023        1.000000        0.00055388
     160         -0.192898        1.000000        0.00052390
     161         -0.192598        1.000000        0.00035728
     162         -0.192423        1.000000        0.00024212
     163         -0.191892        1.000000        0.00022812
     164         -0.191300        1.000000        0.00060435
     165         -0.190937        1.000000        0.00029688
     166         -0.190180        1.000000        0.00075922
     167         -0.189729        1.000000        0.00036311
     168         -0.189331        1.000000        0.00040948
     169         -0.189153        1.000000        0.00045338
     170         -0.188695        1.000000        0.00033291
     171         -0.188070        1.000000        0.00066986
     172         -0.187763        1.000000        0.00056795
     173         -0.187507        1.000000        0.00069414
     174         -0.186782        1.000000        0.00026285
     175         -0.186384        1.000000        0.00021855
     176         -0.186141        1.000000        0.00014042
     177         -0.185765        1.000000        0.00020014
     178         -0.185635        1.000000        0.00021466
     179         -0.185458        1.000000        0.00062201
     180         -0.185256        1.000000        0.00013325
     181         -0.185123        1.000000        0.00016525
     182         -0.184925        1.000000        0.00018261
     183         -0.183990        1.000000        0.00010300
     184         -0.183834        1.000000        0.00021233
     185         -0.183721        1.000000        0.00015899
     186         -0.183045        1.000000        0.00019290
     187         -0.182989        1.000000        0.00019259
     188         -0.182631        1.000000        0.00021701
     189         -0.182148        1.000000        0.00014354
     190         -0.181966        1.000000        0.00007370
     191         -0.181879        1.000000        0.00006733
     192         -0.181752        1.000000        0.00014908
     193         -0.181530        1.000000        0.00011841
     194         -0.181503        1.000000        0.00012980
     195         -0.181050        1.000000        0.00011756
     196         -0.180997        0.000000        0.00011715
     197         -0.180624        0.000000        0.00007817
     198         -0.180319        0.000000        0.00012380
     199         -0.179955        0.000000        0.00020220
     200         -0.179197        0.000000        0.00009281
     201         -0.175047        0.000000        0.00004999
     202         -0.092100        0.000000        0.00006360
     203         -0.072478        0.000000        0.00026679
     204         -0.060444        0.000000        0.00016221
     205         -0.056125        0.000000        0.00010799
     206         -0.053815        0.000000        0.00029747
     207         -0.053235        0.000000        0.00008632
     208         -0.051746        0.000000        0.00013670
     209         -0.048188        0.000000        0.00025807
     210         -0.047622        0.000000        0.00011531
     211         -0.046035        0.000000        0.00014114
     212         -0.042411        0.000000        0.00015469
     213         -0.040581        0.000000        0.00021985
     214         -0.033940        0.000000        0.00016508
     215         -0.028124        0.000000        0.00013642
     216         -0.025123        0.000000        0.00009831
     217         -0.024235        0.000000        0.00008092
     218         -0.023504        0.000000        0.00014920
     219         -0.020342        0.000000        0.00028548
     220         -0.017567        0.000000        0.00029689
     221         -0.014394        0.000000        0.00014766
     222         -0.009601        0.000000        0.00011565
     223         -0.007752        0.000000        0.00018009
     224         -0.005612        0.000000        0.00007914
     225         -0.002039        0.000000        0.00006535
     226          0.079913        0.000000        0.00917893
     227          0.101052        0.000000        0.00703069
     228          0.102677        0.000000        0.02233213
     229          0.110137        0.000000        0.00325442
     230          0.112170        0.000000        0.00451157
     231          0.121425        0.000000        0.00487544
     232          0.122398        0.000000        0.00679252
     233          0.154620        0.000000        0.64923660
     234          0.190685        0.000000        0.65733216
     235          0.202930        0.000000        0.65461887
     236          0.255281        0.000000        0.66050083
     237          0.277238        0.000000        0.66217554
     238          0.282469        0.000000        0.66274302
     239          0.288735        0.000000        0.66468510
     240          0.290634        0.000000        0.64928921
     241          0.291156        0.000000        0.66329942
     242          0.294762        0.000000        0.66360011
     243          0.295774        0.000000        0.66094553
     244          0.297890        0.000000        0.66454271
     245          0.299995        0.000000        0.64744436
     246          0.300462        0.000000        0.66181627
     247          0.301475        0.000000        0.66408663
     248          0.301727        0.000000        0.66062248
     249          0.308977        0.000000        0.64678428
     250          0.336672        0.000000        0.63171258
     251          0.338169        0.000000        0.63283812
     252          0.344043        0.000000        0.62911891
     253          0.355343        0.000000        0.62622653
     254          0.446846        0.000000        0.58537180
     255          0.447278        0.000000        0.58698093
     256          0.448999        0.000000        0.58919004
     257          0.453996        0.000000        0.58945866
     258          0.456903        0.000000        0.58378122
     259          0.461357        0.000000        0.58594167
     260          0.468273        0.000000        0.58149060
     261          0.469652        0.000000        0.58169287
     262          0.469767        0.000000        0.58270275
     263          0.470567        0.000000        0.58189015
     264          0.472370        0.000000        0.58468170
     265          0.476803        0.000000        0.58026278
     266          0.477712        0.000000        0.57989466
     267          0.481942        0.000000        0.58334761
     268          0.550883        0.000000        0.55427939
     269          0.553048        0.000000        0.55319908
     270          0.565854        0.000000        0.55163685
     271          0.569275        0.000000        0.55197070
     272          0.570573        0.000000        0.55241060
     273          0.571771        0.000000        0.55323086
     274          0.572127        0.000000        0.55167642
