100
Lattice="31.7900009155 0.0 0.0 0.0 31.0900001526 0.0 0.0 0.0 30.3899993896" Properties=species:S:1:pos:R:3 i=260 E=-3254.1027610862 pbc="F F F"
I       12.57292921      12.25686987       8.83313557
I       18.73039657      12.69354659       8.85096568
I       12.07169322      18.24467312       9.02213187
I       18.87606375      18.04975612       8.67742189
I       11.97040000       9.19033282      12.17401246
I       19.53160444       9.22410344      11.84052892
I        9.27439855      12.57025792      11.90473680
I       12.34853890      12.43114304      15.10550627
I       12.61515428      15.35178112      11.92892708
I       15.52696891      11.85312222      12.10398773
I       18.62013658      12.17468547      15.19083327
I       18.24646127      15.43329498      12.28108187
I       22.12103093      13.03494503      11.92025442
I        9.11312614      18.61651818      12.37395519
I       12.53587235      18.23784960      15.25870390
I       12.12521779      22.10721019      12.28359021
I       15.55759026      18.75203962      11.88353447
I       18.91100219      18.59533737      15.06846486
I       19.15541636      22.10105984      11.38176807
I       21.98317774      18.52785515      11.51762526
I       12.75959452       8.76913116      18.07211044
I       17.31544382       8.70283637      18.10445684
I        9.32393874      12.64474308      18.29288389
I       12.55867872      11.79036866      21.48489663
I       13.19933844      14.91901973      18.37118948
I       16.07979393      11.48739982      18.57106264
I       19.32205092      12.41604215      21.59894290
I       18.64061640      15.42194201      18.44372240
I       22.46066312      12.81782227      17.92089601
I        9.52341476      18.60418520      18.17650784
I       12.62819129      18.59807671      21.06181441
I       12.24129152      24.40166367      17.86847595
I       15.48113414      18.42185464      17.84152561
I       18.77999019      18.41739611      21.55418182
I       17.86869331      22.18726812      18.64806802
I       21.85750073      19.08131602      18.30685680
Pb      12.42774348      12.18470323      11.88749726
Pb      19.15741939      12.45115572      11.85872068
Pb      12.17636333      18.95034795      12.08659972
Pb      18.82083940      18.88726044      11.70921401
Pb      12.29677338      11.97864098      18.43367162
Pb      19.41868475      12.52739675      18.48152262
Pb      12.42337973      19.73646895      18.23541351
Pb      18.76299878      19.08273415      18.59895545
C       15.03149269      15.49569741       8.53136639
C       15.08246539       8.46671072      14.44774574
C        8.97159865      15.23299894      14.97823163
C       15.23992606      15.22637300      14.93263039
C       21.50577352      15.48047451      15.02747979
C       15.45869457      21.28880132      14.99263653
C       15.52860415      15.24407455      21.38890733
N       16.44211165      15.45174334       9.18096976
N       16.63925290       8.30256703      14.42778111
N       10.38740000      15.33816446      15.63030449
N       16.68723606      15.22589440      15.50309932
N       22.98586445      15.53964204      15.44671919
N       16.96417370      21.28724886      15.38302748
N       16.76689439      15.54603426      22.27200517
H       15.18219416      15.52281892       7.47839514
H       14.54157743      16.37327077       8.87747865
H       14.51312452      14.62037780       8.83467075
H       17.04352052      16.26281056       8.89129048
H       16.96638246      14.57944649       8.92999927
H       16.39725733      15.48495512      10.21919241
H       14.74515383       8.43331364      13.43718348
H       14.84602882       9.40307691      14.89045090
H       14.65720805       7.67327768      15.01718589
H       17.07089282       9.16729662      14.07625841
H       16.95971770       7.46269825      13.80269698
H       16.94956400       8.13991136      15.40352577
H        9.09682177      15.29847212      13.92526425
H        8.36440763      16.02980930      15.33954027
H        8.55195553      14.29427103      15.24780014
H       10.86749073      16.23256991      15.36910790
H       10.98541998      14.52628237      15.33195520
H       10.31165188      15.29814691      16.66343078
H       15.30587201      15.15500077      13.87452629
H       14.76950950      16.13395334      15.22473570
H       14.73095497      14.38809974      15.33927868
H       17.25926234      15.96568194      15.04536081
H       17.15992449      14.30770932      15.32189191
H       16.70835907      15.39664750      16.53071022
H       21.47401884      15.17942192      14.00752675
H       21.07714574      16.44212363      15.15150917
H       21.00226445      14.77292970      15.63976779
H       23.58307027      16.15555492      14.69707348
H       23.40964230      14.60224620      15.45725981
H       23.11709393      15.98639768      16.38924348
H       15.38743137      21.07486157      13.95282927
H       15.05349181      22.24432994      15.22201349
H       14.97453485      20.52397437      15.55350607
H       17.50471716      21.94744238      14.79382825
H       17.39661853      20.32293954      15.24381623
H       17.10440689      21.54888636      16.39962171
H       15.86956931      14.92819802      20.42499698
H       14.94564871      16.13196866      21.31172307
H       14.97234173      14.46632766      21.85574800
H       17.39906754      16.21017547      21.78010629
H       17.28938800      14.67822525      22.49406488
H       16.44452602      16.05918054      23.20264214
