# Projected DOS for atomic kind N at iteration step i = 0, E(Fermi) =    -0.180419 a.u.
#     MO Eigenvalue [a.u.]      Occupation                 s                py                pz                px
       1         -0.970340        1.000000        0.62002673        0.00015194        0.00023189        0.00006411
       2         -0.969203        1.000000        0.62336526        0.00025983        0.00012629        0.00006237
       3         -0.959967        1.000000        0.61929355        0.00001360        0.00004606        0.00003943
       4         -0.947088        1.000000        0.61244402        0.00000902        0.00001448        0.00016099
       5         -0.939761        1.000000        0.61368663        0.00000472        0.00017904        0.00003741
       6         -0.934889        1.000000        0.61081099        0.00000044        0.00012746        0.00012198
       7         -0.931287        1.000000        0.61053338        0.00009496        0.00009005        0.00007468
       8         -0.702552        1.000000        0.01502829        0.00006627        0.02362045        0.21145732
       9         -0.702387        1.000000        0.01593091        0.00107854        0.00000232        0.20841824
      10         -0.696161        1.000000        0.01812514        0.00672626        0.06077784        0.14800943
      11         -0.687025        1.000000        0.01473264        0.00000834        0.02957648        0.17780727
      12         -0.680511        1.000000        0.01544877        0.00096198        0.03765876        0.16223577
      13         -0.678835        1.000000        0.01466370        0.00013522        0.04058275        0.17087945
      14         -0.678713        1.000000        0.01722111        0.00003881        0.01025688        0.18810755
      15         -0.630785        1.000000        0.00010336        0.00010274        0.00577659        0.00003032
      16         -0.600217        1.000000        0.00023384        0.08919441        0.24959092        0.00168373
      17         -0.597538        1.000000        0.00029944        0.03984676        0.05232823        0.00161166
      18         -0.597350        1.000000        0.00044532        0.03202833        0.02624532        0.00127478
      19         -0.596587        1.000000        0.00023107        0.42592967        0.14963609        0.01678933
      20         -0.595270        1.000000        0.00039813        0.03793437        0.04930808        0.00605236
      21         -0.592822        1.000000        0.00116972        0.02216889        0.01812778        0.00196753
      22         -0.591024        1.000000        0.00052691        0.15206706        0.01040037        0.00312039
      23         -0.590607        1.000000        0.00007979        0.42149620        0.02556737        0.00258271
      24         -0.589488        1.000000        0.00046726        0.25408280        0.01019535        0.00249732
      25         -0.587851        1.000000        0.00082560        0.08107174        0.01721087        0.00094491
      26         -0.583948        1.000000        0.00015240        0.11171164        0.21191882        0.00068764
      27         -0.583008        1.000000        0.00011729        0.02354646        0.04523280        0.00058556
      28         -0.581592        1.000000        0.00025109        0.02709951        0.01802241        0.00569133
      29         -0.580143        1.000000        0.00041654        0.10552280        0.01816197        0.00289361
      30         -0.579619        1.000000        0.00008832        0.06304828        0.02120519        0.00257680
      31         -0.578046        1.000000        0.00005310        0.02955618        0.00550188        0.00092160
      32         -0.576909        1.000000        0.00030907        0.03611355        0.10896693        0.01889088
      33         -0.576465        1.000000        0.00094387        0.11661337        0.29867812        0.04696604
      34         -0.576025        1.000000        0.00065272        0.05541501        0.15037842        0.06506181
      35         -0.573789        1.000000        0.00025488        0.00716074        0.07468409        0.03465438
      36         -0.573675        1.000000        0.00023985        0.01374500        0.06023610        0.02201632
      37         -0.573063        1.000000        0.00001381        0.00051764        0.00738699        0.00146416
      38         -0.572165        1.000000        0.00000894        0.00533506        0.00100506        0.00026480
      39         -0.571789        1.000000        0.00003048        0.00616624        0.00449282        0.00144741
      40         -0.571018        1.000000        0.00030646        0.00200289        0.10067261        0.02199117
      41         -0.568288        1.000000        0.00018562        0.02730820        0.03361988        0.00489537
      42         -0.567230        1.000000        0.00008619        0.00991985        0.03918290        0.00675189
      43         -0.566721        1.000000        0.00001145        0.00207392        0.02112102        0.00448543
      44         -0.565843        1.000000        0.00010251        0.01992976        0.14409528        0.03265040
      45         -0.565133        1.000000        0.00001293        0.06743753        0.22229375        0.03432674
      46         -0.564432        1.000000        0.00001973        0.00204552        0.00117024        0.00056154
      47         -0.564211        1.000000        0.00015558        0.02746210        0.05475840        0.00885036
      48         -0.563921        1.000000        0.00008166        0.01277635        0.01665263        0.00262123
      49         -0.562550        1.000000        0.00001339        0.00128852        0.01672902        0.00339770
      50         -0.561314        1.000000        0.00003752        0.01841205        0.01829072        0.00296129
      51         -0.561193        1.000000        0.00009940        0.03514756        0.04766092        0.00870719
      52         -0.559549        1.000000        0.00000827        0.01578913        0.02085552        0.00408358
      53         -0.559390        1.000000        0.00008924        0.01979879        0.03600916        0.00871205
      54         -0.559341        1.000000        0.00007548        0.19071079        0.05805342        0.00844586
      55         -0.557918        1.000000        0.00015118        0.11845138        0.24217614        0.04222110
      56         -0.557783        1.000000        0.00010318        0.13071180        0.05278916        0.00869549
      57         -0.557312        1.000000        0.00004744        0.00393534        0.00287490        0.00045999
      58         -0.555329        1.000000        0.00003152        0.02745246        0.01331374        0.00148974
      59         -0.554063        1.000000        0.00008206        0.35706697        0.10694327        0.03580909
      60         -0.549561        1.000000        0.00035230        0.05783016        0.36882290        0.07304364
      61         -0.549073        1.000000        0.00142237        0.18218965        0.23629192        0.02259022
      62         -0.546932        1.000000        0.00000026        0.00000336        0.00004724        0.00000028
      63         -0.545270        1.000000        0.00003186        0.43332116        0.02845047        0.00993687
      64         -0.537611        1.000000        0.00001283        0.28334952        0.15420809        0.00997685
      65         -0.490722        1.000000        0.00948886        0.00189441        0.01958216        0.38749721
      66         -0.487211        1.000000        0.00805537        0.00346716        0.00008897        0.42968281
      67         -0.481362        1.000000        0.00760359        0.01995233        0.14458447        0.25809295
      68         -0.469921        1.000000        0.00986877        0.00001631        0.04845658        0.36979437
      69         -0.465166        1.000000        0.00053735        0.00033132        0.00446777        0.01684316
      70         -0.463457        1.000000        0.00851358        0.00101486        0.06724941        0.33216104
      71         -0.460468        1.000000        0.00231346        0.00006614        0.01148427        0.07685791
      72         -0.460101        1.000000        0.00795812        0.00008163        0.02485697        0.35414089
      73         -0.459336        1.000000        0.00806869        0.00034758        0.04812216        0.22597988
      74         -0.457619        1.000000        0.00142237        0.00040926        0.00949638        0.05444821
      75         -0.456451        1.000000        0.00020869        0.00032914        0.00129429        0.01177498
      76         -0.454306        1.000000        0.00021310        0.00015705        0.00201880        0.01564808
      77         -0.452184        1.000000        0.00013737        0.00040073        0.00156675        0.01030161
      78         -0.450487        1.000000        0.00012268        0.00015573        0.00134318        0.00724870
      79         -0.446541        1.000000        0.00002905        0.00020751        0.00079196        0.00534533
      80         -0.416370        1.000000        0.00000398        0.02322093        0.00854357        0.00000205
      81         -0.415034        1.000000        0.00007058        0.00934672        0.02410380        0.00113554
      82         -0.411661        1.000000        0.00000889        0.01895181        0.01054273        0.00068351
      83         -0.410129        1.000000        0.00000081        0.03192014        0.00051981        0.00053421
      84         -0.408496        1.000000        0.00007649        0.01400161        0.02546699        0.00192454
      85         -0.407551        1.000000        0.00002160        0.00019599        0.02839468        0.01338369
      86         -0.401007        1.000000        0.00000145        0.00884571        0.02375012        0.00444455
      87         -0.400351        1.000000        0.00000102        0.02908093        0.00696715        0.00116418
      88         -0.395138        1.000000        0.00000174        0.03965123        0.00282259        0.00022202
      89         -0.394759        1.000000        0.00001836        0.01069042        0.02283180        0.00399435
      90         -0.394362        1.000000        0.00000599        0.02352868        0.01137853        0.00084221
      91         -0.393590        1.000000        0.00001028        0.00145571        0.03314769        0.00676019
      92         -0.392926        1.000000        0.00000353        0.00366356        0.03380514        0.00163006
      93         -0.391150        1.000000        0.00000192        0.03806470        0.00120621        0.00005588
      94         -0.308320        1.000000        0.00007248        0.00003096        0.00052638        0.00006843
      95         -0.280655        1.000000        0.00008439        0.00008965        0.00009216        0.00007719
      96         -0.277269        1.000000        0.00003562        0.00077702        0.00006788        0.00006848
      97         -0.275754        1.000000        0.00019717        0.00025482        0.00038777        0.00013658
      98         -0.274904        1.000000        0.00012664        0.00040358        0.00022439        0.00008832
      99         -0.273775        1.000000        0.00002454        0.00097820        0.00016531        0.00003617
     100         -0.273037        1.000000        0.00009353        0.00040818        0.00019062        0.00006651
     101         -0.268611        1.000000        0.00016937        0.00036123        0.00066326        0.00011559
     102         -0.267581        1.000000        0.00005501        0.00073239        0.00021443        0.00006719
     103         -0.265807        1.000000        0.00042993        0.00133475        0.00008140        0.00013500
     104         -0.263537        1.000000        0.00004851        0.00052476        0.00032432        0.00004396
     105         -0.261036        1.000000        0.00002579        0.00008660        0.00026879        0.00003150
     106         -0.257635        1.000000        0.00029836        0.00048929        0.00017483        0.00002141
     107         -0.251186        1.000000        0.00049431        0.00016279        0.00109696        0.00024662
     108         -0.250095        1.000000        0.00151243        0.00021857        0.00041165        0.00194345
     109         -0.248303        1.000000        0.00072891        0.00084781        0.00082039        0.00073073
     110         -0.246338        1.000000        0.00022562        0.00012294        0.00049716        0.00011012
     111         -0.244068        1.000000        0.00054099        0.00051746        0.00012455        0.00040453
     112         -0.241861        1.000000        0.00079094        0.00105626        0.00037267        0.00042816
     113         -0.241264        1.000000        0.00037852        0.00055153        0.00045504        0.00040737
     114         -0.238936        1.000000        0.00125331        0.00198770        0.00039305        0.00101680
     115         -0.238243        1.000000        0.00028980        0.00106131        0.00019898        0.00030816
     116         -0.235971        1.000000        0.00098941        0.00064595        0.00014106        0.00081750
     117         -0.234141        1.000000        0.00035501        0.00087879        0.00085135        0.00059607
     118         -0.231161        1.000000        0.00426781        0.00186235        0.00064072        0.00236724
     119         -0.230224        1.000000        0.00089441        0.00337112        0.00053069        0.00166169
     120         -0.228195        1.000000        0.00198803        0.00115754        0.00056371        0.00294494
     121         -0.227724        1.000000        0.00060913        0.00025973        0.00390505        0.00056747
     122         -0.224651        1.000000        0.00129655        0.00054360        0.00050521        0.00061986
     123         -0.223420        1.000000        0.00055026        0.00114348        0.00130884        0.00105099
     124         -0.221089        1.000000        0.00111870        0.00548597        0.00095324        0.00078962
     125         -0.220334        1.000000        0.00099737        0.00414459        0.00089173        0.00079900
     126         -0.219484        1.000000        0.00247040        0.00510420        0.00084491        0.00172761
     127         -0.218237        1.000000        0.00162296        0.00187451        0.00192918        0.00090087
     128         -0.217128        1.000000        0.00068835        0.00473989        0.00084483        0.00059188
     129         -0.215923        1.000000        0.00060007        0.00221229        0.00068799        0.00031478
     130         -0.215016        1.000000        0.00016532        0.00020927        0.00020844        0.00068147
     131         -0.213329        1.000000        0.00038253        0.00276521        0.00049756        0.00066921
     132         -0.212440        1.000000        0.00020630        0.00108402        0.00058487        0.00029315
     133         -0.211672        1.000000        0.00060563        0.00175516        0.00034575        0.00019653
     134         -0.210698        1.000000        0.00024514        0.00061188        0.00028912        0.00049543
     135         -0.210588        1.000000        0.00061879        0.00284577        0.00103050        0.00026265
     136         -0.209886        1.000000        0.00033200        0.00041012        0.00016595        0.00009861
     137         -0.208512        1.000000        0.00054940        0.00047792        0.00022654        0.00047180
     138         -0.208285        1.000000        0.00012449        0.00073157        0.00033388        0.00022770
     139         -0.207422        1.000000        0.00091886        0.00085400        0.00028952        0.00056864
     140         -0.206349        1.000000        0.00012360        0.00071496        0.00013679        0.00009277
     141         -0.205739        1.000000        0.00024045        0.00049988        0.00139824        0.00010806
     142         -0.204164        1.000000        0.00088449        0.00223728        0.00033455        0.00098610
     143         -0.203749        1.000000        0.00013490        0.00047394        0.00016380        0.00011538
     144         -0.201934        1.000000        0.00037624        0.00061917        0.00049248        0.00075704
     145         -0.201162        1.000000        0.00052646        0.00092325        0.00061241        0.00089129
     146         -0.199849        1.000000        0.00037711        0.00518803        0.00090021        0.00063418
     147         -0.199382        1.000000        0.00039710        0.00076775        0.00042253        0.00016792
     148         -0.197960        1.000000        0.00039267        0.00161785        0.00085907        0.00028079
     149         -0.197466        1.000000        0.00076280        0.00173599        0.00034835        0.00080121
     150         -0.196515        1.000000        0.00155639        0.00367344        0.01076791        0.00034313
     151         -0.196411        1.000000        0.00048336        0.00105922        0.00138921        0.00031962
     152         -0.195643        1.000000        0.00057236        0.00042131        0.00156033        0.00025948
     153         -0.195031        1.000000        0.00029228        0.00131951        0.00209116        0.00047247
     154         -0.194653        1.000000        0.00024196        0.00050520        0.00028108        0.00012077
     155         -0.194507        1.000000        0.00031492        0.00162849        0.00041149        0.00015917
     156         -0.194076        1.000000        0.00010751        0.00026077        0.00017125        0.00012461
     157         -0.193426        1.000000        0.00011045        0.00050663        0.00073418        0.00045544
     158         -0.193162        1.000000        0.00018031        0.00041887        0.00022200        0.00005810
     159         -0.192732        1.000000        0.00011496        0.00031887        0.00040990        0.00018913
     160         -0.192311        1.000000        0.00004744        0.00007114        0.00006285        0.00011028
     161         -0.191710        1.000000        0.00007885        0.00136826        0.00024593        0.00012876
     162         -0.191578        1.000000        0.00003586        0.00039120        0.00007756        0.00020125
     163         -0.191384        1.000000        0.00024265        0.00147750        0.00028202        0.00050692
     164         -0.190859        1.000000        0.00010476        0.00011969        0.00043849        0.00007779
     165         -0.190077        1.000000        0.00025281        0.00017179        0.00085335        0.00010928
     166         -0.189600        1.000000        0.00036001        0.00107396        0.00094839        0.00006476
     167         -0.189241        1.000000        0.00002162        0.00044625        0.00022134        0.00007675
     168         -0.188974        1.000000        0.00035892        0.00017090        0.00069332        0.00026377
     169         -0.188395        1.000000        0.00005063        0.00005594        0.00017952        0.00009764
     170         -0.187897        1.000000        0.00014190        0.00016793        0.00062503        0.00008442
     171         -0.187674        1.000000        0.00006257        0.00020794        0.00020047        0.00010365
     172         -0.186909        1.000000        0.00068285        0.00031175        0.00014545        0.00029991
     173         -0.186515        1.000000        0.00010899        0.00006878        0.00010921        0.00014862
     174         -0.186298        1.000000        0.00016423        0.00011074        0.00009000        0.00021021
     175         -0.185709        1.000000        0.00036157        0.00054094        0.00011627        0.00021191
     176         -0.185539        1.000000        0.00002931        0.00009916        0.00001921        0.00003103
     177         -0.185330        1.000000        0.00002429        0.00014938        0.00010156        0.00008036
     178         -0.185204        1.000000        0.00010832        0.00012277        0.00012874        0.00012399
     179         -0.185044        1.000000        0.00008559        0.00016010        0.00013282        0.00007002
     180         -0.184362        1.000000        0.00006649        0.00012669        0.00004596        0.00009739
     181         -0.184075        1.000000        0.00003165        0.00010436        0.00003211        0.00004686
     182         -0.183891        1.000000        0.00019886        0.00115415        0.00018706        0.00022008
     183         -0.183601        1.000000        0.00004882        0.00007519        0.00016318        0.00017336
     184         -0.183050        1.000000        0.00004733        0.00013381        0.00004212        0.00007015
     185         -0.182655        1.000000        0.00004505        0.00004667        0.00001340        0.00020438
     186         -0.182288        1.000000        0.00003767        0.00012561        0.00005951        0.00006443
     187         -0.181942        1.000000        0.00004235        0.00014196        0.00006372        0.00002887
     188         -0.181794        1.000000        0.00002473        0.00021393        0.00010340        0.00010953
     189         -0.181540        1.000000        0.00007237        0.00039680        0.00008273        0.00007172
     190         -0.181230        1.000000        0.00002296        0.00008485        0.00003540        0.00005876
     191         -0.181120        1.000000        0.00003895        0.00021890        0.00004579        0.00005425
     192         -0.180757        1.000000        0.00000498        0.00002657        0.00001847        0.00003662
     193         -0.180560        1.000000        0.00004874        0.00013848        0.00005239        0.00007685
     194         -0.180419        1.000000        0.00001969        0.00009961        0.00001175        0.00002367
     195         -0.180166        0.000000        0.00002053        0.00009523        0.00003513        0.00001497
     196         -0.179883        0.000000        0.00006358        0.00013414        0.00006736        0.00006947
     197         -0.179763        0.000000        0.00008341        0.00011675        0.00010694        0.00013127
     198         -0.179429        0.000000        0.00005771        0.00028568        0.00007635        0.00007073
     199         -0.178703        0.000000        0.00000962        0.00012628        0.00004385        0.00003930
     200         -0.178061        0.000000        0.00005211        0.00003663        0.00029148        0.00005708
     201         -0.174655        0.000000        0.00000666        0.00002798        0.00001575        0.00003309
     202         -0.091981        0.000000        0.00002054        0.00002069        0.00002400        0.00002390
     203         -0.072048        0.000000        0.00015571        0.00004482        0.00012522        0.00008337
     204         -0.060219        0.000000        0.00009413        0.00005306        0.00009463        0.00003206
     205         -0.055875        0.000000        0.00004163        0.00003073        0.00001867        0.00007270
     206         -0.053417        0.000000        0.00014350        0.00015441        0.00006238        0.00001490
     207         -0.052956        0.000000        0.00004088        0.00005338        0.00000899        0.00001266
     208         -0.051409        0.000000        0.00002073        0.00010556        0.00003616        0.00000584
     209         -0.047869        0.000000        0.00005191        0.00009390        0.00003675        0.00003837
     210         -0.047368        0.000000        0.00002995        0.00009199        0.00002265        0.00004007
     211         -0.045836        0.000000        0.00003561        0.00005672        0.00003093        0.00003890
     212         -0.042107        0.000000        0.00006650        0.00006558        0.00005869        0.00002373
     213         -0.040360        0.000000        0.00013449        0.00010669        0.00003168        0.00009841
     214         -0.033415        0.000000        0.00003781        0.00005207        0.00005119        0.00001773
     215         -0.027638        0.000000        0.00004699        0.00008035        0.00008984        0.00001255
     216         -0.024762        0.000000        0.00003565        0.00003569        0.00000968        0.00004912
     217         -0.023871        0.000000        0.00003253        0.00004607        0.00000727        0.00002881
     218         -0.023081        0.000000        0.00009815        0.00001415        0.00001016        0.00001031
     219         -0.020161        0.000000        0.00008757        0.00025043        0.00006974        0.00002299
     220         -0.017288        0.000000        0.00013100        0.00019389        0.00003985        0.00002182
     221         -0.014051        0.000000        0.00004387        0.00006744        0.00006958        0.00004296
     222         -0.009505        0.000000        0.00013816        0.00002952        0.00002287        0.00004536
     223         -0.007656        0.000000        0.00001319        0.00020861        0.00000713        0.00001852
     224         -0.005519        0.000000        0.00004464        0.00005499        0.00001284        0.00003949
     225         -0.001781        0.000000        0.00003935        0.00002408        0.00001588        0.00001538
     226          0.080045        0.000000        0.10438952        0.00012669        0.00172143        0.24666887
     227          0.101171        0.000000        0.11282108        0.01009781        0.06316916        0.17174400
     228          0.102816        0.000000        0.13917054        0.00097097        0.02736697        0.18619314
     229          0.110257        0.000000        0.10294056        0.00060342        0.04534843        0.21292821
     230          0.112276        0.000000        0.10668368        0.00002845        0.03078766        0.22235215
     231          0.121533        0.000000        0.10946186        0.00018628        0.01665612        0.23961512
     232          0.122539        0.000000        0.11457074        0.00027640        0.04359665        0.20222540
     233          0.154823        0.000000        0.02694333        0.09010336        0.12092473        0.09610838
     234          0.190852        0.000000        0.04752740        0.03467430        0.23168725        0.02328054
     235          0.203100        0.000000        0.04547953        0.17259481        0.09057844        0.02822353
     236          0.255432        0.000000        0.03638079        0.12117134        0.17439487        0.00111181
     237          0.277395        0.000000        0.00551060        0.09286453        0.22652267        0.00003830
     238          0.282602        0.000000        0.01340318        0.26654353        0.03173337        0.01353357
     239          0.288867        0.000000        0.00064645        0.22172723        0.08659900        0.01367935
     240          0.290796        0.000000        0.14143606        0.11662936        0.01369666        0.06871153
     241          0.291296        0.000000        0.00250467        0.09779109        0.19425131        0.02454942
     242          0.294905        0.000000        0.00014771        0.02737927        0.23782926        0.05692811
     243          0.295907        0.000000        0.00311212        0.30294605        0.00513934        0.00199338
     244          0.298025        0.000000        0.00022214        0.07894787        0.19239523        0.04663032
     245          0.300158        0.000000        0.17558308        0.08004229        0.01396273        0.07005965
     246          0.300607        0.000000        0.01599035        0.24898097        0.04235874        0.01121305
     247          0.301599        0.000000        0.00030563        0.23609473        0.06809421        0.01166754
     248          0.301895        0.000000        0.00032484        0.02526655        0.27221631        0.02160394
     249          0.309107        0.000000        0.17148579        0.01471523        0.01021696        0.13508982
     250          0.336818        0.000000        0.24316057        0.00018710        0.01278651        0.09383576
     251          0.338310        0.000000        0.24572882        0.00011516        0.02390922        0.07817009
     252          0.344196        0.000000        0.23270906        0.00217801        0.00670893        0.10001077
     253          0.355480        0.000000        0.23388712        0.00005941        0.02367437        0.09451808
     254          0.446971        0.000000        0.00017397        0.02105698        0.00282534        0.00041044
     255          0.447405        0.000000        0.00074201        0.00015095        0.01105107        0.00801080
     256          0.449173        0.000000        0.00005055        0.00118635        0.01621499        0.00019451
     257          0.454124        0.000000        0.00036965        0.00556475        0.00996499        0.00005419
     258          0.457033        0.000000        0.00004341        0.02399499        0.00067932        0.00058974
     259          0.461496        0.000000        0.00032687        0.01632220        0.00635991        0.00075557