# Projected DOS for atomic kind I at iteration step i = 0, E(Fermi) =    -0.181050 a.u.
#     MO Eigenvalue [a.u.]      Occupation                 s                py                pz                px
       1         -0.970487        1.000000        0.00002511        0.00001798        0.00015803        0.00003546
       2         -0.969348        1.000000        0.00001593        0.00008881        0.00007916        0.00000558
       3         -0.960101        1.000000        0.00004737        0.00018111        0.00003139        0.00010239
       4         -0.947214        1.000000        0.00015145        0.00021322        0.00043477        0.00023428
       5         -0.939895        1.000000        0.00013498        0.00040424        0.00009341        0.00021159
       6         -0.935035        1.000000        0.00015329        0.00029175        0.00020830        0.00029256
       7         -0.931421        1.000000        0.00031446        0.00051667        0.00036046        0.00028414
       8         -0.702714        1.000000        0.00043929        0.00020517        0.00016236        0.00019345
       9         -0.702548        1.000000        0.00041507        0.00006875        0.00019153        0.00023209
      10         -0.696299        1.000000        0.00080269        0.00022631        0.00021753        0.00023256
      11         -0.687150        1.000000        0.00281475        0.00047114        0.00061955        0.00054238
      12         -0.680653        1.000000        0.00164664        0.00040726        0.00018385        0.00015183
      13         -0.678999        1.000000        0.00272507        0.00049667        0.00036511        0.00044199
      14         -0.678848        1.000000        0.00350217        0.00067997        0.00048164        0.00025724
      15         -0.631758        1.000000        0.95195094        0.01653506        0.00145493        0.00512376
      16         -0.600666        1.000000        0.42687827        0.00547285        0.00372608        0.00142737
      17         -0.598076        1.000000        0.70953818        0.00713289        0.00367337        0.00457841
      18         -0.597600        1.000000        0.81807804        0.00123195        0.00227539        0.00274613
      19         -0.596766        1.000000        0.03233756        0.00022890        0.00045147        0.00013521
      20         -0.595586        1.000000        0.74476153        0.00394139        0.00325936        0.00238397
      21         -0.593205        1.000000        0.80869249        0.00389310        0.00418738        0.00438386
      22         -0.591468        1.000000        0.66725117        0.00463119        0.00362996        0.00394279
      23         -0.590889        1.000000        0.25406251        0.00342454        0.00110445        0.00213604
      24         -0.589966        1.000000        0.50312808        0.00357295        0.00322416        0.00231204
      25         -0.588278        1.000000        0.74237824        0.00547058        0.00240082        0.00526689
      26         -0.584418        1.000000        0.38545527        0.00380475        0.00083894        0.00103551
      27         -0.583284        1.000000        0.81279054        0.00403176        0.00496818        0.00259760
      28         -0.582294        1.000000        0.85699147        0.00255057        0.00204289        0.00130191
      29         -0.580605        1.000000        0.73068498        0.00274968        0.00136135        0.00162246
      30         -0.580058        1.000000        0.80513861        0.00257937        0.00336499        0.00238627
      31         -0.578563        1.000000        0.86768545        0.00263041        0.00292162        0.00299456
      32         -0.577303        1.000000        0.70108658        0.00135030        0.00232103        0.00206839
      33         -0.576766        1.000000        0.25269403        0.00129586        0.00190036        0.00100274
      34         -0.576374        1.000000        0.46072650        0.00154796        0.00202540        0.00116721
      35         -0.574558        1.000000        0.86946990        0.00188913        0.00202870        0.00255869
      36         -0.574131        1.000000        0.66662168        0.00137321        0.00384144        0.00287917
      37         -0.573415        1.000000        0.90881719        0.00132220        0.00290630        0.00288829
      38         -0.572457        1.000000        0.92986925        0.00088982        0.00101466        0.00148045
      39         -0.572179        1.000000        0.92227622        0.00137488        0.00128858        0.00228294
      40         -0.571173        1.000000        0.71174705        0.00206421        0.00338770        0.00180750
      41         -0.569116        1.000000        0.84927788        0.00137703        0.00094610        0.00357168
      42         -0.567713        1.000000        0.93299540        0.00073882        0.00149644        0.00073484
      43         -0.567193        1.000000        0.86778934        0.00072124        0.00120986        0.00126061
      44         -0.566491        1.000000        0.63290205        0.00068566        0.00358018        0.00178589
      45         -0.566020        1.000000        0.74746667        0.00112610        0.00125120        0.00268825
      46         -0.565207        1.000000        0.93934110        0.00056872        0.00085481        0.00152796
      47         -0.564893        1.000000        0.51270835        0.00096279        0.00244702        0.00215529
      48         -0.564124        1.000000        0.97787254        0.00021873        0.00031321        0.00135192
      49         -0.563099        1.000000        0.94213688        0.00012440        0.00073442        0.00148438
      50         -0.562074        1.000000        0.95386832        0.00136514        0.00027737        0.00044709
      51         -0.561781        1.000000        0.73636153        0.00081212        0.00232384        0.00119248
      52         -0.560665        1.000000        0.93366932        0.00172694        0.00015313        0.00057367
      53         -0.560587        1.000000        0.87380599        0.00035664        0.00051151        0.00093110
      54         -0.560379        1.000000        0.79320140        0.00124814        0.00084114        0.00118224
      55         -0.558672        1.000000        0.46331457        0.00083803        0.00041387        0.00095952
      56         -0.558191        1.000000        0.24636577        0.00150086        0.00020180        0.00119921
      57         -0.557899        1.000000        0.94851750        0.00163202        0.00072590        0.00041593
      58         -0.556148        1.000000        0.89249170        0.00046988        0.00032351        0.00162174
      59         -0.554321        1.000000        0.16975239        0.00249702        0.00020126        0.00199341
      60         -0.549848        1.000000        0.15915194        0.00069647        0.00133910        0.00105881
      61         -0.549188        1.000000        0.26880324        0.00074187        0.00031713        0.00050788
      62         -0.547648        1.000000        0.99919759        0.00015751        0.00001036        0.00004900
      63         -0.545729        1.000000        0.20174082        0.00145610        0.00067317        0.00149285
      64         -0.537727        1.000000        0.25672330        0.00345399        0.00112576        0.00201883
      65         -0.490871        1.000000        0.00170496        0.00078132        0.00046037        0.00058849
      66         -0.487358        1.000000        0.00190725        0.00038919        0.00097539        0.00061882
      67         -0.481489        1.000000        0.00210155        0.00127872        0.00147451        0.00114695
      68         -0.470033        1.000000        0.00407324        0.00278912        0.00321957        0.00275538
      69         -0.465308        1.000000        0.15161691        0.04633401        0.05086678        0.04404670
      70         -0.463609        1.000000        0.00856086        0.00597969        0.00368031        0.00369037
      71         -0.460723        1.000000        0.11215209        0.03274300        0.04391618        0.03296581
      72         -0.460235        1.000000        0.01325600        0.00498975        0.00609973        0.00516905
      73         -0.459510        1.000000        0.03504000        0.00807873        0.01562070        0.01691849
      74         -0.457869        1.000000        0.11629698        0.03235098        0.04494106        0.02756419
      75         -0.456895        1.000000        0.14602173        0.04253046        0.02796786        0.04143162
      76         -0.454657        1.000000        0.14058231        0.03590861        0.02768952        0.03685740
      77         -0.452394        1.000000        0.13967484        0.03141860        0.03118601        0.03229241
      78         -0.450841        1.000000        0.13400116        0.02003000        0.04141917        0.03325287
      79         -0.446880        1.000000        0.13736112        0.02032740        0.02880897        0.02896803
      80         -0.416521        1.000000        0.00075894        0.00067313        0.00076275        0.00099025
      81         -0.415216        1.000000        0.00082845        0.00053994        0.00075629        0.00165323
      82         -0.411826        1.000000        0.00192170        0.00345766        0.00174585        0.00248298
      83         -0.410273        1.000000        0.00078354        0.00165453        0.00032966        0.00101823
      84         -0.408656        1.000000        0.00100001        0.00155640        0.00130940        0.00184469
      85         -0.407697        1.000000        0.00079531        0.00126803        0.00056193        0.00204603
      86         -0.401124        1.000000        0.00164410        0.00188334        0.00265943        0.00457129
      87         -0.400478        1.000000        0.00203261        0.00488405        0.00120821        0.00533969
      88         -0.395285        1.000000        0.00268310        0.00534357        0.00241577        0.00306699
      89         -0.394911        1.000000        0.00083296        0.00263961        0.00099656        0.00062389
      90         -0.394500        1.000000        0.00094912        0.00244442        0.00107585        0.00097787
      91         -0.393772        1.000000        0.00125838        0.00181049        0.00167191        0.00221308
      92         -0.393064        1.000000        0.00205310        0.00341600        0.00418847        0.00102261
      93         -0.391306        1.000000        0.00216966        0.00459470        0.00019578        0.00483759
      94         -0.309737        1.000000        0.02243121        0.75582553        0.03013678        0.16963543
      95         -0.281009        1.000000        0.01698662        0.04956959        0.59747448        0.04602692
      96         -0.277422        1.000000        0.01388176        0.35501981        0.20955641        0.13792909
      97         -0.276207        1.000000        0.01246191        0.23356603        0.13077219        0.38197814
      98         -0.275305        1.000000        0.01120433        0.08839588        0.29416105        0.32707066
      99         -0.274032        1.000000        0.01283499        0.25405024        0.04597001        0.42454273
     100         -0.273273        1.000000        0.01378272        0.30052252        0.10366046        0.30351561
     101         -0.269060        1.000000        0.01279114        0.12772664        0.40809893        0.18410160
     102         -0.268108        1.000000        0.01135342        0.27585914        0.31339845        0.13116179
     103         -0.266093        1.000000        0.01339671        0.24397218        0.13874308        0.32203458
     104         -0.264011        1.000000        0.01469657        0.42270894        0.17958907        0.11942357
     105         -0.261648        1.000000        0.01533795        0.33583685        0.31833732        0.05362940
     106         -0.258260        1.000000        0.01441576        0.14580878        0.14066041        0.43305009
     107         -0.251562        1.000000        0.01936947        0.04240404        0.51434233        0.23327312
     108         -0.250544        1.000000        0.01324356        0.27102454        0.35620045        0.19641642
     109         -0.248647        1.000000        0.01299493        0.25087322        0.45693831        0.11863013
     110         -0.246935        1.000000        0.02119091        0.11730188        0.25728292        0.37669455
     111         -0.244596        1.000000        0.01836756        0.15248053        0.37180811        0.22779748
     112         -0.242373        1.000000        0.01854410        0.21617435        0.29314589        0.25079926
     113         -0.241910        1.000000        0.01685731        0.22275544        0.24490464        0.30130277
     114         -0.239507        1.000000        0.01496896        0.17405393        0.41951464        0.18602028
     115         -0.238608        1.000000        0.01503390        0.15029594        0.17449003        0.46161690
     116         -0.236250        1.000000        0.01260334        0.40198383        0.26351532        0.13755778
     117         -0.234516        1.000000        0.01324453        0.40132035        0.20691245        0.17573311
     118         -0.231694        1.000000        0.00430112        0.30514851        0.34154666        0.27568083
     119         -0.230936        1.000000        0.00501668        0.24464719        0.40132541        0.28306321
     120         -0.228902        1.000000        0.00697771        0.26982960        0.28256733        0.32335671
     121         -0.227955        1.000000        0.00390143        0.26284811        0.12121972        0.51550572
     122         -0.225237        1.000000        0.00656167        0.27257344        0.18008858        0.40314988
     123         -0.223259        1.000000        0.00164096        0.32830317        0.15092709        0.49119832
     124         -0.221629        1.000000        0.00177885        0.24246317        0.29275424        0.42685283
     125         -0.220805        1.000000        0.00263107        0.25583308        0.20744221        0.47710252
     126         -0.220063        1.000000        0.00150494        0.21025567        0.37858397        0.37451927
     127         -0.218766        1.000000        0.00235684        0.22417669        0.36946999        0.33310648
     128         -0.217761        1.000000        0.00161297        0.30330318        0.45030500        0.19729812
     129         -0.216531        1.000000        0.00142478        0.29073032        0.58796052        0.09965396
     130         -0.215519        1.000000        0.00430266        0.24712187        0.37112527        0.27777343
     131         -0.214089        1.000000        0.00284693        0.44546304        0.35459199        0.15581451
     132         -0.213016        1.000000        0.00151228        0.37123927        0.14366034        0.46544182
     133         -0.212147        1.000000        0.00107355        0.37537122        0.19583238        0.40465662
     134         -0.211178        1.000000        0.00101820        0.24284041        0.26065421        0.47741337
     135         -0.210597        1.000000        0.00085311        0.23111959        0.33719608        0.40907086
     136         -0.210307        1.000000        0.00119906        0.37328636        0.17389726        0.42477296
     137         -0.209349        1.000000        0.00105293        0.28942761        0.37086925        0.32514113
     138         -0.208319        1.000000        0.00098790        0.38777330        0.16895934        0.42045923
     139         -0.207435        1.000000        0.00050666        0.48305761        0.23670332        0.26394947
     140         -0.207083        1.000000        0.00104274        0.27184342        0.34244665        0.36988210
     141         -0.205745        1.000000        0.00099783        0.48244426        0.14299457        0.34781324
     142         -0.204468        1.000000        0.00082137        0.55824291        0.24612613        0.17769509
     143         -0.204221        1.000000        0.00083589        0.12099208        0.41491541        0.45496014
     144         -0.202674        1.000000        0.00029534        0.41565934        0.36582892        0.20614351
     145         -0.201840        1.000000        0.00072968        0.16627776        0.30317687        0.51573459
     146         -0.201029        1.000000        0.00099340        0.14241209        0.42148777        0.42079407
     147         -0.199708        1.000000        0.00069053        0.23856234        0.42675893        0.32314060
     148         -0.198281        1.000000        0.00155092        0.26644973        0.35569085        0.36284163
     149         -0.197785        1.000000        0.00140942        0.45170079        0.20116420        0.33109822
     150         -0.196766        1.000000        0.00224266        0.21635962        0.55622795        0.20173963
     151         -0.196541        1.000000        0.00129740        0.35264800        0.13249547        0.49315641
     152         -0.196098        1.000000        0.00095752        0.39773072        0.32585086        0.25596901
     153         -0.195612        1.000000        0.00119053        0.36389036        0.37803215        0.24073485
     154         -0.195201        1.000000        0.00085019        0.49627180        0.11513675        0.36743494
     155         -0.194645        1.000000        0.00080238        0.33615432        0.18036394        0.46050884
     156         -0.194404        1.000000        0.00058587        0.38718760        0.25062784        0.35177842
     157         -0.194013        1.000000        0.00061948        0.22191737        0.46649014        0.30165671
     158         -0.193602        1.000000        0.00055394        0.37818949        0.35291213        0.26029849
     159         -0.193023        1.000000        0.00065381        0.38038009        0.26489943        0.34807311
     160         -0.192898        1.000000        0.00049208        0.52119690        0.22926156        0.24267562
     161         -0.192598        1.000000        0.00047792        0.32887266        0.17954377        0.48287287
     162         -0.192423        1.000000        0.00036760        0.56840369        0.25532587        0.16659716
     163         -0.191892        1.000000        0.00055968        0.43095309        0.31459172        0.24787965
     164         -0.191300        1.000000        0.00068059        0.22441113        0.40721002        0.34925214
     165         -0.190937        1.000000        0.00065297        0.54610398        0.10055339        0.34950385
     166         -0.190180        1.000000        0.00121740        0.37341383        0.24243780        0.37766658
     167         -0.189729        1.000000        0.00107951        0.40058481        0.41110875        0.17154792
     168         -0.189331        1.000000        0.00125852        0.47103594        0.26960175        0.24641142
     169         -0.189153        1.000000        0.00118281        0.53014227        0.27121955        0.17705920
     170         -0.188695        1.000000        0.00080122        0.33922785        0.43987690        0.19659158
     171         -0.188070        1.000000        0.00085576        0.10361091        0.65227598        0.23541187
     172         -0.187763        1.000000        0.00104952        0.54885023        0.17784627        0.25490900
     173         -0.187507        1.000000        0.00134531        0.52952838        0.23921137        0.21688002
     174         -0.186782        1.000000        0.00094567        0.24640820        0.52219160        0.22126288
     175         -0.186384        1.000000        0.00075497        0.29493497        0.43479706        0.26509119
     176         -0.186141        1.000000        0.00026648        0.30071928        0.47730502        0.21850558
     177         -0.185765        1.000000        0.00057291        0.40828056        0.31598896        0.25906508
     178         -0.185635        1.000000        0.00047679        0.31911484        0.31668120        0.33709146
     179         -0.185458        1.000000        0.00088761        0.12488564        0.58974701        0.27733380
     180         -0.185256        1.000000        0.00041838        0.37330259        0.27467428        0.33841303
     181         -0.185123        1.000000        0.00018336        0.35014020        0.29814248        0.34715685
     182         -0.184925        1.000000        0.00038060        0.34263283        0.31020188        0.33330075
     183         -0.183990        1.000000        0.00022504        0.26102072        0.44033936        0.29334802
     184         -0.183834        1.000000        0.00075791        0.36707780        0.32299387        0.28524317
     185         -0.183721        1.000000        0.00026530        0.28815676        0.39611640        0.28510290
     186         -0.183045        1.000000        0.00044741        0.12187411        0.45522980        0.41504124
     187         -0.182989        1.000000        0.00043226        0.31486025        0.38016451        0.28685571
     188         -0.182631        1.000000        0.00027076        0.25731348        0.35078993        0.38393716
     189         -0.182148        1.000000        0.00029089        0.29391095        0.28878400        0.40229377
     190         -0.181966        1.000000        0.00026352        0.35256656        0.23853150        0.40144110
     191         -0.181879        1.000000        0.00016332        0.26375569        0.35174553        0.37178774
     192         -0.181752        1.000000        0.00104712        0.20295766        0.42063821        0.35526137
     193         -0.181530        1.000000        0.00070062        0.27336097        0.40540229        0.29769290
     194         -0.181503        1.000000        0.00075447        0.33479505        0.22011357        0.42084978
     195         -0.181050        1.000000        0.00014861        0.04437856        0.58338282        0.36675367
     196         -0.180997        0.000000        0.00029613        0.17040688        0.42034468        0.38851357
     197         -0.180624        0.000000        0.00091947        0.32931969        0.18836194        0.44473995
     198         -0.180319        0.000000        0.00102836        0.32762374        0.27979746        0.31717058
     199         -0.179955        0.000000        0.00634462        0.53991761        0.13512853        0.28456596
     200         -0.179197        0.000000        0.00049332        0.34185437        0.28796894        0.25870047
     201         -0.175047        0.000000        0.00034000        0.31247907        0.26122369        0.27583835
     202         -0.092100        0.000000        0.01372058        0.05994960        0.07396678        0.07073538
     203         -0.072478        0.000000        0.02596640        0.15601993        0.01010884        0.05671881
     204         -0.060444        0.000000        0.02628984        0.18153433        0.03398458        0.03629042
     205         -0.056125        0.000000        0.02881146        0.13752107        0.04062123        0.07585211
     206         -0.053815        0.000000        0.02542816        0.03679803        0.07292924        0.15788348
     207         -0.053235        0.000000        0.02651693        0.08288153        0.08282897        0.09329213
     208         -0.051746        0.000000        0.02780068        0.02764207        0.08398404        0.15570305
     209         -0.048188        0.000000        0.02849808        0.02887516        0.19394816        0.04078101
     210         -0.047622        0.000000        0.03032759        0.01874327        0.13582661        0.11281812
     211         -0.046035        0.000000        0.02368975        0.07128105        0.01042774        0.18388914
     212         -0.042411        0.000000        0.02709422        0.03391045        0.13486377        0.10111788
     213         -0.040581        0.000000        0.02637074        0.08911981        0.15752653        0.02124845
     214         -0.033940        0.000000        0.01605943        0.10991573        0.03058406        0.14597318
     215         -0.028124        0.000000        0.01576118        0.16947530        0.01195784        0.10343788
     216         -0.025123        0.000000        0.01665530        0.08696930        0.10836547        0.09773265
     217         -0.024235        0.000000        0.01580740        0.08494624        0.16556860        0.04210214
     218         -0.023504        0.000000        0.01535853        0.10301036        0.01332716        0.18013928
     219         -0.020342        0.000000        0.01648577        0.18514937        0.09571705        0.02444414
     220         -0.017567        0.000000        0.01486849        0.07617979        0.17867111        0.04555890
     221         -0.014394        0.000000        0.01600542        0.00289580        0.27164076        0.03461000
     222         -0.009601        0.000000        0.01732630        0.05841314        0.02548458        0.22851235
     223         -0.007752        0.000000        0.01579156        0.11479838        0.01870680        0.17756675
     224         -0.005612        0.000000        0.01630916        0.17546341        0.01174503        0.12367318
     225         -0.002039        0.000000        0.01644983        0.01044527        0.29928342        0.00819945
     226          0.079913        0.000000        0.00005278        0.00032465        0.00128501        0.00076236
     227          0.101052        0.000000        0.00012220        0.00076553        0.00148680        0.00078531
     228          0.102677        0.000000        0.00005392        0.00059948        0.00055323        0.00032241
     229          0.110137        0.000000        0.00006880        0.00119156        0.00055810        0.00054825
     230          0.112170        0.000000        0.00013245        0.00069783        0.00187781        0.00115771
     231          0.121425        0.000000        0.00010081        0.00105089        0.00113875        0.00045680
     232          0.122398        0.000000        0.00012411        0.00147268        0.00104113        0.00089086
     233          0.154620        0.000000        0.00001833        0.00034768        0.00021827        0.00005776
     234          0.190685        0.000000        0.00001245        0.00018823        0.00004392        0.00008614
     235          0.202930        0.000000        0.00000515        0.00015942        0.00007157        0.00011415
     236          0.255281        0.000000        0.00001268        0.00028943        0.00009949        0.00008498
     237          0.277238        0.000000        0.00020340        0.00040965        0.00492390        0.00024633
     238          0.282469        0.000000        0.00010671        0.00258838        0.00036391        0.00122595
     239          0.288735        0.000000        0.00037242        0.00268614        0.00092625        0.00276568
     240          0.290634        0.000000        0.00004993        0.00060823        0.00138668        0.00041301
     241          0.291156        0.000000        0.00043911        0.00393364        0.00166344        0.00463825
     242          0.294762        0.000000        0.00041922        0.00525667        0.00022378        0.00238009
     243          0.295774        0.000000        0.00125575        0.00891029        0.00211970        0.00630425
     244          0.297890        0.000000        0.00049273        0.00378084        0.00140839        0.00559565
     245          0.299995        0.000000        0.00018214        0.00131646        0.00334348        0.00104270
     246          0.300462        0.000000        0.00059210        0.00654987        0.00119176        0.00367928
     247          0.301475        0.000000        0.00054403        0.00597829        0.00054362        0.00607442
     248          0.301727        0.000000        0.00063487        0.00151122        0.00838252        0.00171147
     249          0.308977        0.000000        0.00051200        0.00906288        0.00037912        0.00378053
     250          0.336672        0.000000        0.00056587        0.00445785        0.00287837        0.00470396
     251          0.338169        0.000000        0.00065628        0.00803214        0.00046156        0.00449672
     252          0.344043        0.000000        0.00142778        0.00735988        0.00660279        0.00678833
     253          0.355343        0.000000        0.00062091        0.00518063        0.00115184        0.00711378
     254          0.446846        0.000000        0.00001480        0.00015382        0.00006911        0.00002341
     255          0.447278        0.000000        0.00001403        0.00021722        0.00003524        0.00029309
     256          0.448999        0.000000        0.00002877        0.00007912        0.00020317        0.00051014
     257          0.453996        0.000000        0.00002305        0.00043017        0.00037610        0.00015639
     258          0.456903        0.000000        0.00001420        0.00029684        0.00004065        0.00027217
     259          0.461357        0.000000        0.00002197        0.00071088        0.00008251        0.00062252