# Projected DOS for atomic kind Pb at iteration step i = 0, E(Fermi) =    -0.181050 a.u.
#     MO Eigenvalue [a.u.]      Occupation                 s                py                pz                px
       1         -0.970487        1.000000        0.00000001        0.00000031        0.00000008        0.00000007
       2         -0.969348        1.000000        0.00000006        0.00000048        0.00000057        0.00000053
       3         -0.960101        1.000000        0.00000006        0.00000038        0.00000096        0.00000014
       4         -0.947214        1.000000        0.00000044        0.00000586        0.00000490        0.00000341
       5         -0.939895        1.000000        0.00000042        0.00000692        0.00000757        0.00000199
       6         -0.935035        1.000000        0.00000057        0.00000851        0.00000619        0.00000430
       7         -0.931421        1.000000        0.00000403        0.00002551        0.00005952        0.00001739
       8         -0.702714        1.000000        0.00001913        0.00002762        0.00003020        0.00001419
       9         -0.702548        1.000000        0.00000761        0.00001454        0.00000341        0.00000323
      10         -0.696299        1.000000        0.00000882        0.00000932        0.00000854        0.00000523
      11         -0.687150        1.000000        0.00006979        0.00006916        0.00004828        0.00002091
      12         -0.680653        1.000000        0.00002273        0.00002251        0.00003315        0.00000476
      13         -0.678999        1.000000        0.00007346        0.00006228        0.00004742        0.00001347
      14         -0.678848        1.000000        0.00008389        0.00005002        0.00015267        0.00006860
      15         -0.631758        1.000000        0.00636186        0.00060019        0.00002208        0.00727331
      16         -0.600666        1.000000        0.03134736        0.00202650        0.00101816        0.00153135
      17         -0.598076        1.000000        0.09427260        0.00350964        0.00672378        0.00078940
      18         -0.597600        1.000000        0.05516373        0.00843843        0.01046137        0.00117301
      19         -0.596766        1.000000        0.00245581        0.00021323        0.00033473        0.00017244
      20         -0.595586        1.000000        0.05733423        0.02102989        0.00217388        0.00091433
      21         -0.593205        1.000000        0.08455279        0.01174787        0.00267368        0.00145778
      22         -0.591468        1.000000        0.05381654        0.00766706        0.00242737        0.00072542
      23         -0.590889        1.000000        0.02133893        0.00219542        0.00183475        0.00032853
      24         -0.589966        1.000000        0.03570046        0.00499164        0.00193989        0.00080282
      25         -0.588278        1.000000        0.05225421        0.00214831        0.00821543        0.00081137
      26         -0.584418        1.000000        0.00923348        0.00094063        0.00106163        0.00114181
      27         -0.583284        1.000000        0.06307027        0.00498291        0.00425357        0.00622365
      28         -0.582294        1.000000        0.02040426        0.00341824        0.02610770        0.00132120
      29         -0.580605        1.000000        0.00718654        0.00477995        0.01900832        0.00098741
      30         -0.580058        1.000000        0.02791828        0.00276191        0.01633522        0.00542061
      31         -0.578563        1.000000        0.03695691        0.01817717        0.00790258        0.00358538
      32         -0.577303        1.000000        0.02830819        0.00667764        0.00765015        0.00335961
      33         -0.576766        1.000000        0.01594129        0.00076882        0.00458593        0.00181207
      34         -0.576374        1.000000        0.02070703        0.00609932        0.00627106        0.00196825
      35         -0.574558        1.000000        0.02696049        0.00982053        0.00843359        0.01114183
      36         -0.574131        1.000000        0.03426650        0.00410883        0.01128279        0.00772563
      37         -0.573415        1.000000        0.03722887        0.00850481        0.00952124        0.01003186
      38         -0.572457        1.000000        0.01069170        0.00066923        0.00513603        0.03429326
      39         -0.572179        1.000000        0.01957559        0.00847482        0.00447853        0.02748669
      40         -0.571173        1.000000        0.02102690        0.00615705        0.00239781        0.01040841
      41         -0.569116        1.000000        0.01646552        0.00039786        0.00437131        0.02335847
      42         -0.567713        1.000000        0.00056054        0.00479717        0.01907139        0.00514538
      43         -0.567193        1.000000        0.00105166        0.00336583        0.01027516        0.01235080
      44         -0.566491        1.000000        0.02265335        0.00490703        0.00679586        0.00926165
      45         -0.566020        1.000000        0.01221983        0.00100615        0.00266440        0.01182539
      46         -0.565207        1.000000        0.00512764        0.00293759        0.01084115        0.00890960
      47         -0.564893        1.000000        0.01804221        0.00301322        0.00340191        0.00717133
      48         -0.564124        1.000000        0.00057959        0.00366999        0.00106915        0.00787422
      49         -0.563099        1.000000        0.00148520        0.00027045        0.00710405        0.01326192
      50         -0.562074        1.000000        0.00332832        0.01259355        0.00502534        0.00082053
      51         -0.561781        1.000000        0.01993352        0.00369186        0.01336497        0.00412104
      52         -0.560665        1.000000        0.00335003        0.01680830        0.00157612        0.00533474
      53         -0.560587        1.000000        0.00053979        0.00234003        0.01037189        0.01162311
      54         -0.560379        1.000000        0.00488994        0.01343792        0.00065883        0.00233031
      55         -0.558672        1.000000        0.00132319        0.00445905        0.00595457        0.00112543
      56         -0.558191        1.000000        0.00187261        0.00200872        0.00124146        0.00321789
      57         -0.557899        1.000000        0.00696801        0.01722097        0.00005342        0.00058324
      58         -0.556148        1.000000        0.00307903        0.00029731        0.00738124        0.01786903
      59         -0.554321        1.000000        0.00223322        0.00037997        0.00370556        0.00038375
      60         -0.549848        1.000000        0.00046661        0.00064692        0.00372571        0.00009264
      61         -0.549188        1.000000        0.00308091        0.00259061        0.00125951        0.00083229
      62         -0.547648        1.000000        0.00008098        0.00033588        0.00000433        0.00000068
      63         -0.545729        1.000000        0.00501080        0.00049113        0.00422164        0.00026121
      64         -0.537727        1.000000        0.00279264        0.00322727        0.00188863        0.00022699
      65         -0.490871        1.000000        0.00041921        0.00000737        0.00002506        0.00000230
      66         -0.487358        1.000000        0.00096616        0.00003278        0.00000078        0.00000396
      67         -0.481489        1.000000        0.00367749        0.00004062        0.00007825        0.00000544
      68         -0.470033        1.000000        0.01193131        0.00004810        0.00004030        0.00001763
      69         -0.465308        1.000000        0.65899976        0.00119221        0.00226750        0.00176495
      70         -0.463609        1.000000        0.05128910        0.00006041        0.00013073        0.00018476
      71         -0.460723        1.000000        0.61471895        0.00059325        0.00188124        0.00110524
      72         -0.460235        1.000000        0.07824655        0.00012215        0.00031086        0.00023647
      73         -0.459510        1.000000        0.23668108        0.00007504        0.00064982        0.00052072
      74         -0.457869        1.000000        0.63256398        0.00075352        0.00145130        0.00085425
      75         -0.456895        1.000000        0.69915942        0.00042951        0.00035668        0.00138645
      76         -0.454657        1.000000        0.71516168        0.00044475        0.00023944        0.00083818
      77         -0.452394        1.000000        0.73521509        0.00043989        0.00029337        0.00042165
      78         -0.450841        1.000000        0.75003011        0.00031083        0.00103550        0.00050745
      79         -0.446880        1.000000        0.76868426        0.00032543        0.00008519        0.00014462
      80         -0.416521        1.000000        0.00009504        0.00001298        0.00001643        0.00002399
      81         -0.415216        1.000000        0.00021014        0.00005037        0.00000476        0.00000907
      82         -0.411826        1.000000        0.00009305        0.00008229        0.00009338        0.00001241
      83         -0.410273        1.000000        0.00048940        0.00002244        0.00009291        0.00001428
      84         -0.408656        1.000000        0.00051172        0.00014204        0.00026215        0.00008670
      85         -0.407697        1.000000        0.00016407        0.00002242        0.00005571        0.00001629
      86         -0.401124        1.000000        0.00017075        0.00003860        0.00006426        0.00002864
      87         -0.400478        1.000000        0.00045473        0.00012737        0.00011147        0.00006913
      88         -0.395285        1.000000        0.00020022        0.00006727        0.00014820        0.00014944
      89         -0.394911        1.000000        0.00002268        0.00000416        0.00006884        0.00002792
      90         -0.394500        1.000000        0.00016085        0.00002785        0.00005131        0.00007185
      91         -0.393772        1.000000        0.00010030        0.00001545        0.00006042        0.00003364
      92         -0.393064        1.000000        0.00072536        0.00013426        0.00045935        0.00036700
      93         -0.391306        1.000000        0.00004936        0.00009576        0.00011061        0.00008987
      94         -0.309737        1.000000        0.00105733        0.00672189        0.00050535        0.01195709
      95         -0.281009        1.000000        0.00537167        0.02786035        0.24254399        0.01307189
      96         -0.277422        1.000000        0.00803291        0.15502391        0.07449248        0.04395001
      97         -0.276207        1.000000        0.00312593        0.09475644        0.04684958        0.09355189
      98         -0.275305        1.000000        0.01008301        0.02068756        0.10916939        0.13712599
      99         -0.274032        1.000000        0.00666930        0.06275261        0.02166138        0.16904184
     100         -0.273273        1.000000        0.00588210        0.11099003        0.03979493        0.11989867
     101         -0.269060        1.000000        0.00361536        0.03756433        0.14700650        0.07676489
     102         -0.268108        1.000000        0.01025989        0.10585198        0.10495189        0.04522246
     103         -0.266093        1.000000        0.00341854        0.09771072        0.05155117        0.12611565
     104         -0.264011        1.000000        0.00259728        0.15534220        0.06979109        0.03337712
     105         -0.261648        1.000000        0.00284866        0.12865777        0.12187188        0.02251122
     106         -0.258260        1.000000        0.00092307        0.04130933        0.04558431        0.17611905
     107         -0.251562        1.000000        0.00041384        0.00400035        0.09851362        0.08420291
     108         -0.250544        1.000000        0.00219035        0.05372014        0.06041947        0.03957304
     109         -0.248647        1.000000        0.00225126        0.03855352        0.08208606        0.03173984
     110         -0.246935        1.000000        0.00065614        0.02706261        0.07112957        0.12655442
     111         -0.244596        1.000000        0.00410764        0.08353853        0.09547353        0.04299159
     112         -0.242373        1.000000        0.00267657        0.02978723        0.10068585        0.08417521
     113         -0.241910        1.000000        0.00328020        0.01478045        0.04849408        0.14370608
     114         -0.239507        1.000000        0.00481280        0.01589714        0.13354817        0.04489570
     115         -0.238608        1.000000        0.00380208        0.04281143        0.04279369        0.10511086
     116         -0.236250        1.000000        0.00745469        0.12933869        0.02733773        0.01437307
     117         -0.234516        1.000000        0.00312527        0.13350339        0.03712891        0.02449751
     118         -0.231694        1.000000        0.00162729        0.00731993        0.02790195        0.02146842
     119         -0.230936        1.000000        0.00172479        0.00832299        0.01932718        0.02543969
     120         -0.228902        1.000000        0.00931571        0.02009061        0.01636681        0.06121566
     121         -0.227955        1.000000        0.00322277        0.06434500        0.01233847        0.00850632
     122         -0.225237        1.000000        0.00803459        0.05388912        0.03499153        0.03558588
     123         -0.223259        1.000000        0.00040453        0.00418659        0.00397382        0.01051470
     124         -0.221629        1.000000        0.00317504        0.00930218        0.00538882        0.00687067
     125         -0.220805        1.000000        0.00430432        0.02181771        0.00607011        0.01508207
     126         -0.220063        1.000000        0.00056150        0.00854685        0.00300895        0.00633593
     127         -0.218766        1.000000        0.00752508        0.02520837        0.01687608        0.01198723
     128         -0.217761        1.000000        0.00631822        0.02411596        0.00514568        0.00272770
     129         -0.216531        1.000000        0.00138719        0.00182315        0.00703556        0.00319749
     130         -0.215519        1.000000        0.01206235        0.05804161        0.01105197        0.01514364
     131         -0.214089        1.000000        0.00585515        0.00793056        0.01319198        0.00766145
     132         -0.213016        1.000000        0.00175538        0.00659384        0.00235489        0.00206757
     133         -0.212147        1.000000        0.00244980        0.00861593        0.00125706        0.00434462
     134         -0.211178        1.000000        0.00211408        0.00551180        0.00456965        0.00258596
     135         -0.210597        1.000000        0.00234483        0.00740107        0.00227634        0.00349898
     136         -0.210307        1.000000        0.00476948        0.01208387        0.00202919        0.00346373
     137         -0.209349        1.000000        0.00161361        0.00248864        0.00175213        0.00416299
     138         -0.208319        1.000000        0.00517007        0.00734301        0.00124676        0.00488214
     139         -0.207435        1.000000        0.00082484        0.00489841        0.00119121        0.00288935
     140         -0.207083        1.000000        0.00318541        0.00458159        0.00141501        0.00300748
     141         -0.205745        1.000000        0.00536687        0.01291626        0.00166543        0.00204622
     142         -0.204468        1.000000        0.00291229        0.00508280        0.00087925        0.00200791
     143         -0.204221        1.000000        0.00200678        0.00185775        0.00149251        0.00130986
     144         -0.202674        1.000000        0.00322596        0.00465643        0.00033120        0.00033748
     145         -0.201840        1.000000        0.00290143        0.00138369        0.00201890        0.00279626
     146         -0.201029        1.000000        0.00247532        0.00399528        0.00168177        0.00072250
     147         -0.199708        1.000000        0.00386451        0.00116670        0.00030338        0.00199110
     148         -0.198281        1.000000        0.00219633        0.00118758        0.00082536        0.00051427
     149         -0.197785        1.000000        0.00405457        0.00179988        0.00130477        0.00159016
     150         -0.196766        1.000000        0.00230753        0.00090864        0.00045733        0.00033634
     151         -0.196541        1.000000        0.00726728        0.00242049        0.00340036        0.00265486
     152         -0.196098        1.000000        0.00775242        0.00267067        0.00242300        0.00290279
     153         -0.195612        1.000000        0.00470055        0.00202420        0.00181619        0.00178177
     154         -0.195201        1.000000        0.00919242        0.00286991        0.00265391        0.00269687
     155         -0.194645        1.000000        0.00846698        0.00631709        0.00144682        0.00310853
     156         -0.194404        1.000000        0.00354538        0.00191587        0.00113003        0.00140614
     157         -0.194013        1.000000        0.00429610        0.00070916        0.00129995        0.00069093
     158         -0.193602        1.000000        0.00361909        0.00082018        0.00109781        0.00068124
     159         -0.193023        1.000000        0.00120752        0.00040203        0.00051004        0.00060690
     160         -0.192898        1.000000        0.00068287        0.00057360        0.00034895        0.00035566
     161         -0.192598        1.000000        0.00324147        0.00091990        0.00055029        0.00128224
     162         -0.192423        1.000000        0.00429060        0.00133654        0.00101007        0.00074772
     163         -0.191892        1.000000        0.00320962        0.00094704        0.00057958        0.00014445
     164         -0.191300        1.000000        0.00942827        0.00192711        0.00119514        0.00227918
     165         -0.190937        1.000000        0.00074376        0.00072698        0.00028335        0.00015431
     166         -0.190180        1.000000        0.00077567        0.00029710        0.00035163        0.00036851
     167         -0.189729        1.000000        0.00740094        0.00334588        0.00120426        0.00119927
     168         -0.189331        1.000000        0.00532569        0.00216197        0.00137229        0.00088418
     169         -0.189153        1.000000        0.01033822        0.00410992        0.00146767        0.00174446
     170         -0.188695        1.000000        0.01390623        0.00384149        0.00115543        0.00311036
     171         -0.188070        1.000000        0.00291168        0.00037268        0.00049429        0.00060406
     172         -0.187763        1.000000        0.01002320        0.00145663        0.00277192        0.00070711
     173         -0.187507        1.000000        0.00658174        0.00122930        0.00151602        0.00126749
     174         -0.186782        1.000000        0.00518484        0.00031681        0.00117168        0.00098428
     175         -0.186384        1.000000        0.00135832        0.00028981        0.00033636        0.00046178
     176         -0.186141        1.000000        0.00121541        0.00013478        0.00041202        0.00036111
     177         -0.185765        1.000000        0.01115264        0.00160507        0.00114032        0.00127389
     178         -0.185635        1.000000        0.01999285        0.00101188        0.00150232        0.00324951
     179         -0.185458        1.000000        0.00243458        0.00026851        0.00037494        0.00039264
     180         -0.185256        1.000000        0.01053001        0.00042676        0.00039093        0.00103217
     181         -0.185123        1.000000        0.00254834        0.00020966        0.00030513        0.00039598
     182         -0.184925        1.000000        0.01058830        0.00043885        0.00070927        0.00091767
     183         -0.183990        1.000000        0.00345431        0.00023397        0.00050503        0.00033174
     184         -0.183834        1.000000        0.01897060        0.00108614        0.00144641        0.00154214
     185         -0.183721        1.000000        0.02358655        0.00210342        0.00275416        0.00092681
     186         -0.183045        1.000000        0.00499175        0.00044804        0.00033685        0.00027463
     187         -0.182989        1.000000        0.01319220        0.00202200        0.00059018        0.00057877
     188         -0.182631        1.000000        0.00543580        0.00085782        0.00035431        0.00009310
     189         -0.182148        1.000000        0.01182388        0.00059256        0.00074653        0.00077217
     190         -0.181966        1.000000        0.00555592        0.00024560        0.00020134        0.00063304
     191         -0.181879        1.000000        0.01036183        0.00034106        0.00079218        0.00053007
     192         -0.181752        1.000000        0.01647823        0.00099080        0.00091472        0.00104512
     193         -0.181530        1.000000        0.01854137        0.00059125        0.00131467        0.00177418
     194         -0.181503        1.000000        0.01958305        0.00049090        0.00056029        0.00203983
     195         -0.181050        1.000000        0.00395472        0.00007938        0.00035532        0.00034836
     196         -0.180997        0.000000        0.01683332        0.00018512        0.00151041        0.00124310
     197         -0.180624        0.000000        0.03056014        0.00174136        0.00237216        0.00134378
     198         -0.180319        0.000000        0.06560895        0.00397775        0.00149939        0.00247520
     199         -0.179955        0.000000        0.03026739        0.00089620        0.00154704        0.00062326
     200         -0.179197        0.000000        0.10050754        0.00314026        0.00193776        0.00503861
     201         -0.175047        0.000000        0.14531135        0.00175010        0.00159986        0.00123037
     202         -0.092100        0.000000        0.00895004        0.66026187        0.06940328        0.04279549
     203         -0.072478        0.000000        0.00492730        0.67224685        0.03666285        0.03655144
     204         -0.060444        0.000000        0.00540139        0.52019154        0.11793295        0.07784068
     205         -0.056125        0.000000        0.00847861        0.33993913        0.07630490        0.29208949
     206         -0.053815        0.000000        0.00875263        0.09184109        0.16741173        0.43817597
     207         -0.053235        0.000000        0.00297721        0.25191570        0.22398502        0.23532316
     208         -0.051746        0.000000        0.00571656        0.05545945        0.25856046        0.38471602
     209         -0.048188        0.000000        0.00533379        0.10357640        0.51330394        0.08513471
     210         -0.047622        0.000000        0.00504843        0.06388784        0.36447852        0.26839279
     211         -0.046035        0.000000        0.00302461        0.06661577        0.01535813        0.62517297
     212         -0.042411        0.000000        0.00063385        0.04797543        0.38204322        0.27187983
     213         -0.040581        0.000000        0.00140787        0.14327273        0.49391559        0.06621532
     214         -0.033940        0.000000        0.00212628        0.30680085        0.08595239        0.30217789
     215         -0.028124        0.000000        0.00148580        0.44473348        0.02977074        0.22292178
     216         -0.025123        0.000000        0.00059415        0.21000564        0.26699798        0.21229001
     217         -0.024235        0.000000        0.00049903        0.18938355        0.42727873        0.07412261
     218         -0.023504        0.000000        0.00134061        0.15114871        0.02156093        0.51374566
     219         -0.020342        0.000000        0.00040345        0.43395724        0.19703872        0.04600101
     220         -0.017567        0.000000        0.00051510        0.14054305        0.45048182        0.09233441
     221         -0.014394        0.000000        0.00014209        0.00500500        0.59341092        0.07583998
     222         -0.009601        0.000000        0.00033222        0.09458228        0.05374468        0.52101213
     223         -0.007752        0.000000        0.00017364        0.23780429        0.05073737        0.38396664
     224         -0.005612        0.000000        0.00012544        0.37467487        0.02551979        0.27212691
     225         -0.002039        0.000000        0.00017360        0.03343188        0.62385519        0.00788931
     226          0.079913        0.000000        0.00000069        0.00015161        0.00000871        0.00006920
     227          0.101052        0.000000        0.00000911        0.00008496        0.00019284        0.00000764
     228          0.102677        0.000000        0.00000256        0.00005762        0.00006085        0.00005847
     229          0.110137        0.000000        0.00000044        0.00000497        0.00008964        0.00004851
     230          0.112170        0.000000        0.00000110        0.00005112        0.00004361        0.00001792
     231          0.121425        0.000000        0.00000047        0.00018103        0.00029627        0.00007775
     232          0.122398        0.000000        0.00000225        0.00001268        0.00006840        0.00001192
     233          0.154620        0.000000        0.00000054        0.00001490        0.00001585        0.00001660
     234          0.190685        0.000000        0.00000025        0.00000357        0.00000381        0.00000039
     235          0.202930        0.000000        0.00000128        0.00001479        0.00000093        0.00000642
     236          0.255281        0.000000        0.00000122        0.00000419        0.00000342        0.00001459
     237          0.277238        0.000000        0.00000119        0.00001566        0.00001853        0.00000589
     238          0.282469        0.000000        0.00000372        0.00003364        0.00008844        0.00001263
     239          0.288735        0.000000        0.00000904        0.00010940        0.00002523        0.00001598
     240          0.290634        0.000000        0.00001169        0.00000247        0.00000073        0.00016232
     241          0.291156        0.000000        0.00000422        0.00010105        0.00006506        0.00000860
     242          0.294762        0.000000        0.00000075        0.00004636        0.00003298        0.00002611
     243          0.295774        0.000000        0.00000164        0.00005226        0.00004325        0.00002409
     244          0.297890        0.000000        0.00000090        0.00001930        0.00004357        0.00001687
     245          0.299995        0.000000        0.00000287        0.00002150        0.00002357        0.00003563
     246          0.300462        0.000000        0.00000199        0.00001803        0.00012966        0.00002894
     247          0.301475        0.000000        0.00000114        0.00006268        0.00011312        0.00002320
     248          0.301727        0.000000        0.00000154        0.00000970        0.00000869        0.00000820
     249          0.308977        0.000000        0.00001159        0.00002947        0.00018246        0.00002853
     250          0.336672        0.000000        0.00000568        0.00004568        0.00000589        0.00002113
     251          0.338169        0.000000        0.00000222        0.00000689        0.00009936        0.00000935
     252          0.344043        0.000000        0.00000523        0.00004370        0.00006665        0.00004416
     253          0.355343        0.000000        0.00000315        0.00000213        0.00005622        0.00001168
     254          0.446846        0.000000        0.00000041        0.00000197        0.00000241        0.00000561
     255          0.447278        0.000000        0.00000025        0.00000305        0.00000484        0.00000199
     256          0.448999        0.000000        0.00000014        0.00000297        0.00000131        0.00000634
     257          0.453996        0.000000        0.00000005        0.00005091        0.00010014        0.00003426
     258          0.456903        0.000000        0.00000065        0.00000291        0.00001813        0.00000289
     259          0.461357        0.000000        0.00000039        0.00001010        0.00001244        0.00000333