# Projected DOS for atomic kind C at iteration step i = 0, E(Fermi) =    -0.180419 a.u.
#     MO Eigenvalue [a.u.]      Occupation                 s                py                pz                px
       1         -0.970340        1.000000        0.05804105        0.00046618        0.00000030        0.04435758
       2         -0.969203        1.000000        0.06184381        0.00005069        0.00353906        0.04408033
       3         -0.959967        1.000000        0.06336156        0.00174900        0.01544830        0.03014268
       4         -0.947088        1.000000        0.05990494        0.00000001        0.00598055        0.03865603
       5         -0.939761        1.000000        0.05974328        0.00018222        0.00787914        0.03617807
       6         -0.934889        1.000000        0.06153842        0.00003792        0.00776312        0.03711032
       7         -0.931287        1.000000        0.06433162        0.00000038        0.00276725        0.04287762
       8         -0.702552        1.000000        0.42200656        0.00001894        0.00004893        0.00012890
       9         -0.702387        1.000000        0.43845888        0.00000868        0.00000406        0.00053969
      10         -0.696161        1.000000        0.43001192        0.00004749        0.00004867        0.00059518
      11         -0.687025        1.000000        0.43343962        0.00000381        0.00009038        0.00066912
      12         -0.680511        1.000000        0.43902738        0.00001164        0.00016870        0.00086689
      13         -0.678835        1.000000        0.43091753        0.00000000        0.00023424        0.00024995
      14         -0.678713        1.000000        0.43296597        0.00000713        0.00003457        0.00134811
      15         -0.630785        1.000000        0.00002184        0.00002438        0.00060648        0.00001297
      16         -0.600217        1.000000        0.00007307        0.00825681        0.02232883        0.00025015
      17         -0.597538        1.000000        0.00046161        0.00343267        0.00429816        0.00025439
      18         -0.597350        1.000000        0.00045173        0.00357028        0.00252030        0.00107133
      19         -0.596587        1.000000        0.00002899        0.03834709        0.01357267        0.00119858
      20         -0.595270        1.000000        0.00094361        0.00344688        0.00497909        0.00110861
      21         -0.592822        1.000000        0.00113808        0.00206612        0.00278730        0.00091683
      22         -0.591024        1.000000        0.00042141        0.01462793        0.00069823        0.00031616
      23         -0.590607        1.000000        0.00008453        0.03872262        0.00233302        0.00041199
      24         -0.589488        1.000000        0.00015035        0.02303943        0.00126272        0.00028796
      25         -0.587851        1.000000        0.00060692        0.00657734        0.00175216        0.00027090
      26         -0.583948        1.000000        0.00008854        0.01026470        0.02081802        0.00032678
      27         -0.583008        1.000000        0.00010390        0.00250046        0.00471496        0.00024620
      28         -0.581592        1.000000        0.00018440        0.00266772        0.00180222        0.00027170
      29         -0.580143        1.000000        0.00048449        0.00925355        0.00193168        0.00075471
      30         -0.579619        1.000000        0.00016504        0.00533591        0.00222825        0.00018793
      31         -0.578046        1.000000        0.00014900        0.00204501        0.00026048        0.00026899
      32         -0.576909        1.000000        0.00035659        0.00373342        0.01245687        0.00258669
      33         -0.576465        1.000000        0.00085904        0.01393705        0.03261515        0.00721519
      34         -0.576025        1.000000        0.00061220        0.00682223        0.01748473        0.00566208
      35         -0.573789        1.000000        0.00017082        0.00068034        0.00901828        0.00249269
      36         -0.573675        1.000000        0.00021806        0.00103045        0.00727711        0.00164879
      37         -0.573063        1.000000        0.00008165        0.00010280        0.00112610        0.00025919
      38         -0.572165        1.000000        0.00005053        0.00034682        0.00009215        0.00008486
      39         -0.571789        1.000000        0.00012517        0.00087565        0.00057572        0.00013735
      40         -0.571018        1.000000        0.00045085        0.00029998        0.00878211        0.00310232
      41         -0.568288        1.000000        0.00013052        0.00273813        0.00306433        0.00045452
      42         -0.567230        1.000000        0.00003299        0.00135193        0.00407256        0.00114722
      43         -0.566721        1.000000        0.00005883        0.00054284        0.00252744        0.00072828
      44         -0.565843        1.000000        0.00009028        0.00212034        0.01490710        0.00494855
      45         -0.565133        1.000000        0.00004401        0.00683678        0.02094148        0.00418805
      46         -0.564432        1.000000        0.00008389        0.00038842        0.00021300        0.00027701
      47         -0.564211        1.000000        0.00023558        0.00298230        0.00535012        0.00104352
      48         -0.563921        1.000000        0.00008354        0.00120686        0.00149594        0.00047332
      49         -0.562550        1.000000        0.00000783        0.00006863        0.00162779        0.00040656
      50         -0.561314        1.000000        0.00002405        0.00188064        0.00204225        0.00041825
      51         -0.561193        1.000000        0.00007664        0.00378901        0.00533350        0.00077314
      52         -0.559549        1.000000        0.00001849        0.00179545        0.00243348        0.00043323
      53         -0.559390        1.000000        0.00006133        0.00239697        0.00364508        0.00203693
      54         -0.559341        1.000000        0.00007771        0.02121250        0.00560216        0.00145512
      55         -0.557918        1.000000        0.00001798        0.01178693        0.02328438        0.00492804
      56         -0.557783        1.000000        0.00009927        0.01417950        0.00524448        0.00129068
      57         -0.557312        1.000000        0.00002489        0.00048166        0.00032561        0.00003722
      58         -0.555329        1.000000        0.00007591        0.00268904        0.00099593        0.00026870
      59         -0.554063        1.000000        0.00010434        0.03766679        0.01051573        0.00546804
      60         -0.549561        1.000000        0.00021247        0.00654695        0.04137952        0.00997501
      61         -0.549073        1.000000        0.00057940        0.02160932        0.02900235        0.00126050
      62         -0.546932        1.000000        0.00000074        0.00000283        0.00001363        0.00000441
      63         -0.545270        1.000000        0.00001026        0.05127426        0.00348775        0.00137542
      64         -0.537611        1.000000        0.00001494        0.04003596        0.02089065        0.00184964
      65         -0.490722        1.000000        0.03776295        0.00011789        0.02704160        0.30922720
      66         -0.487211        1.000000        0.03051973        0.00374936        0.00166151        0.33017730
      67         -0.481362        1.000000        0.03131338        0.01171427        0.10237286        0.22269835
      68         -0.469921        1.000000        0.02766846        0.00000774        0.04927139        0.28750305
      69         -0.465166        1.000000        0.00136643        0.00020506        0.00294525        0.01454269
      70         -0.463457        1.000000        0.02413013        0.00185537        0.04989441        0.26541146
      71         -0.460468        1.000000        0.00601861        0.00034243        0.01063085        0.06143674
      72         -0.460101        1.000000        0.02161114        0.00015422        0.01729410        0.28888605
      73         -0.459336        1.000000        0.02102838        0.00025127        0.04126817        0.18509241
      74         -0.457619        1.000000        0.00429927        0.00008885        0.00816828        0.04419268
      75         -0.456451        1.000000        0.00081261        0.00020362        0.00117923        0.00929463
      76         -0.454306        1.000000        0.00115606        0.00017761        0.00189547        0.01180748
      77         -0.452184        1.000000        0.00070586        0.00009167        0.00186589        0.00776107
      78         -0.450487        1.000000        0.00062699        0.00017646        0.00179879        0.00509173
      79         -0.446541        1.000000        0.00044261        0.00015580        0.00135805        0.00360835
      80         -0.416370        1.000000        0.00003842        0.39855548        0.14512990        0.00265153
      81         -0.415034        1.000000        0.00001532        0.14142454        0.39732496        0.00489808
      82         -0.411661        1.000000        0.00001258        0.35610484        0.16787389        0.01848868
      83         -0.410129        1.000000        0.00002671        0.52079097        0.01154029        0.01006017
      84         -0.408496        1.000000        0.00001524        0.18026786        0.32576426        0.02277893
      85         -0.407551        1.000000        0.00000663        0.00281885        0.34991497        0.17731123
      86         -0.401007        1.000000        0.00001196        0.11705522        0.35610660        0.05749188
      87         -0.400351        1.000000        0.00000048        0.41067179        0.10106714        0.01632080
      88         -0.395138        1.000000        0.00002416        0.48801772        0.02975356        0.00206303
      89         -0.394759        1.000000        0.00001394        0.15629504        0.30417715        0.07499299
      90         -0.394362        1.000000        0.00000890        0.35954242        0.16170421        0.01604068
      91         -0.393590        1.000000        0.00001966        0.01583934        0.41709081        0.09269555
      92         -0.392926        1.000000        0.00002049        0.05088964        0.44776273        0.02844894
      93         -0.391150        1.000000        0.00000044        0.51047274        0.01614183        0.00131680
      94         -0.308320        1.000000        0.00006250        0.00015935        0.00029375        0.00011305
      95         -0.280655        1.000000        0.00003854        0.00006304        0.00014207        0.00021579
      96         -0.277269        1.000000        0.00005292        0.00050154        0.00008361        0.00009045
      97         -0.275754        1.000000        0.00008020        0.00065620        0.00050916        0.00003461
      98         -0.274904        1.000000        0.00004521        0.00038458        0.00033296        0.00008854
      99         -0.273775        1.000000        0.00003043        0.00065425        0.00012166        0.00003913
     100         -0.273037        1.000000        0.00010281        0.00038122        0.00023496        0.00004704
     101         -0.268611        1.000000        0.00010054        0.00016507        0.00024150        0.00012132
     102         -0.267581        1.000000        0.00003108        0.00018031        0.00029465        0.00009175
     103         -0.265807        1.000000        0.00004109        0.00042218        0.00005733        0.00019890
     104         -0.263537        1.000000        0.00005936        0.00044152        0.00035325        0.00017671
     105         -0.261036        1.000000        0.00004795        0.00021761        0.00009826        0.00002985
     106         -0.257635        1.000000        0.00008902        0.00037472        0.00035125        0.00005200
     107         -0.251186        1.000000        0.00024703        0.00008580        0.00014764        0.00040067
     108         -0.250095        1.000000        0.00046392        0.00078978        0.00032327        0.00080850
     109         -0.248303        1.000000        0.00078180        0.00071479        0.00013585        0.00036456
     110         -0.246338        1.000000        0.00011006        0.00005280        0.00026430        0.00029680
     111         -0.244068        1.000000        0.00016532        0.00036957        0.00065849        0.00038951
     112         -0.241861        1.000000        0.00025795        0.00034630        0.00010584        0.00044950
     113         -0.241264        1.000000        0.00031593        0.00045313        0.00021441        0.00060442
     114         -0.238936        1.000000        0.00026735        0.00023377        0.00054955        0.00074472
     115         -0.238243        1.000000        0.00013938        0.00085772        0.00007095        0.00030647
     116         -0.235971        1.000000        0.00019454        0.00056752        0.00071502        0.00071441
     117         -0.234141        1.000000        0.00024802        0.00025980        0.00015952        0.00038886
     118         -0.231161        1.000000        0.00022413        0.00063357        0.00033551        0.00198714
     119         -0.230224        1.000000        0.00127289        0.00045576        0.00040928        0.00113491
     120         -0.228195        1.000000        0.00026000        0.00067282        0.00008832        0.00108399
     121         -0.227724        1.000000        0.00058297        0.00031101        0.00085983        0.00050243
     122         -0.224651        1.000000        0.00005380        0.00013745        0.00035031        0.00054081
     123         -0.223420        1.000000        0.00090560        0.00015481        0.00174949        0.00024214
     124         -0.221089        1.000000        0.00037583        0.00101129        0.00091315        0.00056649
     125         -0.220334        1.000000        0.00043716        0.00051546        0.00056333        0.00041113
     126         -0.219484        1.000000        0.00047104        0.00161812        0.00069190        0.00088823
     127         -0.218237        1.000000        0.00028468        0.00035596        0.00042633        0.00045793
     128         -0.217128        1.000000        0.00049141        0.00008397        0.00020903        0.00029029
     129         -0.215923        1.000000        0.00020949        0.00149598        0.00021130        0.00022343
     130         -0.215016        1.000000        0.00051805        0.00021191        0.00049742        0.00015562
     131         -0.213329        1.000000        0.00028171        0.00009227        0.00053907        0.00060575
     132         -0.212440        1.000000        0.00025211        0.00024563        0.00061152        0.00034641
     133         -0.211672        1.000000        0.00027592        0.00121814        0.00068096        0.00019470
     134         -0.210698        1.000000        0.00020269        0.00019191        0.00077533        0.00023043
     135         -0.210588        1.000000        0.00016986        0.00029353        0.00069276        0.00032439
     136         -0.209886        1.000000        0.00006228        0.00143787        0.00046792        0.00024060
     137         -0.208512        1.000000        0.00010036        0.00020581        0.00032477        0.00012197
     138         -0.208285        1.000000        0.00022670        0.00071741        0.00025162        0.00018528
     139         -0.207422        1.000000        0.00023708        0.00037618        0.00036450        0.00029356
     140         -0.206349        1.000000        0.00012382        0.00020561        0.00050673        0.00010884
     141         -0.205739        1.000000        0.00016726        0.00037271        0.00012433        0.00022879
     142         -0.204164        1.000000        0.00013731        0.00009850        0.00028976        0.00048273
     143         -0.203749        1.000000        0.00010081        0.00007503        0.00021971        0.00009484
     144         -0.201934        1.000000        0.00032074        0.00011139        0.00024322        0.00013523
     145         -0.201162        1.000000        0.00039578        0.00031684        0.00046217        0.00048783
     146         -0.199849        1.000000        0.00008009        0.00050203        0.00009401        0.00003995
     147         -0.199382        1.000000        0.00011284        0.00029285        0.00022292        0.00021087
     148         -0.197960        1.000000        0.00025343        0.00018918        0.00044308        0.00016653
     149         -0.197466        1.000000        0.00016035        0.00004189        0.00057923        0.00025667
     150         -0.196515        1.000000        0.00009230        0.00013350        0.00078879        0.00025346
     151         -0.196411        1.000000        0.00023040        0.00047097        0.00049412        0.00014540
     152         -0.195643        1.000000        0.00017695        0.00008128        0.00018291        0.00017781
     153         -0.195031        1.000000        0.00005588        0.00011558        0.00012664        0.00009623
     154         -0.194653        1.000000        0.00009997        0.00034285        0.00018135        0.00007444
     155         -0.194507        1.000000        0.00005998        0.00011028        0.00070060        0.00010289
     156         -0.194076        1.000000        0.00009439        0.00042420        0.00030444        0.00007912
     157         -0.193426        1.000000        0.00014293        0.00026892        0.00072834        0.00008011
     158         -0.193162        1.000000        0.00008614        0.00038196        0.00010825        0.00003487
     159         -0.192732        1.000000        0.00009961        0.00048485        0.00061424        0.00009398
     160         -0.192311        1.000000        0.00004832        0.00004559        0.00014996        0.00003930
     161         -0.191710        1.000000        0.00004218        0.00043357        0.00003257        0.00005690
     162         -0.191578        1.000000        0.00018850        0.00128825        0.00020162        0.00009904
     163         -0.191384        1.000000        0.00004967        0.00004985        0.00013823        0.00013917
     164         -0.190859        1.000000        0.00001532        0.00007479        0.00017016        0.00005295
     165         -0.190077        1.000000        0.00032483        0.00022204        0.00019274        0.00012512
     166         -0.189600        1.000000        0.00008727        0.00011712        0.00004754        0.00006624
     167         -0.189241        1.000000        0.00002742        0.00021587        0.00030996        0.00001908
     168         -0.188974        1.000000        0.00023271        0.00022023        0.00011564        0.00022884
     169         -0.188395        1.000000        0.00013262        0.00034791        0.00028837        0.00007299
     170         -0.187897        1.000000        0.00006620        0.00041245        0.00036653        0.00010793
     171         -0.187674        1.000000        0.00006870        0.00043779        0.00016173        0.00010164
     172         -0.186909        1.000000        0.00004727        0.00009700        0.00019576        0.00030040
     173         -0.186515        1.000000        0.00018655        0.00024464        0.00026986        0.00005097
     174         -0.186298        1.000000        0.00019877        0.00018846        0.00035465        0.00018314
     175         -0.185709        1.000000        0.00003984        0.00003563        0.00006232        0.00012061
     176         -0.185539        1.000000        0.00006057        0.00049942        0.00018524        0.00002780
     177         -0.185330        1.000000        0.00009217        0.00004896        0.00033903        0.00002676
     178         -0.185204        1.000000        0.00014225        0.00003146        0.00023708        0.00005987
     179         -0.185044        1.000000        0.00005961        0.00001297        0.00054510        0.00007164
     180         -0.184362        1.000000        0.00004287        0.00100612        0.00006235        0.00004477
     181         -0.184075        1.000000        0.00003374        0.00003668        0.00005436        0.00002699
     182         -0.183891        1.000000        0.00002566        0.00009033        0.00001923        0.00001897
     183         -0.183601        1.000000        0.00017830        0.00006819        0.00023690        0.00006960
     184         -0.183050        1.000000        0.00011777        0.00001640        0.00027969        0.00004624
     185         -0.182655        1.000000        0.00014120        0.00016332        0.00013174        0.00015251
     186         -0.182288        1.000000        0.00002186        0.00001054        0.00004736        0.00002214
     187         -0.181942        1.000000        0.00003837        0.00003039        0.00008339        0.00006984
     188         -0.181794        1.000000        0.00008439        0.00003333        0.00014817        0.00004918
     189         -0.181540        1.000000        0.00001445        0.00002948        0.00002868        0.00006007
     190         -0.181230        1.000000        0.00003547        0.00010922        0.00004581        0.00005259
     191         -0.181120        1.000000        0.00003438        0.00006655        0.00003589        0.00004865
     192         -0.180757        1.000000        0.00004275        0.00003137        0.00006471        0.00001245
     193         -0.180560        1.000000        0.00012158        0.00028524        0.00011685        0.00006970
     194         -0.180419        1.000000        0.00001780        0.00001398        0.00004289        0.00002753
     195         -0.180166        0.000000        0.00003430        0.00016310        0.00006593        0.00001167
     196         -0.179883        0.000000        0.00004285        0.00004894        0.00007468        0.00003410
     197         -0.179763        0.000000        0.00006211        0.00004099        0.00004901        0.00002507
     198         -0.179429        0.000000        0.00005382        0.00005440        0.00008489        0.00006160
     199         -0.178703        0.000000        0.00002034        0.00004793        0.00007564        0.00001294
     200         -0.178061        0.000000        0.00001255        0.00002311        0.00003514        0.00003090
     201         -0.174655        0.000000        0.00003679        0.00001557        0.00006031        0.00001903
     202         -0.091981        0.000000        0.00001811        0.00001922        0.00001003        0.00001641
     203         -0.072048        0.000000        0.00002429        0.00002258        0.00002617        0.00005134
     204         -0.060219        0.000000        0.00001547        0.00000889        0.00003099        0.00004529
     205         -0.055875        0.000000        0.00005437        0.00002435        0.00001205        0.00002061
     206         -0.053417        0.000000        0.00001348        0.00002398        0.00002607        0.00004135
     207         -0.052956        0.000000        0.00000684        0.00001018        0.00002422        0.00004891
     208         -0.051409        0.000000        0.00000716        0.00005542        0.00002730        0.00001582
     209         -0.047869        0.000000        0.00001504        0.00002300        0.00001523        0.00001253
     210         -0.047368        0.000000        0.00007037        0.00005391        0.00002457        0.00003478
     211         -0.045836        0.000000        0.00010419        0.00007045        0.00005052        0.00000835
     212         -0.042107        0.000000        0.00003829        0.00004165        0.00001929        0.00003299
     213         -0.040360        0.000000        0.00009105        0.00005424        0.00008081        0.00008273
     214         -0.033415        0.000000        0.00001955        0.00001581        0.00001523        0.00003701
     215         -0.027638        0.000000        0.00002995        0.00003254        0.00000668        0.00002662
     216         -0.024762        0.000000        0.00005008        0.00002847        0.00002333        0.00005221
     217         -0.023871        0.000000        0.00002483        0.00002136        0.00001810        0.00003994
     218         -0.023081        0.000000        0.00001981        0.00000823        0.00001646        0.00004101
     219         -0.020161        0.000000        0.00000842        0.00000402        0.00002159        0.00005670
     220         -0.017288        0.000000        0.00001883        0.00000620        0.00003802        0.00010411
     221         -0.014051        0.000000        0.00001546        0.00000768        0.00001408        0.00004087
     222         -0.009505        0.000000        0.00006739        0.00001117        0.00003344        0.00013288
     223         -0.007656        0.000000        0.00000651        0.00000190        0.00000762        0.00001207
     224         -0.005519        0.000000        0.00003143        0.00003825        0.00000650        0.00006052
     225         -0.001781        0.000000        0.00001824        0.00001847        0.00000803        0.00006445
     226          0.080045        0.000000        0.08293966        0.00652158        0.00005034        0.54575062
     227          0.101171        0.000000        0.08169679        0.02121076        0.17583792        0.35292627
     228          0.102816        0.000000        0.07996701        0.00084971        0.04625352        0.49526195
     229          0.110257        0.000000        0.08351551        0.00305773        0.10089733        0.44494175
     230          0.112276        0.000000        0.07915519        0.00011278        0.07485879        0.47752071
     231          0.121533        0.000000        0.08063644        0.00002206        0.03460301        0.51064395
     232          0.122539        0.000000        0.07297167        0.00035256        0.10196885        0.45362536
     233          0.154823        0.000000        0.00393221        0.00008617        0.00016102        0.01161550
     234          0.190852        0.000000        0.00199676        0.00071060        0.00195323        0.00040879
     235          0.203100        0.000000        0.00244542        0.00100278        0.00080661        0.00379354
     236          0.255432        0.000000        0.00118489        0.00249784        0.00199040        0.00020466
     237          0.277395        0.000000        0.00004866        0.00387920        0.00244819        0.00064013
     238          0.282602        0.000000        0.00041475        0.00562091        0.00144702        0.00010751
     239          0.288867        0.000000        0.00000985        0.00317366        0.00231756        0.00018376
     240          0.290796        0.000000        0.00323823        0.00322687        0.00055647        0.00050620
     241          0.291296        0.000000        0.00004833        0.00269418        0.00378415        0.00020304
     242          0.294905        0.000000        0.00001456        0.00083921        0.00368864        0.00115385
     243          0.295907        0.000000        0.00031623        0.00650337        0.00009898        0.00023792
     244          0.298025        0.000000        0.00001284        0.00108134        0.00361089        0.00110724
     245          0.300158        0.000000        0.00323908        0.00277350        0.00060385        0.00009966
     246          0.300607        0.000000        0.00029501        0.00581562        0.00115404        0.00030697
     247          0.301599        0.000000        0.00000543        0.00514041        0.00109122        0.00019940
     248          0.301895        0.000000        0.00002229        0.00053624        0.00654959        0.00050065
     249          0.309107        0.000000        0.00391177        0.00000380        0.00246776        0.00129864
     250          0.336818        0.000000        0.00534738        0.00002220        0.00008571        0.00013195
     251          0.338310        0.000000        0.00527647        0.00004928        0.00005835        0.00005457
     252          0.344196        0.000000        0.00571241        0.00075180        0.00005986        0.00036423
     253          0.355480        0.000000        0.00679396        0.00000640        0.00010015        0.00055156
     254          0.446971        0.000000        0.00043047        0.36644654        0.01696483        0.00607789
     255          0.447405        0.000000        0.00016227        0.00216513        0.25793031        0.13222965
     256          0.449173        0.000000        0.00018704        0.01650152        0.37542369        0.00013496
     257          0.454124        0.000000        0.00002351        0.10660455        0.26569183        0.02110972
     258          0.457033        0.000000        0.00000100        0.37341571        0.01121349        0.00561959
     259          0.461496        0.000000        0.00039189        0.28193309        0.09437562        0.01211360