# Projected DOS for atomic kind H at iteration step i = 0, E(Fermi) =    -0.180419 a.u.
#     MO Eigenvalue [a.u.]      Occupation                 s
       1         -0.970340        1.000000        0.27642321
       2         -0.969203        1.000000        0.26648138
       3         -0.959967        1.000000        0.26954217
       4         -0.947088        1.000000        0.28178249
       5         -0.939761        1.000000        0.28124917
       6         -0.934889        1.000000        0.28152421
       7         -0.931287        1.000000        0.27764996
       8         -0.702552        1.000000        0.32653542
       9         -0.702387        1.000000        0.33462245
      10         -0.696161        1.000000        0.33415649
      11         -0.687025        1.000000        0.33904348
      12         -0.680511        1.000000        0.34116363
      13         -0.678835        1.000000        0.33814854
      14         -0.678713        1.000000        0.34475593
      15         -0.630785        1.000000        0.00444136
      16         -0.600217        1.000000        0.19089180
      17         -0.597538        1.000000        0.05749542
      18         -0.597350        1.000000        0.03867463
      19         -0.596587        1.000000        0.31754915
      20         -0.595270        1.000000        0.05665344
      21         -0.592822        1.000000        0.02741552
      22         -0.591024        1.000000        0.09113491
      23         -0.590607        1.000000        0.24944289
      24         -0.589488        1.000000        0.14368351
      25         -0.587851        1.000000        0.06882051
      26         -0.583948        1.000000        0.17053643
      27         -0.583008        1.000000        0.03901210
      28         -0.581592        1.000000        0.03507588
      29         -0.580143        1.000000        0.08220352
      30         -0.579619        1.000000        0.05790520
      31         -0.578046        1.000000        0.02396929
      32         -0.576909        1.000000        0.09175048
      33         -0.576465        1.000000        0.24652490
      34         -0.576025        1.000000        0.14987146
      35         -0.573789        1.000000        0.06675967
      36         -0.573675        1.000000        0.05776346
      37         -0.573063        1.000000        0.00559954
      38         -0.572165        1.000000        0.00414104
      39         -0.571789        1.000000        0.00807150
      40         -0.571018        1.000000        0.07538633
      41         -0.568288        1.000000        0.03892319
      42         -0.567230        1.000000        0.03064631
      43         -0.566721        1.000000        0.01613153
      44         -0.565843        1.000000        0.10360093
      45         -0.565133        1.000000        0.17579502
      46         -0.564432        1.000000        0.00237862
      47         -0.564211        1.000000        0.05041551
      48         -0.563921        1.000000        0.01771782
      49         -0.562550        1.000000        0.01170746
      50         -0.561314        1.000000        0.02071648
      51         -0.561193        1.000000        0.04737675
      52         -0.559549        1.000000        0.02170973
      53         -0.559390        1.000000        0.02984372
      54         -0.559341        1.000000        0.13099214
      55         -0.557918        1.000000        0.21246484
      56         -0.557783        1.000000        0.09740761
      57         -0.557312        1.000000        0.00409723
      58         -0.555329        1.000000        0.02153802
      59         -0.554063        1.000000        0.25759954
      60         -0.549561        1.000000        0.25985783
      61         -0.549073        1.000000        0.23025968
      62         -0.546932        1.000000        0.00002996
      63         -0.545270        1.000000        0.23855354
      64         -0.537611        1.000000        0.22093848
      65         -0.490722        1.000000        0.20337986
      66         -0.487211        1.000000        0.18769245
      67         -0.481362        1.000000        0.19194701
      68         -0.469921        1.000000        0.18262466
      69         -0.465166        1.000000        0.00975762
      70         -0.463457        1.000000        0.16913500
      71         -0.460468        1.000000        0.03966331
      72         -0.460101        1.000000        0.16301086
      73         -0.459336        1.000000        0.12598255
      74         -0.457619        1.000000        0.02805326
      75         -0.456451        1.000000        0.00562018
      76         -0.454306        1.000000        0.00700269
      77         -0.452184        1.000000        0.00498919
      78         -0.450487        1.000000        0.00362528
      79         -0.446541        1.000000        0.00239864
      80         -0.416370        1.000000        0.41854472
      81         -0.415034        1.000000        0.41761948
      82         -0.411661        1.000000        0.41743228
      83         -0.410129        1.000000        0.42019475
      84         -0.408496        1.000000        0.42299244
      85         -0.407551        1.000000        0.42301856
      86         -0.401007        1.000000        0.42124671
      87         -0.400351        1.000000        0.42052499
      88         -0.395138        1.000000        0.42340790
      89         -0.394759        1.000000        0.42176475
      90         -0.394362        1.000000        0.42121441
      91         -0.393590        1.000000        0.42581474
      92         -0.392926        1.000000        0.42145602
      93         -0.391150        1.000000        0.42058542
      94         -0.308320        1.000000        0.00038028
      95         -0.280655        1.000000        0.00030053
      96         -0.277269        1.000000        0.00034192
      97         -0.275754        1.000000        0.00070154
      98         -0.274904        1.000000        0.00044699
      99         -0.273775        1.000000        0.00034582
     100         -0.273037        1.000000        0.00037329
     101         -0.268611        1.000000        0.00038499
     102         -0.267581        1.000000        0.00031569
     103         -0.265807        1.000000        0.00042124
     104         -0.263537        1.000000        0.00041529
     105         -0.261036        1.000000        0.00021615
     106         -0.257635        1.000000        0.00041614
     107         -0.251186        1.000000        0.00042946
     108         -0.250095        1.000000        0.00112981
     109         -0.248303        1.000000        0.00072859
     110         -0.246338        1.000000        0.00028038
     111         -0.244068        1.000000        0.00056755
     112         -0.241861        1.000000        0.00047977
     113         -0.241264        1.000000        0.00057258
     114         -0.238936        1.000000        0.00071490
     115         -0.238243        1.000000        0.00048067
     116         -0.235971        1.000000        0.00097010
     117         -0.234141        1.000000        0.00052850
     118         -0.231161        1.000000        0.00210907
     119         -0.230224        1.000000        0.00106354
     120         -0.228195        1.000000        0.00154347
     121         -0.227724        1.000000        0.00103630
     122         -0.224651        1.000000        0.00090928
     123         -0.223420        1.000000        0.00098125
     124         -0.221089        1.000000        0.00158279
     125         -0.220334        1.000000        0.00130607
     126         -0.219484        1.000000        0.00242323
     127         -0.218237        1.000000        0.00143746
     128         -0.217128        1.000000        0.00104665
     129         -0.215923        1.000000        0.00126967
     130         -0.215016        1.000000        0.00053399
     131         -0.213329        1.000000        0.00086049
     132         -0.212440        1.000000        0.00090051
     133         -0.211672        1.000000        0.00102849
     134         -0.210698        1.000000        0.00060217
     135         -0.210588        1.000000        0.00099869
     136         -0.209886        1.000000        0.00060430
     137         -0.208512        1.000000        0.00061929
     138         -0.208285        1.000000        0.00061838
     139         -0.207422        1.000000        0.00106411
     140         -0.206349        1.000000        0.00038893
     141         -0.205739        1.000000        0.00056823
     142         -0.204164        1.000000        0.00131167
     143         -0.203749        1.000000        0.00024618
     144         -0.201934        1.000000        0.00075961
     145         -0.201162        1.000000        0.00101020
     146         -0.199849        1.000000        0.00126697
     147         -0.199382        1.000000        0.00061597
     148         -0.197960        1.000000        0.00072944
     149         -0.197466        1.000000        0.00108003
     150         -0.196515        1.000000        0.00290898
     151         -0.196411        1.000000        0.00077924
     152         -0.195643        1.000000        0.00074125
     153         -0.195031        1.000000        0.00084118
     154         -0.194653        1.000000        0.00036478
     155         -0.194507        1.000000        0.00068107
     156         -0.194076        1.000000        0.00030098
     157         -0.193426        1.000000        0.00054513
     158         -0.193162        1.000000        0.00036373
     159         -0.192732        1.000000        0.00038629
     160         -0.192311        1.000000        0.00011884
     161         -0.191710        1.000000        0.00048768
     162         -0.191578        1.000000        0.00029283
     163         -0.191384        1.000000        0.00062768
     164         -0.190859        1.000000        0.00030504
     165         -0.190077        1.000000        0.00046207
     166         -0.189600        1.000000        0.00081550
     167         -0.189241        1.000000        0.00024495
     168         -0.188974        1.000000        0.00063611
     169         -0.188395        1.000000        0.00021467
     170         -0.187897        1.000000        0.00052750
     171         -0.187674        1.000000        0.00024496
     172         -0.186909        1.000000        0.00080352
     173         -0.186515        1.000000        0.00022951
     174         -0.186298        1.000000        0.00021546
     175         -0.185709        1.000000        0.00047990
     176         -0.185539        1.000000        0.00015450
     177         -0.185330        1.000000        0.00020686
     178         -0.185204        1.000000        0.00018171
     179         -0.185044        1.000000        0.00030763
     180         -0.184362        1.000000        0.00020005
     181         -0.184075        1.000000        0.00009095
     182         -0.183891        1.000000        0.00043380
     183         -0.183601        1.000000        0.00020244
     184         -0.183050        1.000000        0.00010283
     185         -0.182655        1.000000        0.00012249
     186         -0.182288        1.000000        0.00012321
     187         -0.181942        1.000000        0.00011111
     188         -0.181794        1.000000        0.00014200
     189         -0.181540        1.000000        0.00016872
     190         -0.181230        1.000000        0.00009887
     191         -0.181120        1.000000        0.00010142
     192         -0.180757        1.000000        0.00007994
     193         -0.180560        1.000000        0.00021470
     194         -0.180419        1.000000        0.00005853
     195         -0.180166        0.000000        0.00012945
     196         -0.179883        0.000000        0.00011344
     197         -0.179763        0.000000        0.00020414
     198         -0.179429        0.000000        0.00016242
     199         -0.178703        0.000000        0.00012686
     200         -0.178061        0.000000        0.00021133
     201         -0.174655        0.000000        0.00005398
     202         -0.091981        0.000000        0.00006315
     203         -0.072048        0.000000        0.00026882
     204         -0.060219        0.000000        0.00016288
     205         -0.055875        0.000000        0.00010633
     206         -0.053417        0.000000        0.00029378
     207         -0.052956        0.000000        0.00009738
     208         -0.051409        0.000000        0.00013279
     209         -0.047869        0.000000        0.00025302
     210         -0.047368        0.000000        0.00011962
     211         -0.045836        0.000000        0.00014019
     212         -0.042107        0.000000        0.00016246
     213         -0.040360        0.000000        0.00021233
     214         -0.033415        0.000000        0.00016543
     215         -0.027638        0.000000        0.00013877
     216         -0.024762        0.000000        0.00007854
     217         -0.023871        0.000000        0.00009788
     218         -0.023081        0.000000        0.00014858
     219         -0.020161        0.000000        0.00029004
     220         -0.017288        0.000000        0.00029467
     221         -0.014051        0.000000        0.00014648
     222         -0.009505        0.000000        0.00011780
     223         -0.007656        0.000000        0.00018148
     224         -0.005519        0.000000        0.00008133
     225         -0.001781        0.000000        0.00006234
     226          0.080045        0.000000        0.00916553
     227          0.101171        0.000000        0.00701727
     228          0.102816        0.000000        0.02225341
     229          0.110257        0.000000        0.00325184
     230          0.112276        0.000000        0.00451074
     231          0.121533        0.000000        0.00487249
     232          0.122539        0.000000        0.00678435
     233          0.154823        0.000000        0.64943504
     234          0.190852        0.000000        0.65742131
     235          0.203100        0.000000        0.65470047
     236          0.255432        0.000000        0.66055262
     237          0.277395        0.000000        0.66221041
     238          0.282602        0.000000        0.66275748
     239          0.288867        0.000000        0.66473134
     240          0.290796        0.000000        0.64935605
     241          0.291296        0.000000        0.66333523
     242          0.294905        0.000000        0.66358450
     243          0.295907        0.000000        0.66096237
     244          0.298025        0.000000        0.66456559
     245          0.300158        0.000000        0.64761823
     246          0.300607        0.000000        0.66174426
     247          0.301599        0.000000        0.66407834
     248          0.301895        0.000000        0.66068874
     249          0.309107        0.000000        0.64680184
     250          0.336818        0.000000        0.63175544
     251          0.338310        0.000000        0.63285311
     252          0.344196        0.000000        0.62916191
     253          0.355480        0.000000        0.62625254
     254          0.446971        0.000000        0.58533972
     255          0.447405        0.000000        0.58698767
     256          0.449173        0.000000        0.58927832
     257          0.454124        0.000000        0.58944472
     258          0.457033        0.000000        0.58379446
     259          0.461496        0.000000        0.58595586
     260          0.468390        0.000000        0.58150118
     261          0.469774        0.000000        0.58175029
     262          0.469858        0.000000        0.58261476
     263          0.470689        0.000000        0.58189823
     264          0.472504        0.000000        0.58470758
     265          0.476934        0.000000        0.58029728
     266          0.477865        0.000000        0.57992233
     267          0.482061        0.000000        0.58330895
     268          0.551037        0.000000        0.55431142
     269          0.553175        0.000000        0.55322254
     270          0.565985        0.000000        0.55164815
     271          0.569372        0.000000        0.55197532
     272          0.570706        0.000000        0.55241459
     273          0.571899        0.000000        0.55325014
     274          0.572253        0.000000        0.55170301
