100
Lattice="31.7900009155 0.0 0.0 0.0 31.0900001526 0.0 0.0 0.0 30.3899993896" Properties=species:S:1:pos:R:3 i=811 E=-2585.7120452691 pbc="F F F"
I       11.43357288      12.15742867       8.38802422
I       18.60762760      12.22188809       8.61825199
I       12.54818154      19.04528125       8.70741803
I       20.08402720      17.36660168       8.70210743
I       11.43430379       9.00323665      11.58170716
I       19.59893818       8.98209088      11.62184364
I        8.35991118      13.38212146      11.87951607
I       10.51799337      12.22164652      14.20442763
I       12.42978588      15.31548588      11.57555296
I       15.22685421      11.93523295      11.20738898
I       18.63302178      11.84992050      14.87442164
I       18.21919711      15.24202488      11.99282113
I       22.13225329      13.00036646      11.90804439
I        9.59475633      18.86622105      12.38193084
I       12.80100223      18.01560262      15.15905615
I       13.02216678      21.62759947      12.64063492
I       16.17170132      18.78548839      11.63857567
I       19.40828981      18.39443836      14.93872393
I       19.26858281      22.43413226      12.39384228
I       22.38761865      18.19887745      11.21813839
I       13.71078376       6.15801881      17.47030541
I       18.30378469       8.25377637      18.21464499
I        9.82545781      11.06006053      18.11510679
I       13.79089640      11.43203986      21.09097556
I       12.36903390      15.04517178      18.68828095
I       15.37057888      11.66348577      16.77630603
I       18.73567032      11.81456761      21.64501834
I       18.75939207      15.18624122      18.54397320
I       21.83465332      11.70626348      18.13694063
I        9.72620861      18.82378764      18.36719461
I       13.26671683      18.67784906      20.90001612
I       12.22164146      23.05442681      17.69316285
I       15.89199502      18.16899166      17.51940325
I       18.52979924      18.63789359      21.95235949
I       18.04864465      21.85466722      18.75239168
I       21.95589131      18.44096025      18.79834174
Pb      12.17359881      12.07536604      11.35272825
Pb      19.15084060      12.29044775      11.79032015
Pb      12.65656072      18.62761036      11.88384292
Pb      19.20400616      19.20597685      11.98161657
Pb      12.76027879      12.04601215      18.37722413
Pb      18.88909410      12.07830788      18.59987913
Pb      12.70795889      19.69370286      18.05849073
Pb      18.72664948      18.69761046      18.90908136
C       15.24328252      15.34540264       8.55161904
C       15.34949288       8.93765884      13.64930236
C        9.17948408      15.64720473      15.61632837
C       15.55991475      15.10999507      14.84287491
C       21.62353714      14.99230952      15.73591765
C       15.92986432      21.25901155      14.99938691
C       15.60279496      15.12854662      21.05222379
N       16.79425643      15.33191729       8.75576431
N       16.42810672       8.82929929      14.76467198
N       10.70614335      15.33221314      15.62049573
N       17.02405098      15.11415336      15.39902442
N       23.17273169      14.90333239      15.73801583
N       17.44197360      21.27434125      15.40141744
N       16.44253427      15.64588996      22.25711832
H       15.04918389      15.07584475       7.54159523
H       14.89138342      16.32669493       8.77107448
H       14.82776211      14.63637276       9.22790341
H       17.26596330      16.04836685       8.16977347
H       17.18927963      14.39669320       8.50047222
H       17.05430363      15.50150837       9.76275136
H       15.84258511       9.02847950      12.71353477
H       14.74261215       9.78770082      13.83260615
H       14.76431131       8.05233872      13.66964836
H       16.94566245       9.71640898      14.84857982
H       17.15839699       7.96957911      14.54055432
H       15.97412863       8.60705440      15.65979065
H        8.87733768      15.72136582      14.60205257
H        9.02067336      16.55650460      16.14389316
H        8.67312653      14.84170123      16.09085816
H       11.26153056      16.13021930      15.22241081
H       10.87144102      14.45323152      15.06804146
H       11.06450288      15.18690605      16.59544793
H       15.61457494      14.94489776      13.79334140
H       15.12691990      16.05570297      15.05899883
H       15.04190866      14.32145086      15.33019575
H       17.59100921      15.84248863      14.91786485
H       17.48105085      14.18755205      15.22569222
H       17.05383612      15.30419541      16.42483039
H       21.27082004      14.63131887      14.80183160
H       21.34913659      16.00933009      15.86924053
H       21.24546912      14.40058697      16.53012271
H       23.55482123      15.49886289      14.90875313
H       23.53955674      13.91363724      15.57583597
H       23.55908322      15.24325423      16.63030834
H       15.86527059      21.08644887      13.95371688
H       15.50780742      22.19659213      15.25670774
H       15.46104490      20.46728833      15.53150875
H       17.96028161      21.95722592      14.81354503
H       17.88251370      20.33342925      15.25575273
H       17.57329277      21.52858951      16.41615991
H       16.25993616      14.73423781      20.31817028
H       15.05454263      15.94648140      20.65473702
H       14.94509472      14.37604773      21.40573698
H       17.05671297      16.42531310      21.96335729
H       17.03557992      14.88787071      22.62088223
H       15.74534804      16.03932985      23.08825998
