# Projected DOS for atomic kind H at iteration step i = 0, E(Fermi) =    -0.181961 a.u.
#     MO Eigenvalue [a.u.]      Occupation                 s
       1         -0.987536        1.000000        0.27229599
       2         -0.960373        1.000000        0.26879885
       3         -0.956015        1.000000        0.28263989
       4         -0.955479        1.000000        0.26746871
       5         -0.947822        1.000000        0.28137078
       6         -0.932551        1.000000        0.28078669
       7         -0.927341        1.000000        0.28198228
       8         -0.718448        1.000000        0.32731024
       9         -0.698272        1.000000        0.34245754
      10         -0.698176        1.000000        0.33835918
      11         -0.696811        1.000000        0.34282236
      12         -0.689468        1.000000        0.33977745
      13         -0.678564        1.000000        0.34541766
      14         -0.674314        1.000000        0.34762605
      15         -0.619367        1.000000        0.03134798
      16         -0.613893        1.000000        0.33114370
      17         -0.607739        1.000000        0.04510111
      18         -0.602297        1.000000        0.03815478
      19         -0.598833        1.000000        0.03092130
      20         -0.598203        1.000000        0.28527181
      21         -0.597075        1.000000        0.09427445
      22         -0.594011        1.000000        0.09131671
      23         -0.593306        1.000000        0.07449575
      24         -0.591638        1.000000        0.17852294
      25         -0.589939        1.000000        0.07715780
      26         -0.586484        1.000000        0.04185354
      27         -0.585736        1.000000        0.04736234
      28         -0.585265        1.000000        0.04734187
      29         -0.583990        1.000000        0.18180785
      30         -0.582723        1.000000        0.02955434
      31         -0.581768        1.000000        0.00963234
      32         -0.578581        1.000000        0.13745418
      33         -0.576962        1.000000        0.06021956
      34         -0.576296        1.000000        0.05172381
      35         -0.575902        1.000000        0.04510552
      36         -0.574291        1.000000        0.15800369
      37         -0.573618        1.000000        0.08710880
      38         -0.573223        1.000000        0.01470177
      39         -0.572233        1.000000        0.16708951
      40         -0.571461        1.000000        0.11879105
      41         -0.571063        1.000000        0.01052623
      42         -0.569801        1.000000        0.13696377
      43         -0.569221        1.000000        0.00832729
      44         -0.569080        1.000000        0.08748345
      45         -0.567234        1.000000        0.02515454
      46         -0.566654        1.000000        0.16372373
      47         -0.565886        1.000000        0.00040288
      48         -0.563341        1.000000        0.12362597
      49         -0.563232        1.000000        0.00745520
      50         -0.562587        1.000000        0.26555260
      51         -0.562200        1.000000        0.02953005
      52         -0.561957        1.000000        0.00760753
      53         -0.559747        1.000000        0.00529679
      54         -0.559579        1.000000        0.01339681
      55         -0.558453        1.000000        0.05787630
      56         -0.557181        1.000000        0.07523572
      57         -0.555442        1.000000        0.00455554
      58         -0.554594        1.000000        0.12244778
      59         -0.553291        1.000000        0.26034711
      60         -0.551914        1.000000        0.00093728
      61         -0.549270        1.000000        0.00027722
      62         -0.546079        1.000000        0.28254849
      63         -0.544046        1.000000        0.22741103
      64         -0.537795        1.000000        0.21722693
      65         -0.506421        1.000000        0.19673178
      66         -0.483330        1.000000        0.18909779
      67         -0.481047        1.000000        0.18692314
      68         -0.478849        1.000000        0.17821772
      69         -0.470282        1.000000        0.18145015
      70         -0.466227        1.000000        0.00236146
      71         -0.463229        1.000000        0.00205498
      72         -0.459913        1.000000        0.00152707
      73         -0.458880        1.000000        0.15350120
      74         -0.458393        1.000000        0.00812192
      75         -0.456873        1.000000        0.03405876
      76         -0.454449        1.000000        0.11270930
      77         -0.452033        1.000000        0.04528479
      78         -0.449067        1.000000        0.00234760
      79         -0.447521        1.000000        0.00299923
      80         -0.427723        1.000000        0.41801757
      81         -0.425199        1.000000        0.41740217
      82         -0.415446        1.000000        0.42247082
      83         -0.412950        1.000000        0.41973588
      84         -0.412008        1.000000        0.42129299
      85         -0.411383        1.000000        0.41897988
      86         -0.410208        1.000000        0.42085457
      87         -0.409468        1.000000        0.42319591
      88         -0.405868        1.000000        0.42368920
      89         -0.402719        1.000000        0.41990746
      90         -0.395516        1.000000        0.42207953
      91         -0.393154        1.000000        0.42363474
      92         -0.391747        1.000000        0.42339652
      93         -0.389788        1.000000        0.41989276
      94         -0.287600        1.000000        0.00050180
      95         -0.283344        1.000000        0.00034167
      96         -0.278178        1.000000        0.00087336
      97         -0.273297        1.000000        0.00041124
      98         -0.271229        1.000000        0.00038119
      99         -0.269531        1.000000        0.00031056
     100         -0.268301        1.000000        0.00042706
     101         -0.268059        1.000000        0.00025744
     102         -0.266169        1.000000        0.00054929
     103         -0.264977        1.000000        0.00052660
     104         -0.263655        1.000000        0.00020009
     105         -0.261992        1.000000        0.00058645
     106         -0.260340        1.000000        0.00050415
     107         -0.259130        1.000000        0.00035764
     108         -0.253175        1.000000        0.00073463
     109         -0.250121        1.000000        0.00207890
     110         -0.247267        1.000000        0.00146187
     111         -0.245672        1.000000        0.00103508
     112         -0.243765        1.000000        0.00072030
     113         -0.242330        1.000000        0.00098158
     114         -0.240886        1.000000        0.00107966
     115         -0.239229        1.000000        0.00126487
     116         -0.237952        1.000000        0.00048047
     117         -0.236516        1.000000        0.00058171
     118         -0.235191        1.000000        0.00130667
     119         -0.233323        1.000000        0.00119915
     120         -0.231280        1.000000        0.00206043
     121         -0.230379        1.000000        0.00122610
     122         -0.228228        1.000000        0.00130825
     123         -0.227603        1.000000        0.00128005
     124         -0.225758        1.000000        0.00126928
     125         -0.224435        1.000000        0.00115237
     126         -0.224037        1.000000        0.00129480
     127         -0.221603        1.000000        0.00100611
     128         -0.219868        1.000000        0.00103271
     129         -0.218406        1.000000        0.00114268
     130         -0.217467        1.000000        0.00120428
     131         -0.216446        1.000000        0.00121126
     132         -0.215820        1.000000        0.00062298
     133         -0.214537        1.000000        0.00041902
     134         -0.212519        1.000000        0.00087419
     135         -0.211916        1.000000        0.00063299
     136         -0.210975        1.000000        0.00114701
     137         -0.210389        1.000000        0.00096191
     138         -0.209067        1.000000        0.00085039
     139         -0.208208        1.000000        0.00026156
     140         -0.206559        1.000000        0.00070285
     141         -0.206052        1.000000        0.00036083
     142         -0.204145        1.000000        0.00160086
     143         -0.203750        1.000000        0.00048541
     144         -0.203071        1.000000        0.00041660
     145         -0.202190        1.000000        0.00084026
     146         -0.201485        1.000000        0.00040149
     147         -0.200576        1.000000        0.00030576
     148         -0.199419        1.000000        0.00066806
     149         -0.199283        1.000000        0.00192268
     150         -0.198636        1.000000        0.00041182
     151         -0.198222        1.000000        0.00156864
     152         -0.197581        1.000000        0.00057501
     153         -0.197325        1.000000        0.00036313
     154         -0.197157        1.000000        0.00034553
     155         -0.196328        1.000000        0.00100543
     156         -0.195476        1.000000        0.00018170
     157         -0.194983        1.000000        0.00013998
     158         -0.194652        1.000000        0.00031925
     159         -0.193732        1.000000        0.00034965
     160         -0.193549        1.000000        0.00050204
     161         -0.192967        1.000000        0.00020987
     162         -0.192146        1.000000        0.00047314
     163         -0.191704        1.000000        0.00131298
     164         -0.191527        1.000000        0.00034587
     165         -0.191295        1.000000        0.00049764
     166         -0.191118        1.000000        0.00032980
     167         -0.190684        1.000000        0.00024499
     168         -0.190317        1.000000        0.00025479
     169         -0.189853        1.000000        0.00016191
     170         -0.189032        1.000000        0.00026001
     171         -0.188749        1.000000        0.00030172
     172         -0.188557        1.000000        0.00057775
     173         -0.187730        1.000000        0.00015027
     174         -0.187331        1.000000        0.00018093
     175         -0.187088        1.000000        0.00030087
     176         -0.186479        1.000000        0.00015641
     177         -0.186237        1.000000        0.00015637
     178         -0.185515        1.000000        0.00022171
     179         -0.185401        1.000000        0.00012805
     180         -0.185092        1.000000        0.00015746
     181         -0.184973        1.000000        0.00008663
     182         -0.184678        1.000000        0.00013870
     183         -0.184482        1.000000        0.00007198
     184         -0.184244        1.000000        0.00016329
     185         -0.184055        1.000000        0.00010383
     186         -0.183456        1.000000        0.00016400
     187         -0.183297        1.000000        0.00006700
     188         -0.183050        1.000000        0.00011300
     189         -0.182845        1.000000        0.00014955
     190         -0.182750        1.000000        0.00006399
     191         -0.182326        1.000000        0.00009378
     192         -0.182179        1.000000        0.00011191
     193         -0.182091        1.000000        0.00021141
     194         -0.181961        1.000000        0.00013735
     195         -0.181909        0.000000        0.00012641
     196         -0.181575        0.000000        0.00013276
     197         -0.181160        0.000000        0.00009073
     198         -0.180955        0.000000        0.00011830
     199         -0.180005        0.000000        0.00028551
     200         -0.179540        0.000000        0.00013826
     201         -0.178370        0.000000        0.00006763
     202         -0.075041        0.000000        0.00012862
     203         -0.070367        0.000000        0.00005335
     204         -0.066392        0.000000        0.00014421
     205         -0.064937        0.000000        0.00008473
     206         -0.062876        0.000000        0.00009444
     207         -0.059463        0.000000        0.00015617
     208         -0.058470        0.000000        0.00018004
     209         -0.056219        0.000000        0.00013716
     210         -0.053639        0.000000        0.00009808
     211         -0.048875        0.000000        0.00022171
     212         -0.047706        0.000000        0.00020220
     213         -0.042607        0.000000        0.00012634
     214         -0.041340        0.000000        0.00006548
     215         -0.039627        0.000000        0.00022506
     216         -0.038823        0.000000        0.00022211
     217         -0.032447        0.000000        0.00034918
     218         -0.029751        0.000000        0.00037556
     219         -0.027819        0.000000        0.00013350
     220         -0.026725        0.000000        0.00018795
     221         -0.026119        0.000000        0.00016594
     222         -0.023410        0.000000        0.00011870
     223         -0.018565        0.000000        0.00021021
     224         -0.014854        0.000000        0.00004977
     225         -0.005810        0.000000        0.00008579
     226          0.076142        0.000000        0.00784175
     227          0.090830        0.000000        0.00425199
     228          0.092528        0.000000        0.02437987
     229          0.095841        0.000000        0.02015228
     230          0.100304        0.000000        0.00455445
     231          0.117719        0.000000        0.00383627
     232          0.119515        0.000000        0.00356692
     233          0.147748        0.000000        0.64421584
     234          0.161028        0.000000        0.64998353
     235          0.185290        0.000000        0.66393242
     236          0.223559        0.000000        0.65577212
     237          0.268018        0.000000        0.65003317
     238          0.279296        0.000000        0.66314426
     239          0.282089        0.000000        0.66360680
     240          0.282764        0.000000        0.66148103
     241          0.285488        0.000000        0.65922506
     242          0.286698        0.000000        0.66561961
     243          0.296241        0.000000        0.66309860
     244          0.301066        0.000000        0.66102522
     245          0.307907        0.000000        0.66080721
     246          0.311487        0.000000        0.65677744
     247          0.311888        0.000000        0.64512645
     248          0.313660        0.000000        0.66189241
     249          0.317505        0.000000        0.64541050
     250          0.324391        0.000000        0.63494254
     251          0.332933        0.000000        0.63238185
     252          0.349584        0.000000        0.62918994
     253          0.356321        0.000000        0.62837259
     254          0.441538        0.000000        0.58967540
     255          0.441726        0.000000        0.58910033
     256          0.454335        0.000000        0.58633844
     257          0.455217        0.000000        0.58844907
     258          0.455275        0.000000        0.58452171
     259          0.455961        0.000000        0.58268559
     260          0.459308        0.000000        0.58347089
     261          0.459402        0.000000        0.58579708
     262          0.461252        0.000000        0.58544742
     263          0.464821        0.000000        0.58148689
     264          0.469144        0.000000        0.58035375
     265          0.476392        0.000000        0.58180601
     266          0.480262        0.000000        0.58168704
     267          0.482895        0.000000        0.58092819
     268          0.550944        0.000000        0.55302097
     269          0.553021        0.000000        0.55273860
     270          0.556637        0.000000        0.55379773
     271          0.562649        0.000000        0.55178477
     272          0.566243        0.000000        0.55199038
     273          0.572069        0.000000        0.55186331
     274          0.580514        0.000000        0.55156129
