# Projected DOS for atomic kind H at iteration step i = 0, E(Fermi) =    -0.182486 a.u.
#     MO Eigenvalue [a.u.]      Occupation                 s
       1         -0.987721        1.000000        0.27233497
       2         -0.960569        1.000000        0.26883353
       3         -0.956186        1.000000        0.28266554
       4         -0.955671        1.000000        0.26749424
       5         -0.947997        1.000000        0.28134233
       6         -0.932758        1.000000        0.28082433
       7         -0.927531        1.000000        0.28202127
       8         -0.718638        1.000000        0.32730980
       9         -0.698446        1.000000        0.34153199
      10         -0.698378        1.000000        0.33928265
      11         -0.697019        1.000000        0.34283954
      12         -0.689643        1.000000        0.33979854
      13         -0.678775        1.000000        0.34541026
      14         -0.674514        1.000000        0.34761477
      15         -0.619489        1.000000        0.03153611
      16         -0.614098        1.000000        0.33119926
      17         -0.608178        1.000000        0.04212974
      18         -0.602712        1.000000        0.04058046
      19         -0.599157        1.000000        0.03061301
      20         -0.598407        1.000000        0.28409823
      21         -0.597361        1.000000        0.09302465
      22         -0.594300        1.000000        0.08434143
      23         -0.593835        1.000000        0.07673721
      24         -0.591932        1.000000        0.18409318
      25         -0.590143        1.000000        0.07703139
      26         -0.586821        1.000000        0.04374669
      27         -0.586429        1.000000        0.01092128
      28         -0.585625        1.000000        0.08051276
      29         -0.584213        1.000000        0.18218402
      30         -0.583014        1.000000        0.02719526
      31         -0.582437        1.000000        0.01393900
      32         -0.578796        1.000000        0.12355969
      33         -0.577891        1.000000        0.04832865
      34         -0.576954        1.000000        0.05638225
      35         -0.576443        1.000000        0.05033564
      36         -0.574910        1.000000        0.06183084
      37         -0.574219        1.000000        0.09675317
      38         -0.574014        1.000000        0.11081528
      39         -0.572511        1.000000        0.16923971
      40         -0.571808        1.000000        0.11897093
      41         -0.571419        1.000000        0.01154068
      42         -0.570263        1.000000        0.11608861
      43         -0.569785        1.000000        0.01807807
      44         -0.568971        1.000000        0.07049855
      45         -0.568006        1.000000        0.04878655
      46         -0.567900        1.000000        0.00072862
      47         -0.567098        1.000000        0.16547906
      48         -0.564455        1.000000        0.00288320
      49         -0.563603        1.000000        0.12891255
      50         -0.563280        1.000000        0.02203778
      51         -0.562788        1.000000        0.27437442
      52         -0.561918        1.000000        0.00530196
      53         -0.560927        1.000000        0.01348837
      54         -0.560253        1.000000        0.00250808
      55         -0.558589        1.000000        0.06581797
      56         -0.557930        1.000000        0.05668565
      57         -0.556833        1.000000        0.00199747
      58         -0.554886        1.000000        0.14222916
      59         -0.553553        1.000000        0.26186990
      60         -0.553468        1.000000        0.00304087
      61         -0.550083        1.000000        0.00031519
      62         -0.546346        1.000000        0.28316120
      63         -0.544200        1.000000        0.22565813
      64         -0.538065        1.000000        0.21815500
      65         -0.506598        1.000000        0.19677006
      66         -0.483529        1.000000        0.18911714
      67         -0.481246        1.000000        0.18694378
      68         -0.479009        1.000000        0.17825157
      69         -0.470445        1.000000        0.18149495
      70         -0.466825        1.000000        0.00230329
      71         -0.463408        1.000000        0.00196710
      72         -0.459995        1.000000        0.00154440
      73         -0.459081        1.000000        0.15639867
      74         -0.458431        1.000000        0.00658111
      75         -0.456987        1.000000        0.03407115
      76         -0.454622        1.000000        0.11011984
      77         -0.452283        1.000000        0.04660547
      78         -0.449251        1.000000        0.00263474
      79         -0.447696        1.000000        0.00277802
      80         -0.427897        1.000000        0.41802067
      81         -0.425390        1.000000        0.41740592
      82         -0.415602        1.000000        0.42246496
      83         -0.413112        1.000000        0.41974861
      84         -0.412212        1.000000        0.42130195
      85         -0.411593        1.000000        0.41901692
      86         -0.410413        1.000000        0.42083842
      87         -0.409676        1.000000        0.42318242
      88         -0.406049        1.000000        0.42368924
      89         -0.402900        1.000000        0.41988237
      90         -0.395721        1.000000        0.42207439
      91         -0.393358        1.000000        0.42363026
      92         -0.391961        1.000000        0.42341122
      93         -0.389969        1.000000        0.41985561
      94         -0.288279        1.000000        0.00050317
      95         -0.283236        1.000000        0.00033099
      96         -0.278295        1.000000        0.00086075
      97         -0.273520        1.000000        0.00042196
      98         -0.271390        1.000000        0.00038585
      99         -0.269858        1.000000        0.00031543
     100         -0.268653        1.000000        0.00042470
     101         -0.268258        1.000000        0.00028173
     102         -0.266536        1.000000        0.00056546
     103         -0.265756        1.000000        0.00049519
     104         -0.264661        1.000000        0.00018881
     105         -0.262396        1.000000        0.00060238
     106         -0.260668        1.000000        0.00046862
     107         -0.259660        1.000000        0.00033568
     108         -0.253817        1.000000        0.00069409
     109         -0.250539        1.000000        0.00209715
     110         -0.247650        1.000000        0.00146144
     111         -0.245943        1.000000        0.00100220
     112         -0.244313        1.000000        0.00080408
     113         -0.243568        1.000000        0.00096716
     114         -0.241243        1.000000        0.00108476
     115         -0.239535        1.000000        0.00128437
     116         -0.238161        1.000000        0.00048313
     117         -0.236824        1.000000        0.00055414
     118         -0.235620        1.000000        0.00128078
     119         -0.233737        1.000000        0.00120686
     120         -0.231607        1.000000        0.00191687
     121         -0.230700        1.000000        0.00140038
     122         -0.228632        1.000000        0.00126951
     123         -0.227880        1.000000        0.00125780
     124         -0.226254        1.000000        0.00135048
     125         -0.224850        1.000000        0.00124391
     126         -0.224439        1.000000        0.00118582
     127         -0.221893        1.000000        0.00104923
     128         -0.220018        1.000000        0.00106421
     129         -0.218615        1.000000        0.00113764
     130         -0.217824        1.000000        0.00111515
     131         -0.216719        1.000000        0.00127658
     132         -0.216092        1.000000        0.00066854
     133         -0.214694        1.000000        0.00042531
     134         -0.213076        1.000000        0.00086778
     135         -0.212298        1.000000        0.00062265
     136         -0.211056        1.000000        0.00112881
     137         -0.210454        1.000000        0.00104498
     138         -0.209302        1.000000        0.00068605
     139         -0.208359        1.000000        0.00026644
     140         -0.206949        1.000000        0.00078003
     141         -0.206064        1.000000        0.00031127
     142         -0.204606        1.000000        0.00137662
     143         -0.204007        1.000000        0.00053373
     144         -0.203239        1.000000        0.00076579
     145         -0.202577        1.000000        0.00063162
     146         -0.201742        1.000000        0.00035506
     147         -0.201061        1.000000        0.00031865
     148         -0.199806        1.000000        0.00190478
     149         -0.199696        1.000000        0.00061268
     150         -0.199118        1.000000        0.00084079
     151         -0.198970        1.000000        0.00077467
     152         -0.198295        1.000000        0.00041301
     153         -0.197692        1.000000        0.00047903
     154         -0.197591        1.000000        0.00045499
     155         -0.197198        1.000000        0.00066957
     156         -0.196672        1.000000        0.00025842
     157         -0.195398        1.000000        0.00015278
     158         -0.195050        1.000000        0.00023503
     159         -0.194599        1.000000        0.00036029
     160         -0.194581        1.000000        0.00024557
     161         -0.193949        1.000000        0.00051555
     162         -0.193074        1.000000        0.00028067
     163         -0.192708        1.000000        0.00130220
     164         -0.192342        1.000000        0.00120706
     165         -0.191875        1.000000        0.00026085
     166         -0.191020        1.000000        0.00025459
     167         -0.190882        1.000000        0.00024244
     168         -0.190742        1.000000        0.00029817
     169         -0.190502        1.000000        0.00030676
     170         -0.189449        1.000000        0.00026873
     171         -0.189346        1.000000        0.00014977
     172         -0.188657        1.000000        0.00055625
     173         -0.188441        1.000000        0.00041921
     174         -0.188191        1.000000        0.00012245
     175         -0.188045        1.000000        0.00010867
     176         -0.187687        1.000000        0.00008939
     177         -0.187354        1.000000        0.00013712
     178         -0.187103        1.000000        0.00034261
     179         -0.186652        1.000000        0.00020640
     180         -0.186309        1.000000        0.00022911
     181         -0.186163        1.000000        0.00014420
     182         -0.185798        1.000000        0.00025176
     183         -0.185386        1.000000        0.00024549
     184         -0.185112        1.000000        0.00016496
     185         -0.184829        1.000000        0.00023565
     186         -0.184684        1.000000        0.00014345
     187         -0.184404        1.000000        0.00013863
     188         -0.184340        1.000000        0.00007906
     189         -0.184089        1.000000        0.00009259
     190         -0.183652        1.000000        0.00013395
     191         -0.183481        1.000000        0.00016788
     192         -0.183182        1.000000        0.00011592
     193         -0.182763        1.000000        0.00010289
     194         -0.182539        1.000000        0.00003181
     195         -0.182486        1.000000        0.00006612
     196         -0.182260        0.000000        0.00012836
     197         -0.182129        0.000000        0.00006721
     198         -0.181963        0.000000        0.00015209
     199         -0.181682        0.000000        0.00012162
     200         -0.180154        0.000000        0.00012840
     201         -0.178693        0.000000        0.00005439
     202         -0.075231        0.000000        0.00012824
     203         -0.070678        0.000000        0.00005296
     204         -0.066541        0.000000        0.00014367
     205         -0.065095        0.000000        0.00008346
     206         -0.063135        0.000000        0.00009625
     207         -0.059626        0.000000        0.00015829
     208         -0.058770        0.000000        0.00017054
     209         -0.056658        0.000000        0.00014182
     210         -0.053899        0.000000        0.00009800
     211         -0.049162        0.000000        0.00022302
     212         -0.048083        0.000000        0.00020349
     213         -0.042721        0.000000        0.00012646
     214         -0.041513        0.000000        0.00006657
     215         -0.039912        0.000000        0.00023874
     216         -0.039001        0.000000        0.00020920
     217         -0.032875        0.000000        0.00034258
     218         -0.029848        0.000000        0.00037508
     219         -0.028006        0.000000        0.00013015
     220         -0.026888        0.000000        0.00017878
     221         -0.026243        0.000000        0.00017814
     222         -0.023514        0.000000        0.00012012
     223         -0.018649        0.000000        0.00020975
     224         -0.014977        0.000000        0.00004996
     225         -0.006006        0.000000        0.00008581
     226          0.075976        0.000000        0.00784935
     227          0.090681        0.000000        0.00425764
     228          0.092342        0.000000        0.02443927
     229          0.095648        0.000000        0.02017904
     230          0.100119        0.000000        0.00456210
     231          0.117525        0.000000        0.00384073
     232          0.119355        0.000000        0.00357102
     233          0.147525        0.000000        0.64406281
     234          0.160838        0.000000        0.64990998
     235          0.185098        0.000000        0.66387128
     236          0.223379        0.000000        0.65572020
     237          0.267823        0.000000        0.64996703
     238          0.279117        0.000000        0.66311272
     239          0.281922        0.000000        0.66357675
     240          0.282576        0.000000        0.66144320
     241          0.285382        0.000000        0.65940030
     242          0.286510        0.000000        0.66560403
     243          0.296037        0.000000        0.66304327
     244          0.300864        0.000000        0.66098701
     245          0.307711        0.000000        0.66074999
     246          0.311287        0.000000        0.65672640
     247          0.311699        0.000000        0.64508311
     248          0.313480        0.000000        0.66183879
     249          0.317309        0.000000        0.64538137
     250          0.324219        0.000000        0.63489448
     251          0.332777        0.000000        0.63234422
     252          0.349383        0.000000        0.62913511
     253          0.356116        0.000000        0.62832382
     254          0.441377        0.000000        0.58988078
     255          0.441563        0.000000        0.58888770
     256          0.454158        0.000000        0.58639124
     257          0.455042        0.000000        0.58845273
     258          0.455098        0.000000        0.58449988
     259          0.455828        0.000000        0.58268657
     260          0.459161        0.000000        0.58389414
     261          0.459235        0.000000        0.58538420
     262          0.461088        0.000000        0.58546446
     263          0.464668        0.000000        0.58148740
     264          0.468975        0.000000        0.58036096
     265          0.476242        0.000000        0.58182927
     266          0.480095        0.000000        0.58170308
     267          0.482737        0.000000        0.58092964
     268          0.550784        0.000000        0.55300471
     269          0.552888        0.000000        0.55272929
     270          0.556478        0.000000        0.55379011
     271          0.562483        0.000000        0.55177774
     272          0.566075        0.000000        0.55198179
     273          0.571906        0.000000        0.55185804
     274          0.580361        0.000000        0.55155742
