# Projected DOS for atomic kind C at iteration step i = 0, E(Fermi) =    -0.182486 a.u.
#     MO Eigenvalue [a.u.]      Occupation                 s                py                pz                px
       1         -0.987721        1.000000        0.05768285        0.00011501        0.00000000        0.04537754
       2         -0.960569        1.000000        0.06182065        0.00488745        0.02746246        0.01398135
       3         -0.956186        1.000000        0.05891237        0.00000009        0.00544363        0.03799212
       4         -0.955671        1.000000        0.06502530        0.00021307        0.02491528        0.02203657
       5         -0.947997        1.000000        0.05970083        0.00000279        0.00064390        0.04345250
       6         -0.932758        1.000000        0.06317965        0.00202409        0.00000004        0.04306399
       7         -0.927531        1.000000        0.06156280        0.00000314        0.00280395        0.04131829
       8         -0.718638        1.000000        0.42927844        0.00002468        0.00006851        0.00016047
       9         -0.698446        1.000000        0.43702908        0.00004265        0.00015433        0.00079272
      10         -0.698378        1.000000        0.43417132        0.00007284        0.00025368        0.00059453
      11         -0.697019        1.000000        0.43229002        0.00002983        0.00086401        0.00061572
      12         -0.689643        1.000000        0.43808515        0.00000024        0.00005500        0.00060106
      13         -0.678775        1.000000        0.43571274        0.00000181        0.00001747        0.00154207
      14         -0.674514        1.000000        0.43802626        0.00000282        0.00007111        0.00148805
      15         -0.619489        1.000000        0.00002181        0.00238491        0.00078052        0.00030448
      16         -0.614098        1.000000        0.00020402        0.00487600        0.04631355        0.00005832
      17         -0.608178        1.000000        0.00030919        0.00638180        0.00051074        0.00017480
      18         -0.602712        1.000000        0.00066336        0.00140117        0.00368817        0.00100695
      19         -0.599157        1.000000        0.00081670        0.00427727        0.00053433        0.00078347
      20         -0.598407        1.000000        0.00095830        0.04710549        0.00667732        0.00184649
      21         -0.597361        1.000000        0.00046474        0.00729277        0.00680630        0.00156520
      22         -0.594300        1.000000        0.00074843        0.00886363        0.00339586        0.00061435
      23         -0.593835        1.000000        0.00041616        0.00729609        0.00361454        0.00113948
      24         -0.591932        1.000000        0.00051252        0.02301580        0.00396236        0.00164538
      25         -0.590143        1.000000        0.00021388        0.00546044        0.00380853        0.00174976
      26         -0.586821        1.000000        0.00016574        0.00456956        0.00152640        0.00114956
      27         -0.586429        1.000000        0.00017730        0.00087633        0.00116512        0.00022951
      28         -0.585625        1.000000        0.00013817        0.01072086        0.00339283        0.00295446
      29         -0.584213        1.000000        0.00015145        0.01582359        0.00521706        0.00932553
      30         -0.583014        1.000000        0.00046688        0.00166858        0.00104391        0.00030865
      31         -0.582437        1.000000        0.00023037        0.00113711        0.00063560        0.00024989
      32         -0.578796        1.000000        0.00009851        0.01440445        0.00512495        0.00125326
      33         -0.577891        1.000000        0.00006662        0.00653384        0.00014343        0.00056907
      34         -0.576954        1.000000        0.00028849        0.00463255        0.00388410        0.00281197
      35         -0.576443        1.000000        0.00061184        0.00268745        0.00262612        0.00410450
      36         -0.574910        1.000000        0.00008290        0.00106628        0.00858068        0.00180910
      37         -0.574219        1.000000        0.00017465        0.01072128        0.00614370        0.00162026
      38         -0.574014        1.000000        0.00007912        0.01308613        0.00717340        0.00106176
      39         -0.572511        1.000000        0.00053363        0.01219330        0.01154091        0.00793473
      40         -0.571808        1.000000        0.00056321        0.00494506        0.01064205        0.00430579
      41         -0.571419        1.000000        0.00009341        0.00086180        0.00043985        0.00019992
      42         -0.570263        1.000000        0.00027051        0.01440678        0.00741001        0.00125834
      43         -0.569785        1.000000        0.00006315        0.00220508        0.00101489        0.00040908
      44         -0.568971        1.000000        0.00018569        0.00050505        0.01233766        0.00161138
      45         -0.568006        1.000000        0.00014362        0.00549952        0.00335843        0.00100654
      46         -0.567900        1.000000        0.00007399        0.00005950        0.00028668        0.00023227
      47         -0.567098        1.000000        0.00014320        0.00062906        0.01882056        0.01891376
      48         -0.564455        1.000000        0.00006727        0.00014169        0.00065396        0.00003487
      49         -0.563603        1.000000        0.00014692        0.00411024        0.02207402        0.00043162
      50         -0.563280        1.000000        0.00002863        0.00233882        0.00128099        0.00183046
      51         -0.562788        1.000000        0.00056778        0.03368452        0.01274977        0.02110855
      52         -0.561918        1.000000        0.00003446        0.00027541        0.00037263        0.00040791
      53         -0.560927        1.000000        0.00000492        0.00058037        0.00135167        0.00133504
      54         -0.560253        1.000000        0.00000927        0.00034413        0.00029661        0.00006378
      55         -0.558589        1.000000        0.00021765        0.00888934        0.00263863        0.00003995
      56         -0.557930        1.000000        0.00002011        0.00627631        0.00582197        0.00107437
      57         -0.556833        1.000000        0.00000432        0.00042318        0.00010008        0.00001956
      58         -0.554886        1.000000        0.00009023        0.02116303        0.01374282        0.00060463
      59         -0.553553        1.000000        0.00028744        0.04047092        0.01293682        0.00091921
      60         -0.553468        1.000000        0.00012240        0.00033074        0.00049517        0.00000928
      61         -0.550083        1.000000        0.00000139        0.00000364        0.00002032        0.00003502
      62         -0.546346        1.000000        0.00004789        0.01285672        0.05136271        0.00123532
      63         -0.544200        1.000000        0.00000935        0.04654197        0.00310629        0.00038866
      64         -0.538065        1.000000        0.00005293        0.00806814        0.04325438        0.00217087
      65         -0.506598        1.000000        0.03596094        0.00336511        0.00039872        0.33212234
      66         -0.483529        1.000000        0.02886594        0.03820727        0.19194764        0.10460820
      67         -0.481246        1.000000        0.02598852        0.00080577        0.17772911        0.15944314
      68         -0.479009        1.000000        0.02583800        0.00006162        0.04559060        0.29578999
      69         -0.470445        1.000000        0.02809372        0.00001003        0.00686181        0.32887941
      70         -0.466825        1.000000        0.00030438        0.00009591        0.00122747        0.00235406
      71         -0.463408        1.000000        0.00016748        0.00042902        0.00013491        0.00294601
      72         -0.459995        1.000000        0.00007408        0.00043967        0.00051028        0.00148797
      73         -0.459081        1.000000        0.02047355        0.00716550        0.00015195        0.29272438
      74         -0.458431        1.000000        0.00079591        0.00043269        0.00038909        0.01253297
      75         -0.456987        1.000000        0.00436233        0.00101739        0.00231761        0.06142066
      76         -0.454622        1.000000        0.01376249        0.00006784        0.01423062        0.20052933
      77         -0.452283        1.000000        0.00626031        0.00053960        0.00743437        0.08160858
      78         -0.449251        1.000000        0.00029888        0.00048160        0.00021881        0.00432496
      79         -0.447696        1.000000        0.00038008        0.00053098        0.00026438        0.00475293
      80         -0.427897        1.000000        0.00001341        0.10868845        0.43936665        0.00038708
      81         -0.425390        1.000000        0.00000570        0.42791680        0.10723026        0.00307350
      82         -0.415602        1.000000        0.00003609        0.39501331        0.11551015        0.01572859
      83         -0.413112        1.000000        0.00000586        0.13564094        0.34385268        0.05270512
      84         -0.412212        1.000000        0.00000408        0.49217495        0.01462076        0.02901310
      85         -0.411593        1.000000        0.00000185        0.26315500        0.18585648        0.08760070
      86         -0.410413        1.000000        0.00003421        0.21744273        0.02816248        0.28751837
      87         -0.409676        1.000000        0.00001198        0.03170767        0.25292544        0.24456402
      88         -0.406049        1.000000        0.00003234        0.03229019        0.48814805        0.00984603
      89         -0.402900        1.000000        0.00000455        0.50534997        0.03334659        0.00090724
      90         -0.395721        1.000000        0.00005116        0.28476668        0.23889660        0.00804109
      91         -0.393358        1.000000        0.00005652        0.23566568        0.28532966        0.00776786
      92         -0.391961        1.000000        0.00001365        0.51251299        0.01229706        0.00112148
      93         -0.389969        1.000000        0.00000158        0.00960280        0.48103570        0.03587547
      94         -0.288279        1.000000        0.00002005        0.00005338        0.00012727        0.00017575
      95         -0.283236        1.000000        0.00002399        0.00005185        0.00019326        0.00012295
      96         -0.278295        1.000000        0.00011685        0.00120276        0.00043207        0.00010141
      97         -0.273520        1.000000        0.00007077        0.00053634        0.00034502        0.00003188
      98         -0.271390        1.000000        0.00003269        0.00031434        0.00025691        0.00004335
      99         -0.269858        1.000000        0.00009915        0.00055181        0.00003295        0.00013223
     100         -0.268653        1.000000        0.00014093        0.00038005        0.00018471        0.00009310
     101         -0.268258        1.000000        0.00007371        0.00018490        0.00008915        0.00014478
     102         -0.266536        1.000000        0.00007980        0.00010748        0.00020734        0.00011132
     103         -0.265756        1.000000        0.00007761        0.00051829        0.00036562        0.00028033
     104         -0.264661        1.000000        0.00014576        0.00005728        0.00015796        0.00010952
     105         -0.262396        1.000000        0.00009582        0.00009523        0.00020423        0.00036813
     106         -0.260668        1.000000        0.00025747        0.00024503        0.00041117        0.00023118
     107         -0.259660        1.000000        0.00007854        0.00063182        0.00009315        0.00003239
     108         -0.253817        1.000000        0.00023310        0.00050588        0.00029399        0.00058909
     109         -0.250539        1.000000        0.00046343        0.00080012        0.00015087        0.00142060
     110         -0.247650        1.000000        0.00064589        0.00022611        0.00025804        0.00152180
     111         -0.245943        1.000000        0.00020837        0.00036957        0.00051266        0.00084473
     112         -0.244313        1.000000        0.00026820        0.00045505        0.00022178        0.00037408
     113         -0.243568        1.000000        0.00032373        0.00059281        0.00053305        0.00047095
     114         -0.241243        1.000000        0.00033838        0.00069650        0.00020582        0.00064093
     115         -0.239535        1.000000        0.00018405        0.00067574        0.00053715        0.00068793
     116         -0.238161        1.000000        0.00004587        0.00009260        0.00048752        0.00020055
     117         -0.236824        1.000000        0.00024410        0.00063219        0.00027870        0.00046738
     118         -0.235620        1.000000        0.00022485        0.00057418        0.00066169        0.00044471
     119         -0.233737        1.000000        0.00021238        0.00142884        0.00023646        0.00025831
     120         -0.231607        1.000000        0.00006726        0.00020757        0.00031462        0.00107209
     121         -0.230700        1.000000        0.00031886        0.00029950        0.00005828        0.00074646
     122         -0.228632        1.000000        0.00060435        0.00011245        0.00070267        0.00092328
     123         -0.227880        1.000000        0.00032939        0.00114069        0.00075526        0.00055007
     124         -0.226254        1.000000        0.00076479        0.00077250        0.00030877        0.00028416
     125         -0.224850        1.000000        0.00021014        0.00068242        0.00075001        0.00055480
     126         -0.224439        1.000000        0.00009043        0.00060054        0.00062774        0.00026823
     127         -0.221893        1.000000        0.00012847        0.00025787        0.00095294        0.00074224
     128         -0.220018        1.000000        0.00096753        0.00033222        0.00069669        0.00037789
     129         -0.218615        1.000000        0.00019177        0.00175226        0.00089974        0.00013001
     130         -0.217824        1.000000        0.00020741        0.00048734        0.00025719        0.00031469
     131         -0.216719        1.000000        0.00087792        0.00042738        0.00098787        0.00107141
     132         -0.216092        1.000000        0.00053105        0.00034368        0.00095325        0.00024294
     133         -0.214694        1.000000        0.00013045        0.00032767        0.00004047        0.00034608
     134         -0.213076        1.000000        0.00032180        0.00015452        0.00179920        0.00019469
     135         -0.212298        1.000000        0.00017307        0.00075745        0.00027800        0.00001328
     136         -0.211056        1.000000        0.00039241        0.00075423        0.00050050        0.00066092
     137         -0.210454        1.000000        0.00025603        0.00072997        0.00032510        0.00020796
     138         -0.209302        1.000000        0.00011526        0.00023641        0.00050780        0.00009637
     139         -0.208359        1.000000        0.00010726        0.00027871        0.00028550        0.00010116
     140         -0.206949        1.000000        0.00025267        0.00054486        0.00046736        0.00041383
     141         -0.206064        1.000000        0.00008837        0.00026116        0.00028334        0.00013819
     142         -0.204606        1.000000        0.00021686        0.00014268        0.00025802        0.00035757
     143         -0.204007        1.000000        0.00015092        0.00016050        0.00029360        0.00007867
     144         -0.203239        1.000000        0.00021332        0.00030217        0.00015660        0.00004506
     145         -0.202577        1.000000        0.00010431        0.00002690        0.00024153        0.00015159
     146         -0.201742        1.000000        0.00011057        0.00020697        0.00017870        0.00020017
     147         -0.201061        1.000000        0.00010964        0.00006849        0.00009394        0.00007816
     148         -0.199806        1.000000        0.00012149        0.00038762        0.00011144        0.00030785
     149         -0.199696        1.000000        0.00026538        0.00044809        0.00022825        0.00028531
     150         -0.199118        1.000000        0.00012864        0.00016645        0.00036129        0.00017897
     151         -0.198970        1.000000        0.00034214        0.00060029        0.00035392        0.00014702
     152         -0.198295        1.000000        0.00005292        0.00041904        0.00029675        0.00008651
     153         -0.197692        1.000000        0.00005853        0.00015656        0.00012632        0.00030000
     154         -0.197591        1.000000        0.00024533        0.00016454        0.00038912        0.00007256
     155         -0.197198        1.000000        0.00008483        0.00044898        0.00053343        0.00014874
     156         -0.196672        1.000000        0.00003478        0.00009799        0.00016838        0.00007100
     157         -0.195398        1.000000        0.00005500        0.00005526        0.00026572        0.00002089
     158         -0.195050        1.000000        0.00007187        0.00025282        0.00031125        0.00013206
     159         -0.194599        1.000000        0.00013138        0.00066019        0.00007933        0.00010538
     160         -0.194581        1.000000        0.00017929        0.00036388        0.00027038        0.00003684
     161         -0.193949        1.000000        0.00008469        0.00022985        0.00051759        0.00005959
     162         -0.193074        1.000000        0.00005438        0.00022545        0.00014098        0.00017919
     163         -0.192708        1.000000        0.00005538        0.00006512        0.00024320        0.00024887
     164         -0.192342        1.000000        0.00004343        0.00006645        0.00025488        0.00011422
     165         -0.191875        1.000000        0.00026107        0.00004871        0.00033796        0.00007869
     166         -0.191020        1.000000        0.00012669        0.00015057        0.00010899        0.00004968
     167         -0.190882        1.000000        0.00006267        0.00014780        0.00024135        0.00008133
     168         -0.190742        1.000000        0.00013500        0.00022369        0.00029583        0.00010439
     169         -0.190502        1.000000        0.00003928        0.00012465        0.00013544        0.00011342
     170         -0.189449        1.000000        0.00012095        0.00007134        0.00020457        0.00003476
     171         -0.189346        1.000000        0.00006659        0.00009621        0.00019801        0.00006122
     172         -0.188657        1.000000        0.00004817        0.00021006        0.00009443        0.00007599
     173         -0.188441        1.000000        0.00004415        0.00003461        0.00008904        0.00004278
     174         -0.188191        1.000000        0.00001605        0.00010460        0.00010642        0.00009523
     175         -0.188045        1.000000        0.00005302        0.00013049        0.00011870        0.00003492
     176         -0.187687        1.000000        0.00006575        0.00009484        0.00007595        0.00002593
     177         -0.187354        1.000000        0.00007386        0.00001755        0.00010338        0.00004750
     178         -0.187103        1.000000        0.00003715        0.00009947        0.00009664        0.00003515
     179         -0.186652        1.000000        0.00003607        0.00004270        0.00010476        0.00008362
     180         -0.186309        1.000000        0.00013201        0.00007219        0.00014561        0.00001109
     181         -0.186163        1.000000        0.00004250        0.00020497        0.00014420        0.00008071
     182         -0.185798        1.000000        0.00005643        0.00017143        0.00004416        0.00009474
     183         -0.185386        1.000000        0.00005550        0.00019569        0.00008996        0.00012647
     184         -0.185112        1.000000        0.00005614        0.00019606        0.00008601        0.00002167
     185         -0.184829        1.000000        0.00003202        0.00016884        0.00006067        0.00003022
     186         -0.184684        1.000000        0.00006417        0.00017661        0.00007694        0.00003473
     187         -0.184404        1.000000        0.00002859        0.00013052        0.00016188        0.00006815
     188         -0.184340        1.000000        0.00001231        0.00002218        0.00010868        0.00003023
     189         -0.184089        1.000000        0.00003514        0.00006675        0.00005670        0.00002686
     190         -0.183652        1.000000        0.00001286        0.00006645        0.00002025        0.00004340
     191         -0.183481        1.000000        0.00005538        0.00003481        0.00002315        0.00003248
     192         -0.183182        1.000000        0.00000412        0.00002219        0.00002056        0.00000619
     193         -0.182763        1.000000        0.00004148        0.00001978        0.00001740        0.00001382
     194         -0.182539        1.000000        0.00000802        0.00002669        0.00002529        0.00001781
     195         -0.182486        1.000000        0.00002154        0.00006179        0.00003108        0.00002176
     196         -0.182260        0.000000        0.00001986        0.00009289        0.00015165        0.00005377
     197         -0.182129        0.000000        0.00001013        0.00002505        0.00004828        0.00001533
     198         -0.181963        0.000000        0.00005778        0.00006509        0.00002045        0.00001654
     199         -0.181682        0.000000        0.00001599        0.00003616        0.00006103        0.00001803
     200         -0.180154        0.000000        0.00003163        0.00005556        0.00002192        0.00001861
     201         -0.178693        0.000000        0.00001075        0.00002949        0.00001773        0.00000598
     202         -0.075231        0.000000        0.00002354        0.00006546        0.00003874        0.00006222
     203         -0.070678        0.000000        0.00007115        0.00003411        0.00002277        0.00003255
     204         -0.066541        0.000000        0.00004889        0.00009909        0.00000819        0.00003734
     205         -0.065095        0.000000        0.00000713        0.00000893        0.00000212        0.00000652
     206         -0.063135        0.000000        0.00001045        0.00003873        0.00001041        0.00000757
     207         -0.059626        0.000000        0.00003420        0.00001562        0.00003502        0.00003634
     208         -0.058770        0.000000        0.00001653        0.00002577        0.00001192        0.00000620
     209         -0.056658        0.000000        0.00000512        0.00007023        0.00000762        0.00007734
     210         -0.053899        0.000000        0.00000823        0.00001653        0.00002056        0.00002446
     211         -0.049162        0.000000        0.00017243        0.00015420        0.00010862        0.00002895
     212         -0.048083        0.000000        0.00000940        0.00001021        0.00000734        0.00000824
     213         -0.042721        0.000000        0.00004003        0.00003740        0.00002419        0.00006132
     214         -0.041513        0.000000        0.00002712        0.00005074        0.00002107        0.00001465
     215         -0.039912        0.000000        0.00008047        0.00005823        0.00005514        0.00007243
     216         -0.039001        0.000000        0.00003396        0.00002197        0.00001362        0.00003616
     217         -0.032875        0.000000        0.00000714        0.00002203        0.00004458        0.00008849
     218         -0.029848        0.000000        0.00000622        0.00000917        0.00002727        0.00001087
     219         -0.028006        0.000000        0.00005453        0.00004156        0.00001166        0.00003683
     220         -0.026888        0.000000        0.00002360        0.00001109        0.00001316        0.00003225
     221         -0.026243        0.000000        0.00004382        0.00004359        0.00004275        0.00003203
     222         -0.023514        0.000000        0.00001225        0.00001303        0.00002402        0.00004078
     223         -0.018649        0.000000        0.00001131        0.00000727        0.00002300        0.00001990
     224         -0.014977        0.000000        0.00001431        0.00000594        0.00001032        0.00001266
     225         -0.006006        0.000000        0.00002681        0.00000394        0.00004200        0.00003158
     226          0.075976        0.000000        0.08376165        0.00218731        0.00048838        0.55200325
     227          0.090681        0.000000        0.07810019        0.00015730        0.06871503        0.48616990
     228          0.092342        0.000000        0.08036066        0.05824668        0.31624348        0.16340508
     229          0.095648        0.000000        0.08199069        0.00173565        0.27902389        0.25537444
     230          0.100119        0.000000        0.07781011        0.00000218        0.00922743        0.54572083
     231          0.117525        0.000000        0.08102352        0.02159621        0.00047527        0.52433023
     232          0.119355        0.000000        0.08049706        0.00022640        0.03557999        0.51193145
     233          0.147525        0.000000        0.00517904        0.00166988        0.01049815        0.00321378
     234          0.160838        0.000000        0.00429388        0.00031811        0.00452070        0.00749306
     235          0.185098        0.000000        0.00021644        0.00063517        0.00022467        0.00023737
     236          0.223379        0.000000        0.00237962        0.00157496        0.00087737        0.00203597
     237          0.267823        0.000000        0.00284011        0.00005717        0.00262090        0.00046395
     238          0.279117        0.000000        0.00001014        0.00449480        0.00055289        0.00006685
     239          0.281922        0.000000        0.00001593        0.00056423        0.00553188        0.00031755
     240          0.282576        0.000000        0.00015349        0.00485472        0.00044771        0.00021408
     241          0.285382        0.000000        0.00029216        0.00404871        0.00157871        0.00031530
     242          0.286510        0.000000        0.00003282        0.00175757        0.00411899        0.00000549
     243          0.296037        0.000000        0.00032117        0.00419160        0.00171106        0.00241254
     244          0.300864        0.000000        0.00000260        0.00116443        0.00581667        0.00008208
     245          0.307711        0.000000        0.00004639        0.00695989        0.00017954        0.00009143
     246          0.311287        0.000000        0.00005377        0.00642404        0.00081127        0.00086000
     247          0.311699        0.000000        0.00337505        0.00022690        0.00136812        0.00203980
     248          0.313480        0.000000        0.00003145        0.00019751        0.00784735        0.00030874
     249          0.317309        0.000000        0.00372331        0.00286905        0.00033087        0.00031586
     250          0.324219        0.000000        0.00459673        0.00061585        0.00010130        0.00011707
     251          0.332777        0.000000        0.00582496        0.00030525        0.00010843        0.00011329
     252          0.349383        0.000000        0.00494316        0.00033575        0.00032438        0.00012310
     253          0.356116        0.000000        0.00533413        0.00026818        0.00022939        0.00006458
     254          0.441377        0.000000        0.00001146        0.38848717        0.00214021        0.00176129
     255          0.441563        0.000000        0.00055359        0.00214799        0.38887799        0.00002741
     256          0.454158        0.000000        0.00001697        0.00810631        0.17840531        0.20415002
     257          0.455042        0.000000        0.00002479        0.08252714        0.06009534        0.25031302
     258          0.455098        0.000000        0.00002569        0.37492199        0.00943535        0.00744922
     259          0.455828        0.000000        0.00001497        0.00087398        0.34258751        0.04924997