# Projected DOS for atomic kind Pb at iteration step i = 0, E(Fermi) =    -0.181961 a.u.
#     MO Eigenvalue [a.u.]      Occupation                 s                py                pz                px
       1         -0.987536        1.000000        0.00000002        0.00000026        0.00000027        0.00000022
       2         -0.960373        1.000000        0.00000012        0.00000169        0.00000247        0.00000109
       3         -0.956015        1.000000        0.00000042        0.00000786        0.00000773        0.00000254
       4         -0.955479        1.000000        0.00000011        0.00000070        0.00000103        0.00000096
       5         -0.947822        1.000000        0.00000026        0.00000389        0.00000297        0.00000183
       6         -0.932551        1.000000        0.00000086        0.00001167        0.00000747        0.00000308
       7         -0.927341        1.000000        0.00000407        0.00002599        0.00006478        0.00001424
       8         -0.718448        1.000000        0.00001335        0.00002092        0.00001805        0.00001582
       9         -0.698272        1.000000        0.00002060        0.00004528        0.00003237        0.00000638
      10         -0.698176        1.000000        0.00002565        0.00002326        0.00002040        0.00002091
      11         -0.696811        1.000000        0.00001141        0.00001073        0.00000906        0.00002233
      12         -0.689468        1.000000        0.00002782        0.00003335        0.00001632        0.00001057
      13         -0.678564        1.000000        0.00005612        0.00006682        0.00003275        0.00000650
      14         -0.674314        1.000000        0.00006220        0.00005103        0.00010357        0.00006219
      15         -0.619367        1.000000        0.01553431        0.00019965        0.00827630        0.00309254
      16         -0.613893        1.000000        0.00013718        0.00002636        0.00001041        0.00002370
      17         -0.607739        1.000000        0.05895741        0.00072083        0.00982386        0.00491573
      18         -0.602297        1.000000        0.09246376        0.00693671        0.00444810        0.00122871
      19         -0.598833        1.000000        0.05470883        0.00507268        0.01100740        0.00274099
      20         -0.598203        1.000000        0.00751591        0.00178070        0.00045294        0.00059022
      21         -0.597075        1.000000        0.03331283        0.01241343        0.00343585        0.00417029
      22         -0.594011        1.000000        0.05017213        0.00654562        0.00613639        0.00217521
      23         -0.593306        1.000000        0.02181846        0.00762113        0.00601393        0.01030029
      24         -0.591638        1.000000        0.01337510        0.00623706        0.00567665        0.00325739
      25         -0.589939        1.000000        0.04221867        0.01012379        0.00435268        0.00194785
      26         -0.586484        1.000000        0.04747799        0.00529639        0.00405257        0.00835095
      27         -0.585736        1.000000        0.03210294        0.00146266        0.00509687        0.01151349
      28         -0.585265        1.000000        0.03424955        0.00198297        0.00385412        0.01608335
      29         -0.583990        1.000000        0.02199299        0.00258424        0.00446422        0.00372690
      30         -0.582723        1.000000        0.01976349        0.00314714        0.00891077        0.01521456
      31         -0.581768        1.000000        0.02893685        0.01088505        0.00517150        0.01178131
      32         -0.578581        1.000000        0.02379740        0.00223436        0.00745516        0.00178983
      33         -0.576962        1.000000        0.05233296        0.00449522        0.00589562        0.00749016
      34         -0.576296        1.000000        0.03144897        0.00360120        0.01147255        0.00974853
      35         -0.575902        1.000000        0.01272341        0.00129604        0.02181703        0.01026137
      36         -0.574291        1.000000        0.04089148        0.00157482        0.00544057        0.00478662
      37         -0.573618        1.000000        0.04285829        0.00361184        0.01256843        0.00354852
      38         -0.573223        1.000000        0.01072942        0.02899236        0.00098984        0.00670395
      39         -0.572233        1.000000        0.02538241        0.00303206        0.00420698        0.00488423
      40         -0.571461        1.000000        0.01756835        0.00575590        0.00173481        0.00582622
      41         -0.571063        1.000000        0.00110552        0.00480687        0.00250437        0.00182333
      42         -0.569801        1.000000        0.01174247        0.00116942        0.00603567        0.00409858
      43         -0.569221        1.000000        0.01680376        0.00557034        0.01129623        0.01403287
      44         -0.569080        1.000000        0.01581918        0.00899003        0.00292768        0.01105880
      45         -0.567234        1.000000        0.00631629        0.00053401        0.00078504        0.00886708
      46         -0.566654        1.000000        0.01683450        0.00141708        0.01025068        0.00191039
      47         -0.565886        1.000000        0.00071563        0.00537200        0.00024247        0.01547367
      48         -0.563341        1.000000        0.00024350        0.00133854        0.00188614        0.01127683
      49         -0.563232        1.000000        0.00256513        0.00017789        0.00497668        0.01787158
      50         -0.562587        1.000000        0.00055790        0.00203522        0.00182250        0.00071687
      51         -0.562200        1.000000        0.00204682        0.01246212        0.00784252        0.00057220
      52         -0.561957        1.000000        0.00332144        0.00030196        0.02373134        0.00923708
      53         -0.559747        1.000000        0.00683368        0.00068515        0.01906533        0.00108585
      54         -0.559579        1.000000        0.00579658        0.00072539        0.00405566        0.01485934
      55         -0.558453        1.000000        0.01477314        0.01303849        0.00130057        0.00208568
      56         -0.557181        1.000000        0.00426087        0.01555000        0.00240574        0.00033637
      57         -0.555442        1.000000        0.00548966        0.01281490        0.00070493        0.00006947
      58         -0.554594        1.000000        0.00013428        0.00115847        0.00411422        0.00003434
      59         -0.553291        1.000000        0.00185119        0.00175072        0.00198895        0.00029901
      60         -0.551914        1.000000        0.00034355        0.00259596        0.00025372        0.00028984
      61         -0.549270        1.000000        0.00000624        0.00003143        0.00000317        0.00000346
      62         -0.546079        1.000000        0.00333442        0.00189334        0.00094252        0.00008428
      63         -0.544046        1.000000        0.00073554        0.00595930        0.00077167        0.00005008
      64         -0.537795        1.000000        0.00909048        0.00442309        0.00018567        0.00034561
      65         -0.506421        1.000000        0.00033229        0.00001088        0.00003418        0.00000434
      66         -0.483330        1.000000        0.00352704        0.00000457        0.00003736        0.00003501
      67         -0.481047        1.000000        0.00137710        0.00000975        0.00003126        0.00000810
      68         -0.478849        1.000000        0.00269446        0.00003646        0.00004745        0.00001111
      69         -0.470282        1.000000        0.01366344        0.00001978        0.00001906        0.00005248
      70         -0.466227        1.000000        0.69959212        0.00012567        0.00166586        0.00026243
      71         -0.463229        1.000000        0.73185925        0.00182088        0.00125196        0.00134065
      72         -0.459913        1.000000        0.74643345        0.00153095        0.00125175        0.00070250
      73         -0.458880        1.000000        0.11416434        0.00005769        0.00020718        0.00026526
      74         -0.458393        1.000000        0.70539364        0.00040735        0.00106164        0.00084411
      75         -0.456873        1.000000        0.63026013        0.00042506        0.00017030        0.00095728
      76         -0.454449        1.000000        0.27602340        0.00019982        0.00055660        0.00014611
      77         -0.452033        1.000000        0.58260677        0.00017853        0.00068707        0.00016314
      78         -0.449067        1.000000        0.76292445        0.00059382        0.00043046        0.00054983
      79         -0.447521        1.000000        0.77129865        0.00035531        0.00016496        0.00023721
      80         -0.427723        1.000000        0.00050793        0.00002708        0.00009458        0.00000872
      81         -0.425199        1.000000        0.00126123        0.00014376        0.00015826        0.00003016
      82         -0.415446        1.000000        0.00075415        0.00009442        0.00006017        0.00007066
      83         -0.412950        1.000000        0.00080576        0.00009188        0.00008270        0.00005343
      84         -0.412008        1.000000        0.00014398        0.00005076        0.00010050        0.00000666
      85         -0.411383        1.000000        0.00027863        0.00008701        0.00010101        0.00001746
      86         -0.410208        1.000000        0.00047617        0.00004989        0.00009318        0.00015014
      87         -0.409468        1.000000        0.00026339        0.00001758        0.00003006        0.00008236
      88         -0.405868        1.000000        0.00008571        0.00005973        0.00008165        0.00003111
      89         -0.402719        1.000000        0.00010460        0.00010350        0.00006237        0.00003350
      90         -0.395516        1.000000        0.00016744        0.00003411        0.00004753        0.00007641
      91         -0.393154        1.000000        0.00023538        0.00001912        0.00016059        0.00004367
      92         -0.391747        1.000000        0.00044923        0.00006435        0.00009541        0.00013631
      93         -0.389788        1.000000        0.00065048        0.00017865        0.00035092        0.00038511
      94         -0.287600        1.000000        0.00570933        0.01153533        0.10975298        0.09211094
      95         -0.283344        1.000000        0.00142767        0.00786063        0.03390459        0.08678342
      96         -0.278178        1.000000        0.00992645        0.06567915        0.09249000        0.08888972
      97         -0.273297        1.000000        0.00492815        0.22002349        0.02267378        0.03000032
      98         -0.271229        1.000000        0.01090820        0.11987767        0.01853924        0.11969476
      99         -0.269531        1.000000        0.00467180        0.12717906        0.09123666        0.04148537
     100         -0.268301        1.000000        0.00619617        0.09548227        0.07826446        0.08368141
     101         -0.268059        1.000000        0.00308454        0.06085841        0.02685981        0.13361488
     102         -0.266169        1.000000        0.00253349        0.04492556        0.12732680        0.02572963
     103         -0.264977        1.000000        0.00389879        0.18763804        0.04023684        0.02000962
     104         -0.263655        1.000000        0.00427377        0.06857581        0.12904831        0.01834500
     105         -0.261992        1.000000        0.00256029        0.01421031        0.16217743        0.07845263
     106         -0.260340        1.000000        0.00140709        0.02289782        0.10680986        0.10530453
     107         -0.259130        1.000000        0.00099578        0.00532074        0.13535178        0.09294934
     108         -0.253175        1.000000        0.00826533        0.05863292        0.06771361        0.06138496
     109         -0.250121        1.000000        0.00289649        0.03818475        0.09276334        0.03488142
     110         -0.247267        1.000000        0.00160986        0.01611471        0.09761879        0.04606890
     111         -0.245672        1.000000        0.00341709        0.00992901        0.02877208        0.16159195
     112         -0.243765        1.000000        0.00262387        0.02474618        0.04881098        0.11094115
     113         -0.242330        1.000000        0.00342378        0.01613828        0.05882248        0.05054366
     114         -0.240886        1.000000        0.00391270        0.02702720        0.04206514        0.07255169
     115         -0.239229        1.000000        0.00642166        0.02043754        0.02608939        0.10777388
     116         -0.237952        1.000000        0.00296150        0.08164386        0.08817880        0.01922612
     117         -0.236516        1.000000        0.00661959        0.05830954        0.05263200        0.05826303
     118         -0.235191        1.000000        0.00361688        0.07625312        0.02211778        0.03041438
     119         -0.233323        1.000000        0.00121373        0.06709185        0.01563171        0.02557566
     120         -0.231280        1.000000        0.00232372        0.04998781        0.01176578        0.01466222
     121         -0.230379        1.000000        0.00261974        0.08743081        0.01276885        0.01652657
     122         -0.228228        1.000000        0.00310202        0.04063557        0.01276544        0.01156457
     123         -0.227603        1.000000        0.00333025        0.04703418        0.01900934        0.02752540
     124         -0.225758        1.000000        0.00591839        0.06543761        0.00850560        0.01712022
     125         -0.224435        1.000000        0.00317558        0.03492657        0.00832263        0.03718773
     126         -0.224037        1.000000        0.00618382        0.02959298        0.01738887        0.01323287
     127         -0.221603        1.000000        0.00323032        0.01050650        0.01294525        0.00869441
     128         -0.219868        1.000000        0.00253877        0.00874761        0.01035580        0.00374524
     129         -0.218406        1.000000        0.00264567        0.00747868        0.00912408        0.01358304
     130         -0.217467        1.000000        0.00193506        0.00678337        0.01392074        0.00860582
     131         -0.216446        1.000000        0.00273004        0.01454522        0.00907503        0.00861736
     132         -0.215820        1.000000        0.01292718        0.01854531        0.02046500        0.00857286
     133         -0.214537        1.000000        0.00980908        0.01815647        0.01334547        0.01945535
     134         -0.212519        1.000000        0.00376617        0.00914112        0.00488028        0.00401403
     135         -0.211916        1.000000        0.00215054        0.00214108        0.00450943        0.00229395
     136         -0.210975        1.000000        0.00246201        0.00974311        0.00897005        0.00418441
     137         -0.210389        1.000000        0.00313365        0.00174033        0.00368746        0.00283964
     138         -0.209067        1.000000        0.00349296        0.00214825        0.00454991        0.00478535
     139         -0.208208        1.000000        0.00533519        0.01074531        0.00636151        0.00529469
     140         -0.206559        1.000000        0.00594413        0.00276454        0.00392767        0.00398154
     141         -0.206052        1.000000        0.00147587        0.00161657        0.00133645        0.00274576
     142         -0.204145        1.000000        0.00190031        0.00113176        0.00266136        0.00072267
     143         -0.203750        1.000000        0.00155705        0.00203407        0.00290520        0.00166466
     144         -0.203071        1.000000        0.00307940        0.00184444        0.00242987        0.00227854
     145         -0.202190        1.000000        0.00605444        0.00282342        0.00630741        0.00416861
     146         -0.201485        1.000000        0.01335865        0.00672760        0.00662764        0.00577632
     147         -0.200576        1.000000        0.00078415        0.00298520        0.00121670        0.00053096
     148         -0.199419        1.000000        0.00322223        0.00157995        0.00114134        0.00125673
     149         -0.199283        1.000000        0.00308231        0.00182656        0.00114112        0.00034814
     150         -0.198636        1.000000        0.00519974        0.00201838        0.00110856        0.00067676
     151         -0.198222        1.000000        0.00218077        0.00169999        0.00134252        0.00038663
     152         -0.197581        1.000000        0.00969954        0.00305465        0.00453414        0.00286835
     153         -0.197325        1.000000        0.00120077        0.00135671        0.00064821        0.00076211
     154         -0.197157        1.000000        0.00314410        0.00163823        0.00113506        0.00108065
     155         -0.196328        1.000000        0.00625096        0.00239659        0.00187951        0.00096989
     156         -0.195476        1.000000        0.00506402        0.00032341        0.00194668        0.00190607
     157         -0.194983        1.000000        0.00781968        0.00161640        0.00257324        0.00243240
     158         -0.194652        1.000000        0.01071050        0.00345048        0.00188965        0.00033062
     159         -0.193732        1.000000        0.01217113        0.00283839        0.00198641        0.00042549
     160         -0.193549        1.000000        0.00498666        0.00193313        0.00120937        0.00079249
     161         -0.192967        1.000000        0.00408538        0.00118619        0.00060705        0.00038794
     162         -0.192146        1.000000        0.00203492        0.00043933        0.00112040        0.00045053
     163         -0.191704        1.000000        0.00396766        0.00114731        0.00027579        0.00030663
     164         -0.191527        1.000000        0.00501035        0.00241581        0.00129905        0.00111538
     165         -0.191295        1.000000        0.01067051        0.00293389        0.00157583        0.00050975
     166         -0.191118        1.000000        0.01033635        0.00352191        0.00234447        0.00045556
     167         -0.190684        1.000000        0.01907087        0.00494118        0.00204573        0.00166884
     168         -0.190317        1.000000        0.00415708        0.00042333        0.00161567        0.00162503
     169         -0.189853        1.000000        0.00401991        0.00086155        0.00042173        0.00164824
     170         -0.189032        1.000000        0.00610667        0.00135487        0.00160981        0.00158278
     171         -0.188749        1.000000        0.00811575        0.00097785        0.00196629        0.00261915
     172         -0.188557        1.000000        0.00803801        0.00109077        0.00137647        0.00298730
     173         -0.187730        1.000000        0.00311946        0.00157242        0.00066581        0.00024881
     174         -0.187331        1.000000        0.01759110        0.00132294        0.00327560        0.00271435
     175         -0.187088        1.000000        0.01121456        0.00125382        0.00093820        0.00189159
     176         -0.186479        1.000000        0.02241243        0.00329753        0.00156530        0.00201676
     177         -0.186237        1.000000        0.01302730        0.00030577        0.00155965        0.00276840
     178         -0.185515        1.000000        0.00553212        0.00087820        0.00036654        0.00100451
     179         -0.185401        1.000000        0.01088282        0.00028378        0.00146142        0.00239669
     180         -0.185092        1.000000        0.00205523        0.00021019        0.00067601        0.00034011
     181         -0.184973        1.000000        0.00402691        0.00057085        0.00080288        0.00025314
     182         -0.184678        1.000000        0.02162162        0.00090656        0.00256924        0.00110467
     183         -0.184482        1.000000        0.01010258        0.00025900        0.00191466        0.00099399
     184         -0.184244        1.000000        0.00968557        0.00027408        0.00122464        0.00109266
     185         -0.184055        1.000000        0.02494637        0.00096851        0.00169417        0.00169091
     186         -0.183456        1.000000        0.02116316        0.00054180        0.00102896        0.00199205
     187         -0.183297        1.000000        0.00778956        0.00074172        0.00096244        0.00068613
     188         -0.183050        1.000000        0.00865185        0.00022562        0.00108994        0.00083563
     189         -0.182845        1.000000        0.01139939        0.00007679        0.00068428        0.00145924
     190         -0.182750        1.000000        0.01082777        0.00078255        0.00055982        0.00071178
     191         -0.182326        1.000000        0.00886066        0.00017968        0.00066675        0.00072683
     192         -0.182179        1.000000        0.01473605        0.00070660        0.00101059        0.00118149
     193         -0.182091        1.000000        0.00451839        0.00025039        0.00052094        0.00049847
     194         -0.181961        1.000000        0.00958307        0.00041631        0.00123811        0.00082254
     195         -0.181909        0.000000        0.00969313        0.00017764        0.00067534        0.00066555
     196         -0.181575        0.000000        0.04533617        0.00094216        0.00298073        0.00192384
     197         -0.181160        0.000000        0.02659952        0.00032411        0.00133323        0.00154278
     198         -0.180955        0.000000        0.03305615        0.00079205        0.00254307        0.00121902
     199         -0.180005        0.000000        0.00492628        0.00010044        0.00060249        0.00014674
     200         -0.179540        0.000000        0.08238075        0.00107934        0.00391068        0.00431394
     201         -0.178370        0.000000        0.08227291        0.00076079        0.00385969        0.00328806
     202         -0.075041        0.000000        0.00324731        0.65455350        0.03977666        0.05050643
     203         -0.070367        0.000000        0.00209376        0.57038949        0.15597889        0.00745368
     204         -0.066392        0.000000        0.00431568        0.02218837        0.62648912        0.07803421
     205         -0.064937        0.000000        0.00331566        0.39016777        0.02526550        0.30246570
     206         -0.062876        0.000000        0.00509477        0.07147844        0.01367539        0.64126181
     207         -0.059463        0.000000        0.00473877        0.25624220        0.14782714        0.30522837
     208         -0.058470        0.000000        0.00837858        0.25822437        0.32630139        0.11327724
     209         -0.056219        0.000000        0.00197558        0.47842900        0.16304830        0.05447086
     210         -0.053639        0.000000        0.00496261        0.59506419        0.02067184        0.09388886
     211         -0.048875        0.000000        0.00341868        0.06297846        0.03521322        0.61252465
     212         -0.047706        0.000000        0.00406302        0.01069843        0.61752438        0.05591823
     213         -0.042607        0.000000        0.00305244        0.11451871        0.37928641        0.20266699
     214         -0.041340        0.000000        0.00225220        0.01445937        0.50791671        0.16665713
     215         -0.039627        0.000000        0.00268678        0.12245653        0.38025651        0.19993259
     216         -0.038823        0.000000        0.00275817        0.04340381        0.30843571        0.34640965
     217         -0.032447        0.000000        0.00084573        0.03159349        0.05388348        0.59588782
     218         -0.029751        0.000000        0.00083116        0.46570561        0.05414935        0.16670377
     219         -0.027819        0.000000        0.00076159        0.05798028        0.30742088        0.33039360
     220         -0.026725        0.000000        0.00105432        0.14800634        0.23109939        0.31360501
     221         -0.026119        0.000000        0.00044656        0.03678660        0.39866423        0.25277674
     222         -0.023410        0.000000        0.00079185        0.59137904        0.05792685        0.04215921
     223         -0.018565        0.000000        0.00028551        0.00937588        0.64907112        0.02524712
     224         -0.014854        0.000000        0.00133467        0.02510150        0.06922646        0.58734678
     225         -0.005810        0.000000        0.00062267        0.60665850        0.00895257        0.05347161
     226          0.076142        0.000000        0.00000320        0.00009309        0.00010811        0.00002799
     227          0.090830        0.000000        0.00000171        0.00005863        0.00010369        0.00003412
     228          0.092528        0.000000        0.00000369        0.00009071        0.00010902        0.00009807
     229          0.095841        0.000000        0.00000286        0.00009046        0.00007417        0.00008168
     230          0.100304        0.000000        0.00000005        0.00001364        0.00000758        0.00000051
     231          0.117719        0.000000        0.00000025        0.00003636        0.00007934        0.00001924
     232          0.119515        0.000000        0.00000125        0.00014702        0.00019185        0.00004674
     233          0.147748        0.000000        0.00000176        0.00000531        0.00003323        0.00000419
     234          0.161028        0.000000        0.00000308        0.00000887        0.00000823        0.00006189
     235          0.185290        0.000000        0.00000050        0.00000832        0.00000754        0.00000568
     236          0.223559        0.000000        0.00000318        0.00000704        0.00000186        0.00004079
     237          0.268018        0.000000        0.00000138        0.00000065        0.00000753        0.00002153
     238          0.279296        0.000000        0.00000425        0.00013254        0.00005324        0.00001370
     239          0.282089        0.000000        0.00000371        0.00001268        0.00005539        0.00002521
     240          0.282764        0.000000        0.00000079        0.00000583        0.00003606        0.00000135
     241          0.285488        0.000000        0.00000223        0.00000303        0.00000660        0.00000562
     242          0.286698        0.000000        0.00000043        0.00010725        0.00022544        0.00000174
     243          0.296241        0.000000        0.00000219        0.00001659        0.00001991        0.00000916
     244          0.301066        0.000000        0.00000479        0.00002619        0.00013496        0.00004026
     245          0.307907        0.000000        0.00000173        0.00000855        0.00003004        0.00001015
     246          0.311487        0.000000        0.00000628        0.00004688        0.00007736        0.00004208
     247          0.311888        0.000000        0.00000106        0.00000192        0.00009375        0.00000184
     248          0.313660        0.000000        0.00000094        0.00000178        0.00007138        0.00002783
     249          0.317505        0.000000        0.00001129        0.00002890        0.00009401        0.00011069
     250          0.324391        0.000000        0.00000312        0.00003360        0.00001446        0.00002741
     251          0.332933        0.000000        0.00000392        0.00000885        0.00000136        0.00001104
     252          0.349584        0.000000        0.00000618        0.00005773        0.00012939        0.00003418
     253          0.356321        0.000000        0.00000076        0.00007091        0.00008020        0.00003231
     254          0.441538        0.000000        0.00000402        0.00001395        0.00003448        0.00001027
     255          0.441726        0.000000        0.00000020        0.00004336        0.00006177        0.00005189
     256          0.454335        0.000000        0.00000029        0.00000877        0.00000750        0.00000159
     257          0.455217        0.000000        0.00000058        0.00002515        0.00001096        0.00003981
     258          0.455275        0.000000        0.00000037        0.00001886        0.00004207        0.00001419
     259          0.455961        0.000000        0.00000011        0.00000414        0.00000474        0.00000791