# Projected DOS for atomic kind I at iteration step i = 0, E(Fermi) =    -0.181961 a.u.
#     MO Eigenvalue [a.u.]      Occupation                 s                py                pz                px
       1         -0.987536        1.000000        0.00000198        0.00001932        0.00001868        0.00000450
       2         -0.960373        1.000000        0.00003333        0.00014067        0.00001222        0.00007805
       3         -0.956015        1.000000        0.00013115        0.00026658        0.00042966        0.00015049
       4         -0.955479        1.000000        0.00006046        0.00021827        0.00011754        0.00008603
       5         -0.947822        1.000000        0.00011963        0.00021141        0.00025586        0.00017390
       6         -0.932551        1.000000        0.00043599        0.00079887        0.00043160        0.00027197
       7         -0.927341        1.000000        0.00024933        0.00031469        0.00057136        0.00019245
       8         -0.718448        1.000000        0.00032298        0.00018438        0.00015811        0.00014544
       9         -0.698272        1.000000        0.00166186        0.00039643        0.00028757        0.00037869
      10         -0.698176        1.000000        0.00082172        0.00035046        0.00018529        0.00028899
      11         -0.696811        1.000000        0.00068074        0.00025948        0.00019885        0.00011412
      12         -0.689468        1.000000        0.00144757        0.00025402        0.00030311        0.00020683
      13         -0.678564        1.000000        0.00370093        0.00039042        0.00043616        0.00021544
      14         -0.674314        1.000000        0.00317352        0.00042978        0.00065641        0.00039522
      15         -0.619367        1.000000        0.88843295        0.00739738        0.00390426        0.00359608
      16         -0.613893        1.000000        0.00212316        0.00008237        0.00013678        0.00000842
      17         -0.607739        1.000000        0.79797017        0.00300225        0.00194153        0.00367932
      18         -0.602297        1.000000        0.77936393        0.00513809        0.00578299        0.00497870
      19         -0.598833        1.000000        0.84286718        0.00222949        0.00192442        0.00217019
      20         -0.598203        1.000000        0.10463021        0.00055572        0.00064489        0.00037012
      21         -0.597075        1.000000        0.66981387        0.00178028        0.00290043        0.00291796
      22         -0.594011        1.000000        0.66623071        0.00228798        0.00212065        0.00527496
      23         -0.593306        1.000000        0.73608583        0.00174507        0.00266245        0.00189036
      24         -0.591638        1.000000        0.44175626        0.00181162        0.00092672        0.00219253
      25         -0.589939        1.000000        0.71913488        0.00348877        0.00248522        0.00227737
      26         -0.586484        1.000000        0.80433763        0.00304857        0.00299124        0.00282539
      27         -0.585736        1.000000        0.80051311        0.00161231        0.00259975        0.00307428
      28         -0.585265        1.000000        0.79173159        0.00228664        0.00247987        0.00285072
      29         -0.583990        1.000000        0.41445670        0.00314137        0.00133213        0.00157497
      30         -0.582723        1.000000        0.87013434        0.00194064        0.00174170        0.00156915
      31         -0.581768        1.000000        0.91026718        0.00125526        0.00295126        0.00298408
      32         -0.578581        1.000000        0.56274488        0.00343880        0.00223456        0.00266745
      33         -0.576962        1.000000        0.74478264        0.00357839        0.00362330        0.00356338
      34         -0.576296        1.000000        0.78313403        0.00221305        0.00280750        0.00195171
      35         -0.575902        1.000000        0.81391904        0.00135128        0.00306927        0.00065695
      36         -0.574291        1.000000        0.45883110        0.00222317        0.00370381        0.00260560
      37         -0.573618        1.000000        0.66152970        0.00157627        0.00334205        0.00263128
      38         -0.573223        1.000000        0.90457941        0.00202146        0.00100622        0.00141480
      39         -0.572233        1.000000        0.45404009        0.00222020        0.00339887        0.00231479
      40         -0.571461        1.000000        0.61992897        0.00161106        0.00414290        0.00190977
      41         -0.571063        1.000000        0.95314119        0.00023074        0.00382367        0.00365890
      42         -0.569801        1.000000        0.54861188        0.00136187        0.00133707        0.00227011
      43         -0.569221        1.000000        0.92112692        0.00125549        0.00227944        0.00135939
      44         -0.569080        1.000000        0.68074588        0.00106290        0.00183750        0.00185421
      45         -0.567234        1.000000        0.89938870        0.00076692        0.00218072        0.00245426
      46         -0.566654        1.000000        0.44580939        0.00027998        0.00299422        0.00080648
      47         -0.565886        1.000000        0.97411130        0.00081484        0.00006541        0.00136186
      48         -0.563341        1.000000        0.59327369        0.00042643        0.00125519        0.00061498
      49         -0.563232        1.000000        0.94895689        0.00015693        0.00081925        0.00152533
      50         -0.562587        1.000000        0.15672154        0.00125597        0.00069560        0.00048023
      51         -0.562200        1.000000        0.88210422        0.00169156        0.00059077        0.00060255
      52         -0.561957        1.000000        0.93604865        0.00101834        0.00180350        0.00029291
      53         -0.559747        1.000000        0.95388630        0.00057773        0.00170691        0.00047596
      54         -0.559579        1.000000        0.92927652        0.00049468        0.00048747        0.00120200
      55         -0.558453        1.000000        0.79888154        0.00269513        0.00224831        0.00107169
      56         -0.557181        1.000000        0.73043280        0.00106604        0.00124669        0.00063807
      57         -0.555442        1.000000        0.96514012        0.00142395        0.00006976        0.00027737
      58         -0.554594        1.000000        0.58566068        0.00023900        0.00126286        0.00038746
      59         -0.553291        1.000000        0.18531323        0.00660189        0.00168279        0.00181776
      60         -0.551914        1.000000        0.99158938        0.00039443        0.00093357        0.00025473
      61         -0.549270        1.000000        0.99835310        0.00019202        0.00030113        0.00012042
      62         -0.546079        1.000000        0.09883836        0.00223750        0.00243128        0.00321786
      63         -0.544046        1.000000        0.27374175        0.00250310        0.00048527        0.00081811
      64         -0.537795        1.000000        0.27611981        0.00144829        0.00248010        0.00104410
      65         -0.506421        1.000000        0.00179844        0.00051645        0.00048824        0.00049374
      66         -0.483330        1.000000        0.00151162        0.00113585        0.00073035        0.00119902
      67         -0.481047        1.000000        0.00217988        0.00138530        0.00084122        0.00054206
      68         -0.478849        1.000000        0.00297679        0.00166563        0.00209726        0.00099608
      69         -0.470282        1.000000        0.00335039        0.00210692        0.00251351        0.00177589
      70         -0.466227        1.000000        0.16612832        0.03454543        0.03584308        0.05032864
      71         -0.463229        1.000000        0.12064630        0.04488665        0.04180844        0.04601682
      72         -0.459913        1.000000        0.12729839        0.03832763        0.03727651        0.04012354
      73         -0.458880        1.000000        0.01895024        0.00696878        0.00708080        0.00866179
      74         -0.458393        1.000000        0.13188241        0.03766962        0.04608967        0.03007018
      75         -0.456873        1.000000        0.09682955        0.02086215        0.02689932        0.03733502
      76         -0.454449        1.000000        0.05283823        0.01118577        0.01755821        0.01112391
      77         -0.452033        1.000000        0.09300636        0.01707480        0.03525050        0.01991033
      78         -0.449067        1.000000        0.13125507        0.02847833        0.03033422        0.03295011
      79         -0.447521        1.000000        0.13119455        0.02415247        0.02901027        0.02695186
      80         -0.427723        1.000000        0.00132959        0.00084527        0.00136965        0.00128991
      81         -0.425199        1.000000        0.00173615        0.00266437        0.00097487        0.00151666
      82         -0.415446        1.000000        0.00209449        0.00538846        0.00173146        0.00201667
      83         -0.412950        1.000000        0.00174104        0.00272664        0.00169236        0.00440315
      84         -0.412008        1.000000        0.00092664        0.00198933        0.00151723        0.00060922
      85         -0.411383        1.000000        0.00174155        0.00354726        0.00061476        0.00185777
      86         -0.410208        1.000000        0.00134080        0.00127570        0.00161044        0.00289277
      87         -0.409468        1.000000        0.00014828        0.00044841        0.00034771        0.00044453
      88         -0.405868        1.000000        0.00105796        0.00068341        0.00289924        0.00124063
      89         -0.402719        1.000000        0.00099540        0.00214673        0.00079828        0.00099575
      90         -0.395516        1.000000        0.00142585        0.00325519        0.00296860        0.00155872
      91         -0.393154        1.000000        0.00116073        0.00254048        0.00208600        0.00189408
      92         -0.391747        1.000000        0.00161456        0.00385093        0.00237372        0.00136018
      93         -0.389788        1.000000        0.00233123        0.00330611        0.00519564        0.00243446
      94         -0.287600        1.000000        0.00940342        0.05601469        0.28642903        0.42568172
      95         -0.283344        1.000000        0.01785890        0.05821255        0.53568612        0.25657784
      96         -0.278178        1.000000        0.00908393        0.11522045        0.25687755        0.35702653
      97         -0.273297        1.000000        0.01288225        0.55715529        0.05044617        0.09847525
      98         -0.271229        1.000000        0.01155847        0.35769756        0.07109040        0.28737322
      99         -0.269531        1.000000        0.01334458        0.32227899        0.31780965        0.08012294
     100         -0.268301        1.000000        0.01335188        0.23811998        0.26767384        0.21431638
     101         -0.268059        1.000000        0.01065967        0.23597762        0.11342694        0.41348741
     102         -0.266169        1.000000        0.01153570        0.19520598        0.26005183        0.33014773
     103         -0.264977        1.000000        0.01558824        0.41614426        0.15970743        0.15431742
     104         -0.263655        1.000000        0.01194429        0.18619250        0.38082584        0.19936956
     105         -0.261992        1.000000        0.01774870        0.06641107        0.33866081        0.31585569
     106         -0.260340        1.000000        0.01745884        0.07262083        0.33437295        0.33563965
     107         -0.259130        1.000000        0.01392872        0.04856077        0.40760081        0.29274477
     108         -0.253175        1.000000        0.01164970        0.14630602        0.35315257        0.28742908
     109         -0.250121        1.000000        0.01395556        0.43449767        0.22352790        0.14673631
     110         -0.247267        1.000000        0.01212942        0.27426182        0.34982628        0.19147235
     111         -0.245672        1.000000        0.01371201        0.20838603        0.18036740        0.38829052
     112         -0.243765        1.000000        0.01381828        0.24765301        0.30981292        0.23578989
     113         -0.242330        1.000000        0.00881609        0.18982939        0.31338420        0.35089060
     114         -0.240886        1.000000        0.01067552        0.28677619        0.22199826        0.32494559
     115         -0.239229        1.000000        0.00998750        0.32903856        0.18879311        0.30093517
     116         -0.237952        1.000000        0.01196636        0.26728974        0.37426817        0.15063366
     117         -0.236516        1.000000        0.01258417        0.18889736        0.24584920        0.37219009
     118         -0.235191        1.000000        0.00987936        0.45445839        0.18054224        0.21375803
     119         -0.233323        1.000000        0.00505708        0.49620380        0.20803523        0.17159458
     120         -0.231280        1.000000        0.00620634        0.34789910        0.36951690        0.18245576
     121         -0.230379        1.000000        0.00627708        0.39941093        0.16115438        0.30485847
     122         -0.228228        1.000000        0.00402810        0.40261102        0.33686639        0.17826628
     123         -0.227603        1.000000        0.00596634        0.37716980        0.24048516        0.27000920
     124         -0.225758        1.000000        0.00599315        0.28856848        0.25945480        0.33680673
     125         -0.224435        1.000000        0.00511729        0.26517637        0.28224844        0.35538771
     126         -0.224037        1.000000        0.00637092        0.47009828        0.18071800        0.26895116
     127         -0.221603        1.000000        0.00383446        0.27071535        0.29119424        0.38918235
     128         -0.219868        1.000000        0.00222227        0.32909428        0.30546287        0.33067231
     129         -0.218406        1.000000        0.00195855        0.28429595        0.26987932        0.40329083
     130         -0.217467        1.000000        0.00296123        0.17546391        0.26136144        0.51817347
     131         -0.216446        1.000000        0.00244860        0.30333353        0.39527686        0.25556482
     132         -0.215820        1.000000        0.00328188        0.15980243        0.42988929        0.34300672
     133         -0.214537        1.000000        0.00304410        0.36436688        0.30631675        0.26303994
     134         -0.212519        1.000000        0.00117698        0.45785587        0.24812935        0.26598771
     135         -0.211916        1.000000        0.00074962        0.17409692        0.40512002        0.40504960
     136         -0.210975        1.000000        0.00165867        0.43857909        0.30213552        0.22624749
     137         -0.210389        1.000000        0.00100516        0.19424480        0.53094801        0.25725830
     138         -0.209067        1.000000        0.00093177        0.36386030        0.26975958        0.34538719
     139         -0.208208        1.000000        0.00169052        0.25822147        0.58711450        0.12375131
     140         -0.206559        1.000000        0.00074896        0.36824710        0.24852956        0.36104988
     141         -0.206052        1.000000        0.00070140        0.32946350        0.28881763        0.37169506
     142         -0.204145        1.000000        0.00169144        0.35034111        0.41513468        0.21820381
     143         -0.203750        1.000000        0.00151030        0.31854004        0.37923033        0.28990918
     144         -0.203071        1.000000        0.00061278        0.33039547        0.32702738        0.33007726
     145         -0.202190        1.000000        0.00155886        0.37588259        0.33415320        0.26431509
     146         -0.201485        1.000000        0.00135814        0.32520460        0.34350586        0.29480110
     147         -0.200576        1.000000        0.00078241        0.58071344        0.23443883        0.17642756
     148         -0.199419        1.000000        0.00091076        0.41259299        0.21301025        0.36248288
     149         -0.199283        1.000000        0.00191525        0.61372661        0.18169224        0.18440448
     150         -0.198636        1.000000        0.00099356        0.48278883        0.23159485        0.27296364
     151         -0.198222        1.000000        0.00181577        0.27495236        0.38172188        0.32586685
     152         -0.197581        1.000000        0.00118053        0.40748733        0.25092356        0.31657145
     153         -0.197325        1.000000        0.00061218        0.50245205        0.15708504        0.33387040
     154         -0.197157        1.000000        0.00068698        0.53487910        0.19939723        0.25608273
     155         -0.196328        1.000000        0.00129039        0.26035708        0.36250501        0.35825644
     156         -0.195476        1.000000        0.00066049        0.27574260        0.35037960        0.36277246
     157         -0.194983        1.000000        0.00060803        0.45841338        0.16332832        0.36198130
     158         -0.194652        1.000000        0.00078679        0.35776545        0.31831321        0.30482683
     159         -0.193732        1.000000        0.00060986        0.24704924        0.49181919        0.24074930
     160         -0.193549        1.000000        0.00069677        0.21590954        0.50173254        0.27038126
     161         -0.192967        1.000000        0.00042099        0.38875750        0.48755701        0.11512749
     162         -0.192146        1.000000        0.00066747        0.53890115        0.33063856        0.12319148
     163         -0.191704        1.000000        0.00115399        0.35935494        0.37927250        0.24848016
     164         -0.191527        1.000000        0.00108583        0.33411882        0.22167122        0.43132242
     165         -0.191295        1.000000        0.00089209        0.49443445        0.29146830        0.19479999
     166         -0.191118        1.000000        0.00081277        0.32499423        0.35373124        0.30195034
     167         -0.190684        1.000000        0.00087098        0.41330209        0.26422873        0.29251496
     168         -0.190317        1.000000        0.00047403        0.48955527        0.16461703        0.33631551
     169         -0.189853        1.000000        0.00058838        0.37956363        0.23677980        0.37514230
     170         -0.189032        1.000000        0.00076627        0.34629852        0.16153856        0.47872133
     171         -0.188749        1.000000        0.00088315        0.23735605        0.43033117        0.31490569
     172         -0.188557        1.000000        0.00162259        0.15292679        0.44236696        0.38250279
     173         -0.187730        1.000000        0.00079390        0.50523691        0.26600152        0.22147941
     174         -0.187331        1.000000        0.00054285        0.29589072        0.18559625        0.49211684
     175         -0.187088        1.000000        0.00066734        0.26990518        0.20567511        0.50641215
     176         -0.186479        1.000000        0.00061927        0.15635434        0.24390732        0.56823391
     177         -0.186237        1.000000        0.00067499        0.25701929        0.25053363        0.47315429
     178         -0.185515        1.000000        0.00041525        0.33817213        0.16546756        0.48691758
     179         -0.185401        1.000000        0.00039733        0.37624202        0.29438726        0.31330752
     180         -0.185092        1.000000        0.00043879        0.24721052        0.17074328        0.57760716
     181         -0.184973        1.000000        0.00028076        0.59387772        0.17121462        0.22850301
     182         -0.184678        1.000000        0.00033647        0.24244283        0.18187444        0.54834430
     183         -0.184482        1.000000        0.00025122        0.27759827        0.40333923        0.30500306
     184         -0.184244        1.000000        0.00043193        0.29930047        0.22291397        0.46410226
     185         -0.184055        1.000000        0.00043017        0.26716776        0.34793992        0.35458051
     186         -0.183456        1.000000        0.00055741        0.33960563        0.19388527        0.44035959
     187         -0.183297        1.000000        0.00037195        0.34915532        0.36926425        0.27049954
     188         -0.183050        1.000000        0.00067703        0.27316258        0.46802420        0.24657447
     189         -0.182845        1.000000        0.00019919        0.10249282        0.36396495        0.51924241
     190         -0.182750        1.000000        0.00040604        0.13546549        0.41432717        0.43653693
     191         -0.182326        1.000000        0.00027201        0.19178748        0.53243712        0.26441379
     192         -0.182179        1.000000        0.00049819        0.33973959        0.34596906        0.29559517
     193         -0.182091        1.000000        0.00060289        0.24016453        0.57939573        0.17295580
     194         -0.181961        1.000000        0.00040099        0.24217001        0.41173162        0.33287214
     195         -0.181909        0.000000        0.00074579        0.20890455        0.64690211        0.13159808
     196         -0.181575        0.000000        0.00043664        0.24338820        0.38142135        0.32284182
     197         -0.181160        0.000000        0.00081605        0.31144599        0.42863686        0.22880901
     198         -0.180955        0.000000        0.00040010        0.32298363        0.31046621        0.32805553
     199         -0.180005        0.000000        0.00439755        0.10165447        0.52381849        0.36245146
     200         -0.179540        0.000000        0.00034035        0.26167696        0.31811649        0.32765169
     201         -0.178370        0.000000        0.00083815        0.27183825        0.34170040        0.29520596
     202         -0.075041        0.000000        0.02627184        0.18343853        0.02226354        0.01940767
     203         -0.070367        0.000000        0.02013960        0.14675125        0.06467000        0.03218858
     204         -0.066392        0.000000        0.02258580        0.02155507        0.19455124        0.02979425
     205         -0.064937        0.000000        0.02143125        0.14679188        0.01899151        0.09135725
     206         -0.062876        0.000000        0.02771727        0.02065073        0.02223546        0.19765363
     207         -0.059463        0.000000        0.01996859        0.09303683        0.05692417        0.11562170
     208         -0.058470        0.000000        0.02327700        0.11255401        0.09714010        0.06036632
     209         -0.056219        0.000000        0.02062093        0.12763617        0.08970588        0.06363197
     210         -0.053639        0.000000        0.02874188        0.20122361        0.01574035        0.03940728
     211         -0.048875        0.000000        0.02136327        0.05046973        0.01658319        0.19645330
     212         -0.047706        0.000000        0.02186206        0.01847041        0.20798005        0.06299731
     213         -0.042607        0.000000        0.01483658        0.03443251        0.18391284        0.06682549
     214         -0.041340        0.000000        0.01858711        0.00890431        0.20041462        0.08056247
     215         -0.039627        0.000000        0.02179738        0.05947740        0.14132445        0.07125940
     216         -0.038823        0.000000        0.02059988        0.02804799        0.10894117        0.14080360
     217         -0.032447        0.000000        0.02288968        0.03868990        0.07026542        0.18508734
     218         -0.029751        0.000000        0.01990881        0.17135397        0.02675994        0.09364923
     219         -0.027819        0.000000        0.01360999        0.03160875        0.12501755        0.13276937
     220         -0.026725        0.000000        0.01560687        0.09519133        0.08857498        0.10632629
     221         -0.026119        0.000000        0.01519645        0.02909280        0.15718913        0.10932829
     222         -0.023410        0.000000        0.00941534        0.24883912        0.02235961        0.02671741
     223         -0.018565        0.000000        0.01576478        0.00392622        0.27558680        0.02021286
     224         -0.014854        0.000000        0.01106083        0.01998435        0.01995796        0.26583742
     225         -0.005810        0.000000        0.01263803        0.29318955        0.00809455        0.01598326
     226          0.076142        0.000000        0.00003997        0.00049850        0.00074354        0.00028709
     227          0.090830        0.000000        0.00008291        0.00078669        0.00141907        0.00059606
     228          0.092528        0.000000        0.00006761        0.00066308        0.00037455        0.00082192
     229          0.095841        0.000000        0.00006212        0.00075020        0.00097743        0.00064962
     230          0.100304        0.000000        0.00009154        0.00094801        0.00090303        0.00068647
     231          0.117719        0.000000        0.00006910        0.00079462        0.00074117        0.00026105
     232          0.119515        0.000000        0.00016093        0.00063952        0.00222449        0.00116725
     233          0.147748        0.000000        0.00000532        0.00012428        0.00007340        0.00006722
     234          0.161028        0.000000        0.00001886        0.00034308        0.00036407        0.00014348
     235          0.185290        0.000000        0.00000251        0.00007282        0.00003092        0.00003190
     236          0.223559        0.000000        0.00000266        0.00009788        0.00028004        0.00012736
     237          0.268018        0.000000        0.00000481        0.00017114        0.00015795        0.00008101
     238          0.279296        0.000000        0.00042971        0.00445255        0.00014287        0.00200148
     239          0.282089        0.000000        0.00036664        0.00222222        0.00260326        0.00319181
     240          0.282764        0.000000        0.00011460        0.00245311        0.00009999        0.00084066
     241          0.285488        0.000000        0.00015193        0.00114608        0.00086112        0.00160688
     242          0.286698        0.000000        0.00071262        0.00456642        0.00667264        0.00397901
     243          0.296241        0.000000        0.00007566        0.00168426        0.00023699        0.00092772
     244          0.301066        0.000000        0.00115182        0.00574676        0.00713441        0.00565856
     245          0.307907        0.000000        0.00096933        0.00619700        0.00520027        0.00437377
     246          0.311487        0.000000        0.00094243        0.01303779        0.00152774        0.00171755
     247          0.311888        0.000000        0.00039215        0.00688774        0.00014530        0.00321694
     248          0.313660        0.000000        0.00069224        0.00025160        0.01134101        0.00098236
     249          0.317505        0.000000        0.00052362        0.00283600        0.00102849        0.00387106
     250          0.324391        0.000000        0.00035018        0.00859214        0.00207881        0.00222161
     251          0.332933        0.000000        0.00066574        0.00463318        0.00621725        0.00413138
     252          0.349584        0.000000        0.00140937        0.00947858        0.00643527        0.00663512
     253          0.356321        0.000000        0.00115535        0.00378833        0.01194919        0.00390380
     254          0.441538        0.000000        0.00001325        0.00038566        0.00013750        0.00032253
     255          0.441726        0.000000        0.00000818        0.00031545        0.00028165        0.00006491
     256          0.454335        0.000000        0.00000519        0.00005693        0.00005132        0.00006753
     257          0.455217        0.000000        0.00002245        0.00021393        0.00018368        0.00053329
     258          0.455275        0.000000        0.00002499        0.00015329        0.00002274        0.00014504
     259          0.455961        0.000000        0.00002296        0.00036220        0.00023591        0.00035490