# Projected DOS for atomic kind Pb at iteration step i = 0, E(Fermi) =    -0.182486 a.u.
#     MO Eigenvalue [a.u.]      Occupation                 s                py                pz                px
       1         -0.987721        1.000000        0.00000002        0.00000026        0.00000027        0.00000022
       2         -0.960569        1.000000        0.00000012        0.00000169        0.00000247        0.00000109
       3         -0.956186        1.000000        0.00000042        0.00000787        0.00000773        0.00000254
       4         -0.955671        1.000000        0.00000011        0.00000070        0.00000104        0.00000097
       5         -0.947997        1.000000        0.00000026        0.00000390        0.00000298        0.00000183
       6         -0.932758        1.000000        0.00000086        0.00001167        0.00000747        0.00000308
       7         -0.927531        1.000000        0.00000409        0.00002603        0.00006488        0.00001426
       8         -0.718638        1.000000        0.00001334        0.00002093        0.00001804        0.00001582
       9         -0.698446        1.000000        0.00001983        0.00004934        0.00003428        0.00000581
      10         -0.698378        1.000000        0.00002661        0.00001931        0.00001861        0.00002150
      11         -0.697019        1.000000        0.00001140        0.00001076        0.00000906        0.00002232
      12         -0.689643        1.000000        0.00002784        0.00003342        0.00001635        0.00001057
      13         -0.678775        1.000000        0.00005663        0.00006731        0.00003286        0.00000653
      14         -0.674514        1.000000        0.00006265        0.00005153        0.00010385        0.00006224
      15         -0.619489        1.000000        0.01558052        0.00020298        0.00826406        0.00309421
      16         -0.614098        1.000000        0.00013625        0.00002635        0.00001033        0.00002375
      17         -0.608178        1.000000        0.06156586        0.00079563        0.00909978        0.00525079
      18         -0.602712        1.000000        0.08900829        0.00682388        0.00516781        0.00103178
      19         -0.599157        1.000000        0.05497351        0.00494727        0.01112371        0.00255948
      20         -0.598407        1.000000        0.00769548        0.00184929        0.00045949        0.00060450
      21         -0.597361        1.000000        0.03246862        0.01243596        0.00328760        0.00469402
      22         -0.594300        1.000000        0.05039471        0.00660205        0.00631682        0.00252032
      23         -0.593835        1.000000        0.02199354        0.00776959        0.00552772        0.01004273
      24         -0.591932        1.000000        0.01471216        0.00604406        0.00574153        0.00249692
      25         -0.590143        1.000000        0.04219796        0.01017359        0.00376619        0.00176964
      26         -0.586821        1.000000        0.03181149        0.00399638        0.00663614        0.00482467
      27         -0.586429        1.000000        0.02849737        0.00237140        0.00272597        0.01814635
      28         -0.585625        1.000000        0.05565103        0.00244724        0.00465987        0.01234033
      29         -0.584213        1.000000        0.02132445        0.00274102        0.00465564        0.00347196
      30         -0.583014        1.000000        0.02141791        0.00426194        0.00859234        0.01452013
      31         -0.582437        1.000000        0.02798404        0.01000143        0.00491007        0.01218109
      32         -0.578796        1.000000        0.02775843        0.00233010        0.00650627        0.00362588
      33         -0.577891        1.000000        0.05557471        0.00579769        0.00341138        0.00876616
      34         -0.576954        1.000000        0.02461454        0.00206833        0.01647363        0.00857542
      35         -0.576443        1.000000        0.01619798        0.00155284        0.02135949        0.00875129
      36         -0.574910        1.000000        0.05278285        0.00243883        0.01449967        0.00411940
      37         -0.574219        1.000000        0.01420667        0.01908765        0.00328159        0.00392984
      38         -0.574014        1.000000        0.01422963        0.01595549        0.00218005        0.00505442
      39         -0.572511        1.000000        0.02379959        0.00315395        0.00359798        0.00420249
      40         -0.571808        1.000000        0.01881189        0.00547438        0.00121907        0.00607676
      41         -0.571419        1.000000        0.00147824        0.00335117        0.00343375        0.00309724
      42         -0.570263        1.000000        0.00717283        0.00139919        0.00662439        0.00288532
      43         -0.569785        1.000000        0.01272832        0.00353375        0.01064034        0.01323072
      44         -0.568971        1.000000        0.02364557        0.00925043        0.00228132        0.01254947
      45         -0.568006        1.000000        0.00886026        0.00073337        0.00077968        0.00927455
      46         -0.567900        1.000000        0.00101048        0.00455598        0.00028889        0.01527686
      47         -0.567098        1.000000        0.01634516        0.00141216        0.00941242        0.00242086
      48         -0.564455        1.000000        0.00331060        0.00011396        0.00462285        0.01837597
      49         -0.563603        1.000000        0.00022602        0.00183103        0.00197783        0.01136039
      50         -0.563280        1.000000        0.00165804        0.01231889        0.00812798        0.00068271
      51         -0.562788        1.000000        0.00054377        0.00164095        0.00123969        0.00071865
      52         -0.561918        1.000000        0.00202523        0.00015295        0.02315898        0.01085273
      53         -0.560927        1.000000        0.00411253        0.00039173        0.00373954        0.01563671
      54         -0.560253        1.000000        0.00758605        0.00037179        0.01997014        0.00063676
      55         -0.558589        1.000000        0.01583316        0.01362230        0.00120018        0.00089559
      56         -0.557930        1.000000        0.00386847        0.01609116        0.00165510        0.00035343
      57         -0.556833        1.000000        0.00516876        0.01297999        0.00061173        0.00008809
      58         -0.554886        1.000000        0.00007922        0.00034816        0.00500255        0.00005340
      59         -0.553553        1.000000        0.00210447        0.00146618        0.00207756        0.00029240
      60         -0.553468        1.000000        0.00025867        0.00252145        0.00029045        0.00032467
      61         -0.550083        1.000000        0.00000374        0.00001957        0.00000220        0.00000236
      62         -0.546346        1.000000        0.00335790        0.00184077        0.00095667        0.00007943
      63         -0.544200        1.000000        0.00077937        0.00609685        0.00076720        0.00004632
      64         -0.538065        1.000000        0.00914892        0.00435102        0.00018576        0.00033261
      65         -0.506598        1.000000        0.00033278        0.00001082        0.00003418        0.00000415
      66         -0.483529        1.000000        0.00356543        0.00000457        0.00003740        0.00003508
      67         -0.481246        1.000000        0.00139793        0.00000980        0.00003171        0.00000805
      68         -0.479009        1.000000        0.00268791        0.00003646        0.00004751        0.00001099
      69         -0.470445        1.000000        0.01348432        0.00001972        0.00001933        0.00005108
      70         -0.466825        1.000000        0.69989259        0.00010874        0.00172796        0.00024554
      71         -0.463408        1.000000        0.73340721        0.00183625        0.00125199        0.00132938
      72         -0.459995        1.000000        0.74739907        0.00151384        0.00125069        0.00070740
      73         -0.459081        1.000000        0.10220272        0.00005346        0.00019886        0.00023892
      74         -0.458431        1.000000        0.71226322        0.00038987        0.00107363        0.00085713
      75         -0.456987        1.000000        0.63097933        0.00043194        0.00016414        0.00096335
      76         -0.454622        1.000000        0.28739004        0.00020921        0.00056011        0.00014408
      77         -0.452283        1.000000        0.57804319        0.00016821        0.00066813        0.00016354
      78         -0.449251        1.000000        0.76297347        0.00058242        0.00040793        0.00054339
      79         -0.447696        1.000000        0.77176485        0.00037244        0.00018049        0.00024982
      80         -0.427897        1.000000        0.00051127        0.00002717        0.00009461        0.00000861
      81         -0.425390        1.000000        0.00126565        0.00014409        0.00015798        0.00002941
      82         -0.415602        1.000000        0.00075905        0.00009441        0.00006029        0.00007061
      83         -0.413112        1.000000        0.00080786        0.00009240        0.00008232        0.00005329
      84         -0.412212        1.000000        0.00014604        0.00005084        0.00010121        0.00000669
      85         -0.411593        1.000000        0.00027528        0.00008667        0.00010033        0.00001785
      86         -0.410413        1.000000        0.00046920        0.00005033        0.00009226        0.00014937
      87         -0.409676        1.000000        0.00026539        0.00001773        0.00002993        0.00008245
      88         -0.406049        1.000000        0.00008682        0.00006028        0.00008207        0.00003112
      89         -0.402900        1.000000        0.00010514        0.00010372        0.00006264        0.00003349
      90         -0.395721        1.000000        0.00016403        0.00003404        0.00004787        0.00007589
      91         -0.393358        1.000000        0.00023654        0.00001902        0.00016128        0.00004367
      92         -0.391961        1.000000        0.00045589        0.00006478        0.00009656        0.00013832
      93         -0.389969        1.000000        0.00064543        0.00017762        0.00035009        0.00038309
      94         -0.288279        1.000000        0.00575265        0.01151962        0.10477382        0.09546943
      95         -0.283236        1.000000        0.00128003        0.00856098        0.03394524        0.08566375
      96         -0.278295        1.000000        0.01000078        0.06813770        0.09346480        0.08612926
      97         -0.273520        1.000000        0.00476618        0.21955155        0.02358759        0.02887637
      98         -0.271390        1.000000        0.01084779        0.12249799        0.01936457        0.11344083
      99         -0.269858        1.000000        0.00486191        0.13171243        0.09034099        0.03593762
     100         -0.268653        1.000000        0.00530869        0.06779548        0.08757907        0.08602546
     101         -0.268258        1.000000        0.00310944        0.06972783        0.02686676        0.13040233
     102         -0.266536        1.000000        0.00308818        0.05242875        0.11670226        0.03622552
     103         -0.265756        1.000000        0.00368243        0.16356912        0.05837362        0.01970025
     104         -0.264661        1.000000        0.00379513        0.08724576        0.09779114        0.01418155
     105         -0.262396        1.000000        0.00219112        0.01067243        0.17594712        0.06768353
     106         -0.260668        1.000000        0.00160607        0.02783974        0.09581021        0.11263463
     107         -0.259660        1.000000        0.00111605        0.00663724        0.13331113        0.09494381
     108         -0.253817        1.000000        0.00957463        0.04998831        0.07769028        0.06460741
     109         -0.250539        1.000000        0.00302256        0.03802900        0.09565377        0.03157775
     110         -0.247650        1.000000        0.00138649        0.01709120        0.09287803        0.04909044
     111         -0.245943        1.000000        0.00321219        0.00973865        0.03081032        0.16070549
     112         -0.244313        1.000000        0.00304090        0.02003336        0.04313400        0.10389431
     113         -0.243568        1.000000        0.00258537        0.02815431        0.06967038        0.05428369
     114         -0.241243        1.000000        0.00378301        0.02994258        0.03216149        0.08370938
     115         -0.239535        1.000000        0.00635186        0.01892951        0.02457566        0.10777320
     116         -0.238161        1.000000        0.00340011        0.08657725        0.09568005        0.01397079
     117         -0.236824        1.000000        0.00679860        0.06230973        0.05401375        0.05813269
     118         -0.235620        1.000000        0.00331648        0.07058382        0.02351534        0.03365028
     119         -0.233737        1.000000        0.00125852        0.06610181        0.01610198        0.02582633
     120         -0.231607        1.000000        0.00250771        0.05310639        0.01129471        0.01496558
     121         -0.230700        1.000000        0.00288801        0.08893137        0.01225694        0.01715227
     122         -0.228632        1.000000        0.00280026        0.03791526        0.01230716        0.01232329
     123         -0.227880        1.000000        0.00298844        0.04494400        0.01866881        0.02601976
     124         -0.226254        1.000000        0.00545126        0.05897711        0.00884764        0.01669391
     125         -0.224850        1.000000        0.00315668        0.02075827        0.00713146        0.03471195
     126         -0.224439        1.000000        0.00640288        0.04809690        0.01924651        0.01584578
     127         -0.221893        1.000000        0.00343683        0.00917679        0.01434730        0.00860367
     128         -0.220018        1.000000        0.00250082        0.00796677        0.00934959        0.00448615
     129         -0.218615        1.000000        0.00256190        0.00845906        0.01005037        0.01160974
     130         -0.217824        1.000000        0.00197864        0.00659429        0.01344625        0.00884665
     131         -0.216719        1.000000        0.00354550        0.01415786        0.00940649        0.00815401
     132         -0.216092        1.000000        0.01169406        0.01709843        0.01914735        0.00855786
     133         -0.214694        1.000000        0.01043167        0.01778344        0.01476562        0.01914339
     134         -0.213076        1.000000        0.00367541        0.00899064        0.00335085        0.00487622
     135         -0.212298        1.000000        0.00221353        0.00371954        0.00487032        0.00246289
     136         -0.211056        1.000000        0.00301751        0.00954809        0.00986542        0.00436730
     137         -0.210454        1.000000        0.00300370        0.00178156        0.00426116        0.00293448
     138         -0.209302        1.000000        0.00287428        0.00237345        0.00303694        0.00459952
     139         -0.208359        1.000000        0.00499310        0.01043898        0.00613088        0.00509458
     140         -0.206949        1.000000        0.00628342        0.00328325        0.00475252        0.00395958
     141         -0.206064        1.000000        0.00155113        0.00173214        0.00109831        0.00271810
     142         -0.204606        1.000000        0.00212841        0.00116005        0.00384283        0.00050762
     143         -0.204007        1.000000        0.00205676        0.00237265        0.00231131        0.00251777
     144         -0.203239        1.000000        0.00103122        0.00149479        0.00236615        0.00079513
     145         -0.202577        1.000000        0.00669634        0.00359281        0.00588383        0.00475639
     146         -0.201742        1.000000        0.01151629        0.00669239        0.00592481        0.00543629
     147         -0.201061        1.000000        0.00101413        0.00310189        0.00094697        0.00117093
     148         -0.199806        1.000000        0.00374629        0.00215836        0.00121883        0.00077886
     149         -0.199696        1.000000        0.00235499        0.00119390        0.00068619        0.00078528
     150         -0.199118        1.000000        0.00368276        0.00164551        0.00143807        0.00054394
     151         -0.198970        1.000000        0.00391840        0.00244821        0.00114748        0.00054952
     152         -0.198295        1.000000        0.01408474        0.00412438        0.00531720        0.00519875
     153         -0.197692        1.000000        0.00251788        0.00250625        0.00060649        0.00098396
     154         -0.197591        1.000000        0.00121568        0.00054381        0.00075708        0.00087647
     155         -0.197198        1.000000        0.00389974        0.00134490        0.00161991        0.00106184
     156         -0.196672        1.000000        0.00175572        0.00071050        0.00129329        0.00112148
     157         -0.195398        1.000000        0.00722938        0.00116232        0.00187781        0.00151661
     158         -0.195050        1.000000        0.01228209        0.00350786        0.00282907        0.00153797
     159         -0.194599        1.000000        0.01122345        0.00216419        0.00217458        0.00068728
     160         -0.194581        1.000000        0.00350061        0.00043818        0.00143400        0.00041313
     161         -0.193949        1.000000        0.00446518        0.00145396        0.00091419        0.00106303
     162         -0.193074        1.000000        0.00097255        0.00018615        0.00045668        0.00028662
     163         -0.192708        1.000000        0.00472424        0.00161717        0.00048076        0.00038203
     164         -0.192342        1.000000        0.00173063        0.00034920        0.00063602        0.00020955
     165         -0.191875        1.000000        0.02092773        0.00520775        0.00449067        0.00087641
     166         -0.191020        1.000000        0.01580368        0.00475261        0.00265242        0.00200527
     167         -0.190882        1.000000        0.00297718        0.00071204        0.00087561        0.00109740
     168         -0.190742        1.000000        0.00550039        0.00106815        0.00071936        0.00076270
     169         -0.190502        1.000000        0.00513302        0.00043279        0.00090142        0.00123385
     170         -0.189449        1.000000        0.00218122        0.00065748        0.00083675        0.00188581
     171         -0.189346        1.000000        0.00960134        0.00213114        0.00150350        0.00158112
     172         -0.188657        1.000000        0.00809384        0.00103062        0.00236359        0.00252636
     173         -0.188441        1.000000        0.02113054        0.00273570        0.00264707        0.00381181
     174         -0.188191        1.000000        0.00453139        0.00072921        0.00074520        0.00063202
     175         -0.188045        1.000000        0.00380070        0.00068587        0.00081476        0.00056211
     176         -0.187687        1.000000        0.00331142        0.00022117        0.00064770        0.00073672
     177         -0.187354        1.000000        0.00434939        0.00110571        0.00045338        0.00199210
     178         -0.187103        1.000000        0.01725712        0.00279806        0.00110553        0.00134469
     179         -0.186652        1.000000        0.00652659        0.00062933        0.00039750        0.00108078
     180         -0.186309        1.000000        0.00619508        0.00043457        0.00086741        0.00065168
     181         -0.186163        1.000000        0.00748780        0.00069605        0.00052339        0.00088891
     182         -0.185798        1.000000        0.01233970        0.00058081        0.00116716        0.00163763
     183         -0.185386        1.000000        0.00202385        0.00023859        0.00032514        0.00047418
     184         -0.185112        1.000000        0.01459139        0.00080139        0.00191065        0.00101113
     185         -0.184829        1.000000        0.00914074        0.00046024        0.00142913        0.00100091
     186         -0.184684        1.000000        0.01102214        0.00050627        0.00081180        0.00093397
     187         -0.184404        1.000000        0.01435349        0.00050141        0.00169450        0.00309555
     188         -0.184340        1.000000        0.01734320        0.00081357        0.00269307        0.00136599
     189         -0.184089        1.000000        0.01226202        0.00063037        0.00107455        0.00164676
     190         -0.183652        1.000000        0.02564293        0.00084443        0.00230859        0.00174396
     191         -0.183481        1.000000        0.00635802        0.00016792        0.00037331        0.00256370
     192         -0.183182        1.000000        0.00570394        0.00033488        0.00064424        0.00053711
     193         -0.182763        1.000000        0.03245839        0.00068216        0.00326633        0.00117811
     194         -0.182539        1.000000        0.00175109        0.00013652        0.00019569        0.00008621
     195         -0.182486        1.000000        0.00933552        0.00023279        0.00081621        0.00029537
     196         -0.182260        0.000000        0.03270291        0.00105791        0.00272277        0.00078328
     197         -0.182129        0.000000        0.02078548        0.00067376        0.00096884        0.00109955
     198         -0.181963        0.000000        0.04523940        0.00114368        0.00378852        0.00132522
     199         -0.181682        0.000000        0.02932334        0.00070477        0.00123379        0.00131206
     200         -0.180154        0.000000        0.09116031        0.00122402        0.00303204        0.00608864
     201         -0.178693        0.000000        0.08033860        0.00063189        0.00355221        0.00344296
     202         -0.075231        0.000000        0.00330467        0.65280999        0.04218337        0.05074443
     203         -0.070678        0.000000        0.00202984        0.57629427        0.15213174        0.00731823
     204         -0.066541        0.000000        0.00429814        0.02233856        0.62632485        0.07850301
     205         -0.065095        0.000000        0.00330116        0.38497076        0.02467359        0.30781503
     206         -0.063135        0.000000        0.00514880        0.06937943        0.01510118        0.64208363
     207         -0.059626        0.000000        0.00513387        0.25296868        0.16480454        0.28997498
     208         -0.058770        0.000000        0.00771097        0.29093395        0.29578630        0.11260770
     209         -0.056658        0.000000        0.00213480        0.45945574        0.18110310        0.05689041
     210         -0.053899        0.000000        0.00503628        0.59270568        0.02214285        0.09621893
     211         -0.049162        0.000000        0.00348710        0.06327206        0.03779828        0.60975326
     212         -0.048083        0.000000        0.00422422        0.01140522        0.61360609        0.05997399
     213         -0.042721        0.000000        0.00302591        0.11515306        0.38163682        0.19957085
     214         -0.041513        0.000000        0.00223218        0.01549205        0.50980790        0.16422094
     215         -0.039912        0.000000        0.00251333        0.12757177        0.40266926        0.17502156
     216         -0.039001        0.000000        0.00293140        0.03594986        0.28326290        0.37800451
     217         -0.032875        0.000000        0.00078943        0.02574896        0.05051207        0.60724855
     218         -0.029848        0.000000        0.00090647        0.46207803        0.05790164        0.16585805
     219         -0.028006        0.000000        0.00069347        0.06032386        0.32641936        0.30966158
     220         -0.026888        0.000000        0.00102834        0.14562812        0.24709516        0.29960885
     221         -0.026243        0.000000        0.00049961        0.04724237        0.36057419        0.27987898
     222         -0.023514        0.000000        0.00079167        0.59035116        0.05956607        0.04184191
     223         -0.018649        0.000000        0.00028728        0.00939124        0.64866426        0.02473012
     224         -0.014977        0.000000        0.00134693        0.02576209        0.06882011        0.58675659
     225         -0.006006        0.000000        0.00062639        0.60694779        0.00887375        0.05415876
     226          0.075976        0.000000        0.00000319        0.00009316        0.00010813        0.00002804
     227          0.090681        0.000000        0.00000170        0.00005869        0.00010377        0.00003402
     228          0.092342        0.000000        0.00000369        0.00009041        0.00010907        0.00009793
     229          0.095648        0.000000        0.00000284        0.00009070        0.00007432        0.00008121
     230          0.100119        0.000000        0.00000005        0.00001378        0.00000745        0.00000053
     231          0.117525        0.000000        0.00000026        0.00003644        0.00007913        0.00001917
     232          0.119355        0.000000        0.00000125        0.00014767        0.00019285        0.00004648
     233          0.147525        0.000000        0.00000176        0.00000532        0.00003321        0.00000420
     234          0.160838        0.000000        0.00000306        0.00000909        0.00000815        0.00006169
     235          0.185098        0.000000        0.00000050        0.00000835        0.00000754        0.00000564
     236          0.223379        0.000000        0.00000319        0.00000705        0.00000186        0.00004085
     237          0.267823        0.000000        0.00000138        0.00000065        0.00000753        0.00002154
     238          0.279117        0.000000        0.00000425        0.00013247        0.00005331        0.00001371
     239          0.281922        0.000000        0.00000371        0.00001277        0.00005528        0.00002519
     240          0.282576        0.000000        0.00000080        0.00000577        0.00003617        0.00000136
     241          0.285382        0.000000        0.00000220        0.00000316        0.00000569        0.00000559
     242          0.286510        0.000000        0.00000046        0.00010670        0.00022591        0.00000173
     243          0.296037        0.000000        0.00000217        0.00001663        0.00001984        0.00000907
     244          0.300864        0.000000        0.00000478        0.00002629        0.00013505        0.00004033
     245          0.307711        0.000000        0.00000173        0.00000863        0.00003020        0.00001020
     246          0.311287        0.000000        0.00000626        0.00004692        0.00007752        0.00004227
     247          0.311699        0.000000        0.00000106        0.00000191        0.00009366        0.00000182
     248          0.313480        0.000000        0.00000093        0.00000178        0.00007139        0.00002781
     249          0.317309        0.000000        0.00001122        0.00002888        0.00009401        0.00011045
     250          0.324219        0.000000        0.00000310        0.00003372        0.00001450        0.00002740
     251          0.332777        0.000000        0.00000388        0.00000882        0.00000131        0.00001110
     252          0.349383        0.000000        0.00000617        0.00005789        0.00012955        0.00003426
     253          0.356116        0.000000        0.00000076        0.00007111        0.00008035        0.00003225
     254          0.441377        0.000000        0.00000403        0.00001496        0.00003565        0.00001128
     255          0.441563        0.000000        0.00000020        0.00004237        0.00006056        0.00005083
     256          0.454158        0.000000        0.00000029        0.00000897        0.00000771        0.00000162
     257          0.455042        0.000000        0.00000058        0.00002524        0.00001106        0.00003984
     258          0.455098        0.000000        0.00000037        0.00001869        0.00004186        0.00001426
     259          0.455828        0.000000        0.00000012        0.00000413        0.00000471        0.00000791