# Projected DOS for atomic kind N at iteration step i = 0, E(Fermi) =    -0.181961 a.u.
#     MO Eigenvalue [a.u.]      Occupation                 s                py                pz                px
       1         -0.987536        1.000000        0.62415108        0.00001432        0.00007812        0.00026697
       2         -0.960373        1.000000        0.62181890        0.00014488        0.00009559        0.00075869
       3         -0.956015        1.000000        0.61382199        0.00000024        0.00000189        0.00021565
       4         -0.955479        1.000000        0.61893197        0.00025654        0.00024846        0.00046578
       5         -0.947822        1.000000        0.61382814        0.00000399        0.00008017        0.00019612
       6         -0.932551        1.000000        0.60894182        0.00003609        0.00001025        0.00002895
       7         -0.927341        1.000000        0.61072281        0.00000001        0.00005565        0.00014798
       8         -0.718448        1.000000        0.01339823        0.00165247        0.00062417        0.22656782
       9         -0.698272        1.000000        0.01550876        0.00222410        0.03527558        0.16229917
      10         -0.698176        1.000000        0.01700902        0.01704289        0.10068257        0.09139502
      11         -0.696811        1.000000        0.01998212        0.00002009        0.11789259        0.08414515
      12         -0.689468        1.000000        0.01517321        0.00000119        0.00278619        0.20119579
      13         -0.678564        1.000000        0.01707169        0.00641401        0.00023027        0.18864327
      14         -0.674314        1.000000        0.01647911        0.00000087        0.01157842        0.17975014
      15         -0.619367        1.000000        0.00073207        0.02510605        0.00760888        0.00130394
      16         -0.613893        1.000000        0.00026948        0.06155599        0.55299464        0.00005475
      17         -0.607739        1.000000        0.00075751        0.05603306        0.00536101        0.00400762
      18         -0.602297        1.000000        0.00063448        0.01491175        0.03207304        0.00737817
      19         -0.598833        1.000000        0.00091313        0.03205441        0.00546430        0.00140570
      20         -0.598203        1.000000        0.00009127        0.48187256        0.05820349        0.00119793
      21         -0.597075        1.000000        0.00036662        0.08335178        0.06977575        0.00537159
      22         -0.594011        1.000000        0.00083282        0.11713638        0.03213235        0.00280543
      23         -0.593306        1.000000        0.00044252        0.09019563        0.02718398        0.00737522
      24         -0.591638        1.000000        0.00024588        0.24782899        0.05789198        0.01210293
      25         -0.589939        1.000000        0.00039296        0.06161636        0.04851187        0.01508020
      26         -0.586484        1.000000        0.00015013        0.04314943        0.02282353        0.00626555
      27         -0.585736        1.000000        0.00009467        0.05233951        0.01232593        0.02017864
      28         -0.585265        1.000000        0.00009725        0.05159302        0.01317835        0.02196741
      29         -0.583990        1.000000        0.00021698        0.17701016        0.07228045        0.08508197
      30         -0.582723        1.000000        0.00012438        0.02898395        0.01283602        0.00220433
      31         -0.581768        1.000000        0.00023819        0.00543054        0.00839609        0.00048360
      32         -0.578581        1.000000        0.00020483        0.18135590        0.04128733        0.01070590
      33         -0.576962        1.000000        0.00044577        0.05854423        0.01979890        0.02466483
      34         -0.576296        1.000000        0.00057305        0.01920272        0.03381511        0.03778004
      35         -0.575902        1.000000        0.00057388        0.02574550        0.02117264        0.03329961
      36         -0.574291        1.000000        0.00010982        0.08715290        0.18169370        0.02346710
      37         -0.573618        1.000000        0.00025052        0.13013135        0.01949423        0.01398929
      38         -0.573223        1.000000        0.00000616        0.02346663        0.00144470        0.00093326
      39         -0.572233        1.000000        0.00101972        0.12450907        0.08947917        0.08660757
      40         -0.571461        1.000000        0.00056675        0.04683279        0.11001948        0.04496003
      41         -0.571063        1.000000        0.00014476        0.00882888        0.00618821        0.00165709
      42         -0.569801        1.000000        0.00045356        0.15614945        0.09237569        0.01000760
      43         -0.569221        1.000000        0.00004083        0.00260802        0.01028033        0.00320009
      44         -0.569080        1.000000        0.00025700        0.01439957        0.12995620        0.02571728
      45         -0.567234        1.000000        0.00018526        0.02657627        0.01668949        0.00472154
      46         -0.566654        1.000000        0.00040985        0.00954590        0.13781924        0.17011989
      47         -0.565886        1.000000        0.00000140        0.00009976        0.00031099        0.00038620
      48         -0.563341        1.000000        0.00038982        0.03912351        0.19423185        0.00662745
      49         -0.563232        1.000000        0.00002891        0.00192341        0.01014799        0.00151021
      50         -0.562587        1.000000        0.00192272        0.25086819        0.13837601        0.11260615
      51         -0.562200        1.000000        0.00021497        0.02787100        0.01438301        0.01324315
      52         -0.561957        1.000000        0.00002230        0.00557537        0.00449787        0.00486807
      53         -0.559747        1.000000        0.00002736        0.00496421        0.00340541        0.00070264
      54         -0.559579        1.000000        0.00001658        0.00765561        0.01145126        0.00753867
      55         -0.558453        1.000000        0.00074009        0.07728271        0.01646636        0.00120459
      56         -0.557181        1.000000        0.00009383        0.07456315        0.07120651        0.00528972
      57         -0.555442        1.000000        0.00000043        0.00667214        0.00125737        0.00039641
      58         -0.554594        1.000000        0.00003470        0.15457511        0.09729985        0.00196389
      59         -0.553291        1.000000        0.00000075        0.35640055        0.11048855        0.01724384
      60         -0.551914        1.000000        0.00004491        0.00009014        0.00016428        0.00157781
      61         -0.549270        1.000000        0.00000011        0.00000368        0.00031822        0.00033667
      62         -0.546079        1.000000        0.00006483        0.11105289        0.42364943        0.00431437
      63         -0.544046        1.000000        0.00000720        0.40288196        0.03308874        0.00121071
      64         -0.537795        1.000000        0.00038528        0.06276187        0.34654633        0.02455196
      65         -0.506421        1.000000        0.01001139        0.00013826        0.00043361        0.41721217
      66         -0.483330        1.000000        0.00735578        0.04965598        0.27631252        0.10582270
      67         -0.481047        1.000000        0.00640479        0.00434350        0.21159411        0.22045752
      68         -0.478849        1.000000        0.00969794        0.00001231        0.04816575        0.38615768
      69         -0.470282        1.000000        0.01006155        0.00028773        0.00752219        0.41345258
      70         -0.466227        1.000000        0.00014197        0.00043732        0.00171878        0.00275238
      71         -0.463229        1.000000        0.00010628        0.00005877        0.00006046        0.00423807
      72         -0.459913        1.000000        0.00006746        0.00049346        0.00021361        0.00227689
      73         -0.458880        1.000000        0.00766165        0.01852928        0.00039625        0.34900468
      74         -0.458393        1.000000        0.00029266        0.00052669        0.00076333        0.01958234
      75         -0.456873        1.000000        0.00170037        0.00247036        0.00204724        0.07681185
      76         -0.454449        1.000000        0.00554540        0.00046400        0.01803919        0.25971513
      77         -0.452033        1.000000        0.00225211        0.00015249        0.00661222        0.10373670
      78         -0.449067        1.000000        0.00004739        0.00004549        0.00010865        0.00520899
      79         -0.447521        1.000000        0.00003676        0.00020222        0.00049402        0.00653608
      80         -0.427723        1.000000        0.00000509        0.00567833        0.02231573        0.00004137
      81         -0.425199        1.000000        0.00000427        0.02828015        0.00699722        0.00055862
      82         -0.415446        1.000000        0.00000103        0.02951179        0.00815068        0.00135981
      83         -0.412950        1.000000        0.00000230        0.00919340        0.02355020        0.00371628
      84         -0.412008        1.000000        0.00003716        0.03563687        0.00055928        0.00123647
      85         -0.411383        1.000000        0.00002393        0.01460190        0.01405874        0.00737587
      86         -0.410208        1.000000        0.00013352        0.01304716        0.00314740        0.02184119
      87         -0.409468        1.000000        0.00012333        0.00507862        0.01984926        0.02077265
      88         -0.405868        1.000000        0.00000650        0.00327318        0.03576194        0.00076874
      89         -0.402719        1.000000        0.00000316        0.03349785        0.00168104        0.00003800
      90         -0.395516        1.000000        0.00000136        0.01882883        0.01751031        0.00028363
      91         -0.393154        1.000000        0.00001817        0.01682157        0.02232413        0.00022241
      92         -0.391747        1.000000        0.00000376        0.03932122        0.00128251        0.00004858
      93         -0.389788        1.000000        0.00000792        0.00082526        0.03481613        0.00309879
      94         -0.287600        1.000000        0.00046340        0.00156680        0.00022350        0.00022547
      95         -0.283344        1.000000        0.00024247        0.00055578        0.00002907        0.00012275
      96         -0.278178        1.000000        0.00017286        0.00129165        0.00040494        0.00018615
      97         -0.273297        1.000000        0.00024355        0.00128324        0.00046567        0.00004833
      98         -0.271229        1.000000        0.00011135        0.00166961        0.00035335        0.00010037
      99         -0.269531        1.000000        0.00003924        0.00018710        0.00044390        0.00009678
     100         -0.268301        1.000000        0.00022324        0.00074327        0.00047180        0.00012734
     101         -0.268059        1.000000        0.00019942        0.00085082        0.00029811        0.00009378
     102         -0.266169        1.000000        0.00032205        0.00044741        0.00064380        0.00006986
     103         -0.264977        1.000000        0.00023121        0.00016747        0.00012061        0.00014239
     104         -0.263655        1.000000        0.00008121        0.00010698        0.00034980        0.00015442
     105         -0.261992        1.000000        0.00089928        0.00024084        0.00100027        0.00045808
     106         -0.260340        1.000000        0.00039559        0.00038570        0.00061475        0.00041028
     107         -0.259130        1.000000        0.00025565        0.00045560        0.00043041        0.00011108
     108         -0.253175        1.000000        0.00085934        0.00095462        0.00050353        0.00081392
     109         -0.250121        1.000000        0.00321243        0.00026303        0.00198387        0.00224435
     110         -0.247267        1.000000        0.00231170        0.00107626        0.00142585        0.00192210
     111         -0.245672        1.000000        0.00103500        0.00023346        0.00103151        0.00024976
     112         -0.243765        1.000000        0.00071201        0.00257807        0.00081383        0.00026948
     113         -0.242330        1.000000        0.00136899        0.00243224        0.00042614        0.00079454
     114         -0.240886        1.000000        0.00133925        0.00442209        0.00032010        0.00083142
     115         -0.239229        1.000000        0.00179995        0.00403125        0.00034794        0.00098203
     116         -0.237952        1.000000        0.00025730        0.00151814        0.00057727        0.00025341
     117         -0.236516        1.000000        0.00057590        0.00083368        0.00017944        0.00081377
     118         -0.235191        1.000000        0.00102994        0.00239307        0.00167303        0.00057799
     119         -0.233323        1.000000        0.00086613        0.00339963        0.00135571        0.00063615
     120         -0.231280        1.000000        0.00277220        0.00308045        0.00434876        0.00118818
     121         -0.230379        1.000000        0.00136643        0.00186456        0.00158116        0.00151316
     122         -0.228228        1.000000        0.00136874        0.00086022        0.00312180        0.00127188
     123         -0.227603        1.000000        0.00080620        0.00155914        0.00215842        0.00093782
     124         -0.225758        1.000000        0.00048034        0.00016785        0.00797481        0.00022684
     125         -0.224435        1.000000        0.00116502        0.00179151        0.00147677        0.00097532
     126         -0.224037        1.000000        0.00097783        0.00198309        0.00101263        0.00029847
     127         -0.221603        1.000000        0.00026958        0.00054037        0.00577899        0.00014669
     128         -0.219868        1.000000        0.00064267        0.00223582        0.00049853        0.00037945
     129         -0.218406        1.000000        0.00042615        0.00222607        0.00069502        0.00037415
     130         -0.217467        1.000000        0.00097215        0.00524079        0.00108154        0.00089620
     131         -0.216446        1.000000        0.00063605        0.00163679        0.00085471        0.00069498
     132         -0.215820        1.000000        0.00023585        0.00045515        0.00009445        0.00027053
     133         -0.214537        1.000000        0.00035967        0.00058424        0.00012678        0.00005434
     134         -0.212519        1.000000        0.00034507        0.00031924        0.00094217        0.00019612
     135         -0.211916        1.000000        0.00013382        0.00110245        0.00049033        0.00023300
     136         -0.210975        1.000000        0.00052357        0.00091655        0.00073861        0.00040874
     137         -0.210389        1.000000        0.00027862        0.00112146        0.00095083        0.00028656
     138         -0.209067        1.000000        0.00069562        0.00145670        0.00069193        0.00028748
     139         -0.208208        1.000000        0.00006085        0.00009594        0.00017022        0.00009025
     140         -0.206559        1.000000        0.00023814        0.00068303        0.00151398        0.00009034
     141         -0.206052        1.000000        0.00009615        0.00046139        0.00023765        0.00011622
     142         -0.204145        1.000000        0.00117627        0.00207752        0.00126609        0.00116665
     143         -0.203750        1.000000        0.00029070        0.00038844        0.00046812        0.00010989
     144         -0.203071        1.000000        0.00019372        0.00047670        0.00016677        0.00022467
     145         -0.202190        1.000000        0.00066667        0.00126620        0.00097262        0.00048617
     146         -0.201485        1.000000        0.00017894        0.00061103        0.00050813        0.00021902
     147         -0.200576        1.000000        0.00015565        0.00035727        0.00094694        0.00001887
     148         -0.199419        1.000000        0.00031549        0.00063051        0.00064464        0.00016326
     149         -0.199283        1.000000        0.00080671        0.00553667        0.00185203        0.00062648
     150         -0.198636        1.000000        0.00024206        0.00021626        0.00076225        0.00008922
     151         -0.198222        1.000000        0.00112759        0.00133019        0.00468632        0.00012620
     152         -0.197581        1.000000        0.00024403        0.00086314        0.00057675        0.00024840
     153         -0.197325        1.000000        0.00016845        0.00003289        0.00053620        0.00005798
     154         -0.197157        1.000000        0.00028383        0.00014926        0.00035789        0.00004899
     155         -0.196328        1.000000        0.00072839        0.00126225        0.00220661        0.00011106
     156         -0.195476        1.000000        0.00002459        0.00006567        0.00032269        0.00005178
     157         -0.194983        1.000000        0.00007908        0.00006993        0.00021429        0.00002879
     158         -0.194652        1.000000        0.00003778        0.00006986        0.00063259        0.00018879
     159         -0.193732        1.000000        0.00012606        0.00044117        0.00021767        0.00005602
     160         -0.193549        1.000000        0.00032382        0.00039534        0.00030080        0.00019293
     161         -0.192967        1.000000        0.00001335        0.00081024        0.00006844        0.00025493
     162         -0.192146        1.000000        0.00031474        0.00085051        0.00060440        0.00004760
     163         -0.191704        1.000000        0.00109284        0.00082793        0.00175300        0.00031063
     164         -0.191527        1.000000        0.00026382        0.00029455        0.00023469        0.00012301
     165         -0.191295        1.000000        0.00033737        0.00014185        0.00074877        0.00021984
     166         -0.191118        1.000000        0.00031491        0.00017821        0.00015011        0.00019366
     167         -0.190684        1.000000        0.00004638        0.00045839        0.00015026        0.00010960
     168         -0.190317        1.000000        0.00019891        0.00015940        0.00001909        0.00009000
     169         -0.189853        1.000000        0.00004241        0.00008494        0.00024801        0.00002899
     170         -0.189032        1.000000        0.00011414        0.00035000        0.00069391        0.00018177
     171         -0.188749        1.000000        0.00005691        0.00059056        0.00123403        0.00016679
     172         -0.188557        1.000000        0.00012865        0.00118000        0.00467130        0.00032996
     173         -0.187730        1.000000        0.00009640        0.00011084        0.00013447        0.00005152
     174         -0.187331        1.000000        0.00005154        0.00023574        0.00021513        0.00010458
     175         -0.187088        1.000000        0.00005047        0.00019007        0.00113730        0.00008433
     176         -0.186479        1.000000        0.00004694        0.00014821        0.00081336        0.00025116
     177         -0.186237        1.000000        0.00010630        0.00022171        0.00006365        0.00002526
     178         -0.185515        1.000000        0.00008589        0.00009196        0.00007028        0.00003989
     179         -0.185401        1.000000        0.00008543        0.00011833        0.00008579        0.00003693
     180         -0.185092        1.000000        0.00004348        0.00011748        0.00009011        0.00005235
     181         -0.184973        1.000000        0.00003349        0.00004106        0.00005180        0.00002936
     182         -0.184678        1.000000        0.00004055        0.00008239        0.00012237        0.00006165
     183         -0.184482        1.000000        0.00003283        0.00013467        0.00006467        0.00004226
     184         -0.184244        1.000000        0.00006115        0.00018695        0.00023340        0.00003755
     185         -0.184055        1.000000        0.00006771        0.00012552        0.00006009        0.00001716
     186         -0.183456        1.000000        0.00003203        0.00008383        0.00012470        0.00009426
     187         -0.183297        1.000000        0.00004422        0.00007684        0.00003666        0.00005448
     188         -0.183050        1.000000        0.00006012        0.00018619        0.00004768        0.00008752
     189         -0.182845        1.000000        0.00002992        0.00011568        0.00006072        0.00001288
     190         -0.182750        1.000000        0.00005718        0.00002778        0.00002220        0.00003179
     191         -0.182326        1.000000        0.00001782        0.00037177        0.00004378        0.00004189
     192         -0.182179        1.000000        0.00003619        0.00013864        0.00007952        0.00002353
     193         -0.182091        1.000000        0.00013791        0.00031875        0.00013977        0.00008577
     194         -0.181961        1.000000        0.00007938        0.00015591        0.00007487        0.00005242
     195         -0.181909        0.000000        0.00008027        0.00016284        0.00003253        0.00004701
     196         -0.181575        0.000000        0.00003281        0.00007270        0.00015840        0.00006629
     197         -0.181160        0.000000        0.00003831        0.00005656        0.00006253        0.00002780
     198         -0.180955        0.000000        0.00004837        0.00012167        0.00003507        0.00002039
     199         -0.180005        0.000000        0.00016363        0.00088311        0.00023045        0.00008907
     200         -0.179540        0.000000        0.00001881        0.00016666        0.00006840        0.00002298
     201         -0.178370        0.000000        0.00002307        0.00003391        0.00000511        0.00002408
     202         -0.075041        0.000000        0.00008979        0.00005228        0.00003843        0.00003474
     203         -0.070367        0.000000        0.00002605        0.00003920        0.00001165        0.00004439
     204         -0.066392        0.000000        0.00006285        0.00004174        0.00001696        0.00002585
     205         -0.064937        0.000000        0.00002817        0.00004574        0.00000991        0.00001944
     206         -0.062876        0.000000        0.00001506        0.00000679        0.00002060        0.00002917
     207         -0.059463        0.000000        0.00004094        0.00003502        0.00002848        0.00003236
     208         -0.058470        0.000000        0.00004996        0.00007681        0.00010194        0.00001154
     209         -0.056219        0.000000        0.00010093        0.00004838        0.00002670        0.00000727
     210         -0.053639        0.000000        0.00003099        0.00000507        0.00008238        0.00001247
     211         -0.048875        0.000000        0.00010601        0.00011039        0.00003889        0.00005462
     212         -0.047706        0.000000        0.00004028        0.00006925        0.00012035        0.00001980
     213         -0.042607        0.000000        0.00004302        0.00005471        0.00004880        0.00003270
     214         -0.041340        0.000000        0.00001167        0.00003712        0.00001087        0.00000921
     215         -0.039627        0.000000        0.00013719        0.00009830        0.00002101        0.00007748
     216         -0.038823        0.000000        0.00006428        0.00006869        0.00009692        0.00002718
     217         -0.032447        0.000000        0.00020206        0.00004659        0.00007464        0.00002079
     218         -0.029751        0.000000        0.00002753        0.00027379        0.00020078        0.00000611
     219         -0.027819        0.000000        0.00003206        0.00002961        0.00005765        0.00004431
     220         -0.026725        0.000000        0.00003382        0.00015196        0.00006956        0.00000842
     221         -0.026119        0.000000        0.00009521        0.00002848        0.00003956        0.00002477
     222         -0.023410        0.000000        0.00007330        0.00007859        0.00003656        0.00001474
     223         -0.018565        0.000000        0.00001694        0.00011029        0.00012351        0.00000783
     224         -0.014854        0.000000        0.00002550        0.00001947        0.00001059        0.00000139
     225         -0.005810        0.000000        0.00001475        0.00013351        0.00000970        0.00004114
     226          0.076142        0.000000        0.11839295        0.00018510        0.00025959        0.23301700
     227          0.090830        0.000000        0.10305420        0.00003747        0.02891738        0.22745463
     228          0.092528        0.000000        0.12652703        0.01970968        0.10233866        0.10642855
     229          0.095841        0.000000        0.12050929        0.00067568        0.14977403        0.08797270
     230          0.100304        0.000000        0.10698002        0.00035710        0.00469707        0.24793467
     231          0.117719        0.000000        0.10093202        0.01383413        0.00020679        0.25168200
     232          0.119515        0.000000        0.10375633        0.00010827        0.01558817        0.24407330
     233          0.147748        0.000000        0.03948014        0.03066377        0.19410811        0.07071099
     234          0.161028        0.000000        0.03605113        0.13933813        0.00592231        0.15114513
     235          0.185290        0.000000        0.02962697        0.19653060        0.09725618        0.01117938
     236          0.223559        0.000000        0.06701157        0.12987327        0.09909008        0.04082817
     237          0.268018        0.000000        0.13392229        0.00387663        0.13957150        0.06617148
     238          0.279296        0.000000        0.00056943        0.29055045        0.02960950        0.00376896
     239          0.282089        0.000000        0.00051851        0.02337568        0.26204309        0.03554484
     240          0.282764        0.000000        0.00803303        0.26011298        0.05048458        0.01066648
     241          0.285488        0.000000        0.00694964        0.19429209        0.11491694        0.01459535
     242          0.286698        0.000000        0.00133177        0.12886343        0.18080482        0.00120169
     243          0.296241        0.000000        0.01240702        0.10710100        0.11973825        0.08604364
     244          0.301066        0.000000        0.00148646        0.02501837        0.28297467        0.00252908
     245          0.307907        0.000000        0.00046168        0.29409005        0.01876497        0.00180808
     246          0.311487        0.000000        0.00910282        0.27420546        0.02793943        0.00642717
     247          0.311888        0.000000        0.16714830        0.01905694        0.00125030        0.14967053
     248          0.313660        0.000000        0.00231774        0.02434270        0.26697651        0.02271272
     249          0.317505        0.000000        0.18342211        0.06714632        0.06487881        0.02340578
     250          0.324391        0.000000        0.23457657        0.01237608        0.01763234        0.08172022
     251          0.332933        0.000000        0.23442521        0.00739657        0.00753811        0.09623680
     252          0.349584        0.000000        0.23444508        0.00013051        0.00472260        0.10160197
     253          0.356321        0.000000        0.24106085        0.00012265        0.01029546        0.09327465
     254          0.441538        0.000000        0.00013044        0.01614671        0.00067970        0.00005025
     255          0.441726        0.000000        0.00013742        0.00001260        0.01817572        0.00012642
     256          0.454335        0.000000        0.00026100        0.00115970        0.01125676        0.01011916
     257          0.455217        0.000000        0.00062867        0.00386476        0.00084544        0.01220697
     258          0.455275        0.000000        0.00049495        0.02158342        0.00029014        0.00080051
     259          0.455961        0.000000        0.00002880        0.00005042        0.02079411        0.00271248