# Projected DOS for atomic kind I at iteration step i = 0, E(Fermi) =    -0.182486 a.u.
#     MO Eigenvalue [a.u.]      Occupation                 s                py                pz                px
       1         -0.987721        1.000000        0.00000198        0.00001933        0.00001869        0.00000450
       2         -0.960569        1.000000        0.00003341        0.00014074        0.00001222        0.00007812
       3         -0.956186        1.000000        0.00013132        0.00026694        0.00042997        0.00015060
       4         -0.955671        1.000000        0.00006062        0.00021833        0.00011762        0.00008615
       5         -0.947997        1.000000        0.00012002        0.00021169        0.00025614        0.00017409
       6         -0.932758        1.000000        0.00043688        0.00080014        0.00043182        0.00027227
       7         -0.927531        1.000000        0.00024975        0.00031505        0.00057176        0.00019272
       8         -0.718638        1.000000        0.00032247        0.00018447        0.00015813        0.00014544
       9         -0.698446        1.000000        0.00161809        0.00037647        0.00023089        0.00039717
      10         -0.698378        1.000000        0.00087676        0.00037074        0.00024223        0.00027080
      11         -0.697019        1.000000        0.00068196        0.00025970        0.00019919        0.00011407
      12         -0.689643        1.000000        0.00145240        0.00025499        0.00030374        0.00020781
      13         -0.678775        1.000000        0.00372505        0.00039112        0.00043697        0.00021574
      14         -0.674514        1.000000        0.00320055        0.00043056        0.00065640        0.00039577
      15         -0.619489        1.000000        0.88791459        0.00743435        0.00390981        0.00358821
      16         -0.614098        1.000000        0.00212112        0.00008223        0.00013676        0.00000841
      17         -0.608178        1.000000        0.80331068        0.00305847        0.00202810        0.00369478
      18         -0.602712        1.000000        0.77631039        0.00504373        0.00566091        0.00500584
      19         -0.599157        1.000000        0.84377004        0.00227832        0.00191841        0.00219806
      20         -0.598407        1.000000        0.10819812        0.00055753        0.00066656        0.00037744
      21         -0.597361        1.000000        0.67322896        0.00178397        0.00292701        0.00277285
      22         -0.594300        1.000000        0.68616272        0.00224672        0.00217122        0.00528960
      23         -0.593835        1.000000        0.73021441        0.00163525        0.00264058        0.00192674
      24         -0.591932        1.000000        0.42477976        0.00194769        0.00092314        0.00226412
      25         -0.590143        1.000000        0.71986080        0.00348103        0.00246000        0.00229740
      26         -0.586821        1.000000        0.81834531        0.00234494        0.00268901        0.00295293
      27         -0.586429        1.000000        0.91035935        0.00134599        0.00291115        0.00237440
      28         -0.585625        1.000000        0.67003103        0.00335074        0.00261824        0.00334597
      29         -0.584213        1.000000        0.41396146        0.00312456        0.00137230        0.00155279
      30         -0.583014        1.000000        0.87467784        0.00195940        0.00196353        0.00175595
      31         -0.582437        1.000000        0.89966825        0.00141002        0.00271944        0.00281117
      32         -0.578796        1.000000        0.59606159        0.00309557        0.00244010        0.00273514
      33         -0.577891        1.000000        0.77809204        0.00442611        0.00294688        0.00438708
      34         -0.576954        1.000000        0.77553733        0.00198135        0.00308715        0.00131408
      35         -0.576443        1.000000        0.79665657        0.00141839        0.00321756        0.00074528
      36         -0.574910        1.000000        0.72978558        0.00185193        0.00430659        0.00311157
      37         -0.574219        1.000000        0.65916348        0.00139957        0.00163727        0.00123699
      38         -0.574014        1.000000        0.62017919        0.00181003        0.00157677        0.00130019
      39         -0.572511        1.000000        0.45167639        0.00230454        0.00354534        0.00226002
      40         -0.571808        1.000000        0.61686654        0.00158327        0.00402359        0.00217690
      41         -0.571419        1.000000        0.94910141        0.00021253        0.00410854        0.00355716
      42         -0.570263        1.000000        0.61837172        0.00128920        0.00159762        0.00198300
      43         -0.569785        1.000000        0.89881648        0.00121149        0.00205104        0.00132160
      44         -0.568971        1.000000        0.72408957        0.00113425        0.00191670        0.00241930
      45         -0.568006        1.000000        0.82239097        0.00088254        0.00214329        0.00230828
      46         -0.567900        1.000000        0.97384141        0.00069894        0.00012182        0.00142384
      47         -0.567098        1.000000        0.44196255        0.00025216        0.00285988        0.00084285
      48         -0.564455        1.000000        0.96253631        0.00016035        0.00077364        0.00163838
      49         -0.563603        1.000000        0.57635982        0.00048320        0.00113549        0.00058905
      50         -0.563280        1.000000        0.90558967        0.00162638        0.00060645        0.00061453
      51         -0.562788        1.000000        0.13027551        0.00118305        0.00069369        0.00045941
      52         -0.561918        1.000000        0.94395610        0.00102784        0.00160935        0.00039804
      53         -0.560927        1.000000        0.92931809        0.00037342        0.00040733        0.00109541
      54         -0.560253        1.000000        0.96121059        0.00052338        0.00184175        0.00041837
      55         -0.558589        1.000000        0.77515806        0.00286501        0.00231711        0.00115862
      56         -0.557930        1.000000        0.79246312        0.00108729        0.00104689        0.00061977
      57         -0.556833        1.000000        0.97335294        0.00134422        0.00005694        0.00024591
      58         -0.554886        1.000000        0.52005184        0.00017470        0.00143957        0.00039983
      59         -0.553553        1.000000        0.18062178        0.00669142        0.00170652        0.00184571
      60         -0.553468        1.000000        0.98518614        0.00043653        0.00092644        0.00025309
      61         -0.550083        1.000000        0.99824485        0.00019112        0.00029568        0.00012267
      62         -0.546346        1.000000        0.09725262        0.00224698        0.00244695        0.00322543
      63         -0.544200        1.000000        0.27882902        0.00252383        0.00046917        0.00081209
      64         -0.538065        1.000000        0.27366126        0.00143568        0.00251793        0.00104316
      65         -0.506598        1.000000        0.00179959        0.00051629        0.00048819        0.00049424
      66         -0.483529        1.000000        0.00149215        0.00113846        0.00073224        0.00120396
      67         -0.481246        1.000000        0.00214529        0.00138533        0.00085204        0.00054370
      68         -0.479009        1.000000        0.00297046        0.00167010        0.00209861        0.00099710
      69         -0.470445        1.000000        0.00332444        0.00211533        0.00250800        0.00179118
      70         -0.466825        1.000000        0.16615489        0.03447106        0.03571939        0.05047315
      71         -0.463408        1.000000        0.11897990        0.04528320        0.04194124        0.04606055
      72         -0.459995        1.000000        0.12592493        0.03826457        0.03759257        0.04020835
      73         -0.459081        1.000000        0.01688100        0.00664952        0.00645084        0.00784481
      74         -0.458431        1.000000        0.13202147        0.03773816        0.04665903        0.03089000
      75         -0.456987        1.000000        0.09608569        0.02101607        0.02692103        0.03728625
      76         -0.454622        1.000000        0.05449366        0.01173864        0.01808757        0.01147077
      77         -0.452283        1.000000        0.09081884        0.01698874        0.03485731        0.01980876
      78         -0.449251        1.000000        0.13033643        0.02868724        0.03008711        0.03229343
      79         -0.447696        1.000000        0.13110879        0.02391770        0.02940909        0.02753727
      80         -0.427897        1.000000        0.00133226        0.00084446        0.00137155        0.00129083
      81         -0.425390        1.000000        0.00175717        0.00267043        0.00097550        0.00151848
      82         -0.415602        1.000000        0.00208384        0.00539894        0.00173765        0.00201602
      83         -0.413112        1.000000        0.00173382        0.00274081        0.00168882        0.00439371
      84         -0.412212        1.000000        0.00093364        0.00197139        0.00152147        0.00061901
      85         -0.411593        1.000000        0.00173201        0.00354312        0.00062024        0.00186815
      86         -0.410413        1.000000        0.00132656        0.00128366        0.00160527        0.00289189
      87         -0.409676        1.000000        0.00014898        0.00045229        0.00034703        0.00044533
      88         -0.406049        1.000000        0.00106075        0.00068674        0.00290680        0.00124631
      89         -0.402900        1.000000        0.00099748        0.00216037        0.00080106        0.00100665
      90         -0.395721        1.000000        0.00141786        0.00325564        0.00298431        0.00156015
      91         -0.393358        1.000000        0.00115725        0.00254966        0.00209352        0.00189798
      92         -0.391961        1.000000        0.00161514        0.00386308        0.00237579        0.00135888
      93         -0.389969        1.000000        0.00231727        0.00332348        0.00520391        0.00247244
      94         -0.288279        1.000000        0.00946956        0.05702444        0.27372921        0.43887758
      95         -0.283236        1.000000        0.01793717        0.06136540        0.53183345        0.25784085
      96         -0.278295        1.000000        0.00901908        0.12019438        0.26292303        0.34535592
      97         -0.273520        1.000000        0.01277453        0.55702069        0.05388040        0.09603516
      98         -0.271390        1.000000        0.01146992        0.37261955        0.07200748        0.27435204
      99         -0.269858        1.000000        0.01320074        0.33382250        0.31474438        0.07350790
     100         -0.268653        1.000000        0.01266084        0.18673698        0.27116468        0.28013703
     101         -0.268258        1.000000        0.01126377        0.23175045        0.12210807        0.40253735
     102         -0.266536        1.000000        0.01193847        0.21613832        0.25196051        0.30878402
     103         -0.265756        1.000000        0.01501921        0.37638859        0.21961752        0.14130889
     104         -0.264661        1.000000        0.01124031        0.23462684        0.34716346        0.20259365
     105         -0.262396        1.000000        0.01867726        0.06759686        0.35452676        0.29863762
     106         -0.260668        1.000000        0.01646752        0.07316462        0.32069732        0.34854121
     107         -0.259660        1.000000        0.01401710        0.05591879        0.39925222        0.29237503
     108         -0.253817        1.000000        0.01054454        0.12210662        0.39640655        0.26407163
     109         -0.250539        1.000000        0.01373118        0.43909368        0.22591611        0.14028095
     110         -0.247650        1.000000        0.01193534        0.27980404        0.34475627        0.19191343
     111         -0.245943        1.000000        0.01392517        0.20902418        0.18208270        0.38520081
     112         -0.244313        1.000000        0.01199746        0.21638369        0.31630515        0.27821916
     113         -0.243568        1.000000        0.01130055        0.23332039        0.30374569        0.28887514
     114         -0.241243        1.000000        0.01058539        0.28997063        0.19744076        0.34257109
     115         -0.239535        1.000000        0.01015467        0.33096497        0.19035473        0.30057181
     116         -0.238161        1.000000        0.01269617        0.25862618        0.37918344        0.14635468
     117         -0.236824        1.000000        0.01302466        0.19045090        0.24626726        0.36472670
     118         -0.235620        1.000000        0.00965381        0.45062935        0.17835653        0.22131271
     119         -0.233737        1.000000        0.00494791        0.49534299        0.21118888        0.16968367
     120         -0.231607        1.000000        0.00619413        0.34296397        0.36203864        0.19186018
     121         -0.230700        1.000000        0.00650449        0.39781070        0.16354640        0.30152399
     122         -0.228632        1.000000        0.00392579        0.42226590        0.32510120        0.17336466
     123         -0.227880        1.000000        0.00568102        0.37701766        0.24094691        0.27430425
     124         -0.226254        1.000000        0.00555680        0.29149209        0.26726683        0.33286565
     125         -0.224850        1.000000        0.00433690        0.27699159        0.29232777        0.35249894
     126         -0.224439        1.000000        0.00764898        0.45888157        0.16815117        0.26801943
     127         -0.221893        1.000000        0.00378687        0.25917043        0.29208737        0.39952456
     128         -0.220018        1.000000        0.00212028        0.31889023        0.30491197        0.34219254
     129         -0.218615        1.000000        0.00221062        0.31614953        0.26440153        0.37704061
     130         -0.217824        1.000000        0.00306632        0.15783304        0.28158656        0.51620486
     131         -0.216719        1.000000        0.00230068        0.29032846        0.41919814        0.24422296
     132         -0.216092        1.000000        0.00291023        0.16182278        0.41046844        0.36446113
     133         -0.214694        1.000000        0.00304654        0.36296515        0.30021876        0.26915701
     134         -0.213076        1.000000        0.00110288        0.45368871        0.22564343        0.29364311
     135         -0.212298        1.000000        0.00091513        0.20305202        0.38104340        0.39791531
     136         -0.211056        1.000000        0.00186461        0.38945952        0.31761643        0.25816437
     137         -0.210454        1.000000        0.00094260        0.19153251        0.55595359        0.23411178
     138         -0.209302        1.000000        0.00087591        0.36967306        0.23786258        0.37459831
     139         -0.208359        1.000000        0.00167384        0.25245415        0.60001900        0.11771604
     140         -0.206949        1.000000        0.00083090        0.35413299        0.25492965        0.36681238
     141         -0.206064        1.000000        0.00073284        0.35166088        0.30188451        0.33669406
     142         -0.204606        1.000000        0.00142301        0.34858745        0.48856043        0.14657023
     143         -0.204007        1.000000        0.00166862        0.35070431        0.31006981        0.32548718
     144         -0.203239        1.000000        0.00105712        0.35648733        0.34686639        0.28574583
     145         -0.202577        1.000000        0.00114351        0.34529299        0.28650205        0.34288153
     146         -0.201742        1.000000        0.00134265        0.35313697        0.34296102        0.27059358
     147         -0.201061        1.000000        0.00099790        0.49634656        0.27588696        0.21819936
     148         -0.199806        1.000000        0.00196784        0.60965774        0.23072661        0.13859722
     149         -0.199696        1.000000        0.00078242        0.42111333        0.23061941        0.33837614
     150         -0.199118        1.000000        0.00136469        0.45096307        0.28796393        0.24682880
     151         -0.198970        1.000000        0.00129953        0.37773246        0.31587954        0.29204618
     152         -0.198295        1.000000        0.00137495        0.34320736        0.34196878        0.28210312
     153         -0.197692        1.000000        0.00109126        0.42428522        0.27011802        0.29473641
     154         -0.197591        1.000000        0.00046559        0.53491765        0.19345182        0.26507814
     155         -0.197198        1.000000        0.00085222        0.42141031        0.27513293        0.29029854
     156         -0.196672        1.000000        0.00042754        0.33160539        0.29532509        0.36639556
     157         -0.195398        1.000000        0.00065308        0.24246489        0.36481300        0.37926152
     158         -0.195050        1.000000        0.00079575        0.39161150        0.33203457        0.25359252
     159         -0.194599        1.000000        0.00049311        0.36748813        0.43289173        0.18047825
     160         -0.194581        1.000000        0.00067530        0.30312044        0.57624707        0.11207495
     161         -0.193949        1.000000        0.00071978        0.22825798        0.51062556        0.24982366
     162         -0.193074        1.000000        0.00091308        0.52251077        0.36466157        0.10816915
     163         -0.192708        1.000000        0.00136229        0.44539285        0.38726613        0.15209680
     164         -0.192342        1.000000        0.00104978        0.35068367        0.38743727        0.25218324
     165         -0.191875        1.000000        0.00096244        0.22776166        0.41323371        0.32495838
     166         -0.191020        1.000000        0.00102049        0.37985981        0.27395146        0.31845091
     167         -0.190882        1.000000        0.00081039        0.39141393        0.15698251        0.44379900
     168         -0.190742        1.000000        0.00091050        0.43524320        0.17831080        0.37557043
     169         -0.190502        1.000000        0.00090629        0.37167961        0.24001868        0.37819780
     170         -0.189449        1.000000        0.00081686        0.33520168        0.19292394        0.46353538
     171         -0.189346        1.000000        0.00096886        0.51443614        0.20346855        0.26478304
     172         -0.188657        1.000000        0.00153117        0.16512822        0.43498323        0.37725139
     173         -0.188441        1.000000        0.00095783        0.22908564        0.34769935        0.38942542
     174         -0.188191        1.000000        0.00053130        0.30373224        0.42240429        0.26584102
     175         -0.188045        1.000000        0.00018539        0.26044210        0.66469674        0.06798753
     176         -0.187687        1.000000        0.00042041        0.06888458        0.72226919        0.20302981
     177         -0.187354        1.000000        0.00048744        0.19072059        0.20385170        0.59635105
     178         -0.187103        1.000000        0.00096960        0.19346754        0.39201366        0.38787600
     179         -0.186652        1.000000        0.00053269        0.53919070        0.26283432        0.18796710
     180         -0.186309        1.000000        0.00047353        0.29750468        0.32672427        0.36582191
     181         -0.186163        1.000000        0.00031308        0.23134651        0.40967946        0.34806317
     182         -0.185798        1.000000        0.00061487        0.34035533        0.33000845        0.31213734
     183         -0.185386        1.000000        0.00061871        0.29194843        0.27133483        0.43170547
     184         -0.185112        1.000000        0.00039756        0.23556147        0.25150085        0.49307645
     185         -0.184829        1.000000        0.00040927        0.23731429        0.30509811        0.44420929
     186         -0.184684        1.000000        0.00065992        0.29678729        0.40844315        0.27979226
     187         -0.184404        1.000000        0.00042891        0.34242258        0.30631877        0.33037220
     188         -0.184340        1.000000        0.00047841        0.22644609        0.25327725        0.49712883
     189         -0.184089        1.000000        0.00029193        0.28614995        0.33109943        0.36625690
     190         -0.183652        1.000000        0.00045392        0.29620394        0.33832786        0.33364711
     191         -0.183481        1.000000        0.00083656        0.24227281        0.33839219        0.40837069
     192         -0.183182        1.000000        0.00060851        0.25231604        0.33718211        0.40220029
     193         -0.182763        1.000000        0.00027858        0.43527807        0.19690060        0.32946115
     194         -0.182539        1.000000        0.00010631        0.34626492        0.09937096        0.55188659
     195         -0.182486        1.000000        0.00054983        0.26057790        0.13573267        0.59216157
     196         -0.182260        0.000000        0.00114018        0.29101097        0.24642626        0.42325763
     197         -0.182129        0.000000        0.00038275        0.36633288        0.20713051        0.40228733
     198         -0.181963        0.000000        0.00094412        0.18474925        0.27915197        0.48293787
     199         -0.181682        0.000000        0.00134310        0.21004622        0.32446497        0.43111388
     200         -0.180154        0.000000        0.00011351        0.31193358        0.28482643        0.30122028
     201         -0.178693        0.000000        0.00111759        0.26016787        0.36925989        0.28132476
     202         -0.075231        0.000000        0.02624422        0.18150737        0.02320580        0.01946634
     203         -0.070678        0.000000        0.02018023        0.14501356        0.06401291        0.03268595
     204         -0.066541        0.000000        0.02259959        0.02096950        0.19421312        0.03026869
     205         -0.065095        0.000000        0.02159078        0.14584237        0.01873795        0.09285636
     206         -0.063135        0.000000        0.02761488        0.01949112        0.02244431        0.19850170
     207         -0.059626        0.000000        0.02002583        0.09304239        0.06099053        0.11263510
     208         -0.058770        0.000000        0.02278015        0.12248323        0.08621479        0.06102587
     209         -0.056658        0.000000        0.02073876        0.11923868        0.09555239        0.06439546
     210         -0.053899        0.000000        0.02885367        0.19870249        0.01634897        0.03969278
     211         -0.049162        0.000000        0.02129274        0.05080861        0.01744116        0.19514602
     212         -0.048083        0.000000        0.02192665        0.01879432        0.20759238        0.06198635
     213         -0.042721        0.000000        0.01498178        0.03478367        0.18369574        0.06667943
     214         -0.041513        0.000000        0.01852275        0.00914577        0.20161510        0.07871178
     215         -0.039912        0.000000        0.02187434        0.06086061        0.14771041        0.06092426
     216         -0.039001        0.000000        0.02049453        0.02445221        0.10021146        0.15414050
     217         -0.032875        0.000000        0.02310287        0.03786818        0.07137678        0.18251731
     218         -0.029848        0.000000        0.01971181        0.16888377        0.02665625        0.09706712
     219         -0.028006        0.000000        0.01334805        0.03219778        0.13270215        0.12421611
     220         -0.026888        0.000000        0.01548801        0.09629506        0.09546706        0.09887191
     221         -0.026243        0.000000        0.01547148        0.03287593        0.13979807        0.12312265
     222         -0.023514        0.000000        0.00940339        0.24765466        0.02283889        0.02713695
     223         -0.018649        0.000000        0.01574976        0.00384919        0.27690092        0.01989722
     224         -0.014977        0.000000        0.01099725        0.02013863        0.01961124        0.26641677
     225         -0.006006        0.000000        0.01254445        0.29227929        0.00787135        0.01630878
     226          0.075976        0.000000        0.00003993        0.00049747        0.00074274        0.00028693
     227          0.090681        0.000000        0.00008298        0.00078529        0.00141812        0.00059512
     228          0.092342        0.000000        0.00006743        0.00066245        0.00037454        0.00082046
     229          0.095648        0.000000        0.00006206        0.00075291        0.00095356        0.00065807
     230          0.100119        0.000000        0.00009219        0.00093225        0.00090251        0.00066982
     231          0.117525        0.000000        0.00006897        0.00079448        0.00074072        0.00026134
     232          0.119355        0.000000        0.00015978        0.00063955        0.00222384        0.00116011
     233          0.147525        0.000000        0.00000531        0.00012398        0.00007325        0.00006727
     234          0.160838        0.000000        0.00001882        0.00034524        0.00035955        0.00014262
     235          0.185098        0.000000        0.00000252        0.00007273        0.00003047        0.00003184
     236          0.223379        0.000000        0.00000267        0.00009726        0.00028039        0.00012762
     237          0.267823        0.000000        0.00000481        0.00017042        0.00015795        0.00008112
     238          0.279117        0.000000        0.00043068        0.00445619        0.00014296        0.00199971
     239          0.281922        0.000000        0.00036620        0.00221814        0.00260093        0.00318484
     240          0.282576        0.000000        0.00011457        0.00244859        0.00010149        0.00084220
     241          0.285382        0.000000        0.00015168        0.00120663        0.00077415        0.00159762
     242          0.286510        0.000000        0.00071580        0.00448192        0.00675739        0.00397057
     243          0.296037        0.000000        0.00007546        0.00168390        0.00023296        0.00092906
     244          0.300864        0.000000        0.00115036        0.00574867        0.00712884        0.00566061
     245          0.307711        0.000000        0.00096722        0.00619860        0.00517893        0.00437463
     246          0.311287        0.000000        0.00094246        0.01302954        0.00153457        0.00172332
     247          0.311699        0.000000        0.00039130        0.00688264        0.00014473        0.00321229
     248          0.313480        0.000000        0.00069269        0.00025093        0.01135370        0.00098439
     249          0.317309        0.000000        0.00052369        0.00284854        0.00102207        0.00386587
     250          0.324219        0.000000        0.00035072        0.00858348        0.00208276        0.00222112
     251          0.332777        0.000000        0.00066694        0.00461674        0.00620950        0.00412639
     252          0.349383        0.000000        0.00140791        0.00946788        0.00643905        0.00663844
     253          0.356116        0.000000        0.00115513        0.00378899        0.01195669        0.00390507
     254          0.441377        0.000000        0.00001295        0.00038791        0.00013672        0.00032103
     255          0.441563        0.000000        0.00000849        0.00031338        0.00028211        0.00006639
     256          0.454158        0.000000        0.00000509        0.00005698        0.00005132        0.00006675
     257          0.455042        0.000000        0.00002247        0.00021422        0.00018307        0.00053181
     258          0.455098        0.000000        0.00002507        0.00015350        0.00002305        0.00014582
     259          0.455828        0.000000        0.00002297        0.00036188        0.00023523        0.00035574