# Projected DOS for atomic kind N at iteration step i = 0, E(Fermi) =    -0.182486 a.u.
#     MO Eigenvalue [a.u.]      Occupation                 s                py                pz                px
       1         -0.987721        1.000000        0.62408542        0.00001444        0.00007826        0.00026622
       2         -0.960569        1.000000        0.62174663        0.00014507        0.00009598        0.00075701
       3         -0.956186        1.000000        0.61377171        0.00000024        0.00000186        0.00021504
       4         -0.955671        1.000000        0.61885841        0.00025676        0.00024728        0.00046755
       5         -0.947997        1.000000        0.61380932        0.00000393        0.00008003        0.00019345
       6         -0.932758        1.000000        0.60886889        0.00003602        0.00001018        0.00002862
       7         -0.927531        1.000000        0.61064846        0.00000001        0.00005589        0.00014767
       8         -0.718638        1.000000        0.01340239        0.00165102        0.00062438        0.22660167
       9         -0.698446        1.000000        0.01583019        0.00550764        0.04985450        0.14652501
      10         -0.698378        1.000000        0.01670311        0.01376079        0.08611875        0.10719577
      11         -0.697019        1.000000        0.01999918        0.00002002        0.11790364        0.08412958
      12         -0.689643        1.000000        0.01519858        0.00000111        0.00279211        0.20116109
      13         -0.678775        1.000000        0.01707607        0.00641478        0.00022983        0.18866276
      14         -0.674514        1.000000        0.01648526        0.00000086        0.01157022        0.17977711
      15         -0.619489        1.000000        0.00072888        0.02527963        0.00766508        0.00130983
      16         -0.614098        1.000000        0.00027009        0.06150626        0.55297261        0.00005469
      17         -0.608178        1.000000        0.00074269        0.05267200        0.00483451        0.00344043
      18         -0.602712        1.000000        0.00065506        0.01877072        0.03132162        0.00785986
      19         -0.599157        1.000000        0.00091085        0.03152918        0.00534689        0.00141951
      20         -0.598407        1.000000        0.00009299        0.47928979        0.05828968        0.00123329
      21         -0.597361        1.000000        0.00037919        0.08276680        0.06919350        0.00490786
      22         -0.594300        1.000000        0.00087740        0.10717352        0.02952050        0.00276073
      23         -0.593835        1.000000        0.00036716        0.09067006        0.02939161        0.00861713
      24         -0.591932        1.000000        0.00024610        0.25640861        0.05962129        0.01158538
      25         -0.590143        1.000000        0.00037292        0.06233382        0.04840939        0.01461326
      26         -0.586821        1.000000        0.00020527        0.04774466        0.01928174        0.00800952
      27         -0.586429        1.000000        0.00003835        0.00808427        0.00718404        0.00259181
      28         -0.585625        1.000000        0.00012358        0.08971063        0.02105970        0.03694258
      29         -0.584213        1.000000        0.00022494        0.17664733        0.07260562        0.08561627
      30         -0.583014        1.000000        0.00009553        0.02540681        0.01296448        0.00170084
      31         -0.582437        1.000000        0.00026880        0.01127343        0.00911881        0.00146147
      32         -0.578796        1.000000        0.00023566        0.15324686        0.04436054        0.01316300
      33         -0.577891        1.000000        0.00011306        0.07439952        0.00254663        0.00389714
      34         -0.576954        1.000000        0.00067841        0.02550795        0.03055627        0.04160619
      35         -0.576443        1.000000        0.00066503        0.03022968        0.02187586        0.03696449
      36         -0.574910        1.000000        0.00012963        0.01286329        0.08477145        0.01596940
      37         -0.574219        1.000000        0.00019649        0.10312936        0.06244394        0.01487409
      38         -0.574014        1.000000        0.00013471        0.12062334        0.07031875        0.01442175
      39         -0.572511        1.000000        0.00107607        0.11310289        0.09916882        0.09066963
      40         -0.571808        1.000000        0.00052727        0.05172481        0.11242832        0.03966015
      41         -0.571419        1.000000        0.00013551        0.01036605        0.00641040        0.00161237
      42         -0.570263        1.000000        0.00040615        0.13555237        0.07447412        0.00880985
      43         -0.569785        1.000000        0.00006847        0.02165987        0.01035826        0.00260940
      44         -0.568971        1.000000        0.00025983        0.00595674        0.10741884        0.02393964
      45         -0.568006        1.000000        0.00012358        0.05243538        0.03541595        0.00585748
      46         -0.567900        1.000000        0.00000253        0.00029052        0.00079899        0.00030867
      47         -0.567098        1.000000        0.00044867        0.00856693        0.13755969        0.17393106
      48         -0.564455        1.000000        0.00001721        0.00038504        0.00258035        0.00170434
      49         -0.563603        1.000000        0.00044550        0.03951573        0.20322709        0.00717350
      50         -0.563280        1.000000        0.00012901        0.01967622        0.01542542        0.00602801
      51         -0.562788        1.000000        0.00201093        0.25833948        0.14132856        0.11908127
      52         -0.561918        1.000000        0.00001117        0.00332756        0.00280023        0.00428745
      53         -0.560927        1.000000        0.00000637        0.00497108        0.01273454        0.01045287
      54         -0.560253        1.000000        0.00001226        0.00204067        0.00203296        0.00013339
      55         -0.558589        1.000000        0.00076061        0.08557762        0.02131385        0.00169434
      56         -0.557930        1.000000        0.00012794        0.05251488        0.05353334        0.00676021
      57         -0.556833        1.000000        0.00000069        0.00293436        0.00047340        0.00019836
      58         -0.554886        1.000000        0.00002891        0.17724368        0.11547973        0.00186854
      59         -0.553553        1.000000        0.00000077        0.35784483        0.11149186        0.01737223
      60         -0.553468        1.000000        0.00004127        0.00295962        0.00101678        0.00178641
      61         -0.550083        1.000000        0.00000005        0.00000316        0.00034671        0.00039234
      62         -0.546346        1.000000        0.00006547        0.11166500        0.42386398        0.00433496
      63         -0.544200        1.000000        0.00000724        0.40079870        0.03200548        0.00116032
      64         -0.538065        1.000000        0.00037746        0.06244918        0.34818947        0.02460623
      65         -0.506598        1.000000        0.01001235        0.00013750        0.00043317        0.41711957
      66         -0.483529        1.000000        0.00735437        0.04965361        0.27620680        0.10582974
      67         -0.481246        1.000000        0.00639938        0.00434679        0.21154914        0.22042052
      68         -0.479009        1.000000        0.00969735        0.00001219        0.04813276        0.38610677
      69         -0.470445        1.000000        0.01004753        0.00028583        0.00751361        0.41349972
      70         -0.466825        1.000000        0.00013792        0.00042056        0.00175148        0.00261161
      71         -0.463408        1.000000        0.00010029        0.00006086        0.00005738        0.00404722
      72         -0.459995        1.000000        0.00006689        0.00049557        0.00020495        0.00231478
      73         -0.459081        1.000000        0.00780045        0.01886248        0.00039975        0.35550314
      74         -0.458431        1.000000        0.00021621        0.00038631        0.00076457        0.01600862
      75         -0.456987        1.000000        0.00171667        0.00228579        0.00219146        0.07676915
      76         -0.454622        1.000000        0.00540921        0.00046417        0.01767010        0.25365232
      77         -0.452283        1.000000        0.00231611        0.00015153        0.00679633        0.10677097
      78         -0.449251        1.000000        0.00005297        0.00005272        0.00011015        0.00591375
      79         -0.447696        1.000000        0.00003382        0.00019605        0.00050163        0.00602167
      80         -0.427897        1.000000        0.00000514        0.00564459        0.02235188        0.00004137
      81         -0.425390        1.000000        0.00000427        0.02832171        0.00696478        0.00055834
      82         -0.415602        1.000000        0.00000103        0.02956832        0.00810288        0.00135386
      83         -0.413112        1.000000        0.00000240        0.00916489        0.02357090        0.00371556
      84         -0.412212        1.000000        0.00003749        0.03569623        0.00058137        0.00121978
      85         -0.411593        1.000000        0.00002430        0.01449660        0.01412423        0.00748027
      86         -0.410413        1.000000        0.00013304        0.01316346        0.00309220        0.02174656
      87         -0.409676        1.000000        0.00012296        0.00502049        0.01985882        0.02081708
      88         -0.406049        1.000000        0.00000646        0.00327037        0.03578524        0.00077120
      89         -0.402900        1.000000        0.00000307        0.03351258        0.00168476        0.00003832
      90         -0.395721        1.000000        0.00000137        0.01885990        0.01748403        0.00028498
      91         -0.393358        1.000000        0.00001811        0.01680258        0.02234900        0.00022141
      92         -0.391961        1.000000        0.00000375        0.03938768        0.00123695        0.00004678
      93         -0.389969        1.000000        0.00000777        0.00077241        0.03489394        0.00308137
      94         -0.288279        1.000000        0.00046822        0.00159096        0.00021307        0.00023181
      95         -0.283236        1.000000        0.00022642        0.00048440        0.00002044        0.00011886
      96         -0.278295        1.000000        0.00016423        0.00130272        0.00040847        0.00018577
      97         -0.273520        1.000000        0.00025686        0.00132632        0.00046990        0.00004846
      98         -0.271390        1.000000        0.00012403        0.00175010        0.00037890        0.00011365
      99         -0.269858        1.000000        0.00003094        0.00018711        0.00043332        0.00008861
     100         -0.268653        1.000000        0.00015703        0.00048119        0.00065549        0.00007457
     101         -0.268258        1.000000        0.00025843        0.00095211        0.00012195        0.00012721
     102         -0.266536        1.000000        0.00037088        0.00048473        0.00070194        0.00010501
     103         -0.265756        1.000000        0.00020187        0.00015406        0.00012479        0.00012263
     104         -0.264661        1.000000        0.00011356        0.00018368        0.00021351        0.00019209
     105         -0.262396        1.000000        0.00092154        0.00020544        0.00109258        0.00048194
     106         -0.260668        1.000000        0.00031456        0.00041407        0.00054808        0.00034850
     107         -0.259660        1.000000        0.00023966        0.00045567        0.00046645        0.00009525
     108         -0.253817        1.000000        0.00075860        0.00076258        0.00049666        0.00067604
     109         -0.250539        1.000000        0.00323697        0.00021050        0.00197571        0.00233966
     110         -0.247650        1.000000        0.00234268        0.00134311        0.00136967        0.00197603
     111         -0.245943        1.000000        0.00098413        0.00021092        0.00093764        0.00023029
     112         -0.244313        1.000000        0.00096150        0.00264736        0.00067683        0.00058309
     113         -0.243568        1.000000        0.00131133        0.00261146        0.00059187        0.00066213
     114         -0.241243        1.000000        0.00116563        0.00465838        0.00039409        0.00065119
     115         -0.239535        1.000000        0.00189729        0.00361292        0.00036136        0.00108279
     116         -0.238161        1.000000        0.00027547        0.00113233        0.00057722        0.00021664
     117         -0.236824        1.000000        0.00059687        0.00058153        0.00016230        0.00075851
     118         -0.235620        1.000000        0.00096439        0.00267561        0.00162091        0.00053458
     119         -0.233737        1.000000        0.00082536        0.00331361        0.00146183        0.00060427
     120         -0.231607        1.000000        0.00261727        0.00328677        0.00430081        0.00128544
     121         -0.230700        1.000000        0.00158970        0.00205774        0.00130757        0.00160733
     122         -0.228632        1.000000        0.00136077        0.00087583        0.00294363        0.00120400
     123         -0.227880        1.000000        0.00071476        0.00143072        0.00235746        0.00089301
     124         -0.226254        1.000000        0.00054198        0.00019959        0.00837840        0.00024804
     125         -0.224850        1.000000        0.00121331        0.00091457        0.00181623        0.00070104
     126         -0.224439        1.000000        0.00095511        0.00276685        0.00065069        0.00056138
     127         -0.221893        1.000000        0.00026154        0.00055556        0.00576339        0.00015494
     128         -0.220018        1.000000        0.00075365        0.00239246        0.00052667        0.00047034
     129         -0.218615        1.000000        0.00036164        0.00212682        0.00053344        0.00038333
     130         -0.217824        1.000000        0.00084554        0.00520076        0.00119546        0.00081986
     131         -0.216719        1.000000        0.00078280        0.00170074        0.00093927        0.00062194
     132         -0.216092        1.000000        0.00022244        0.00045776        0.00010106        0.00031898
     133         -0.214694        1.000000        0.00040328        0.00058459        0.00017107        0.00005948
     134         -0.213076        1.000000        0.00034853        0.00033340        0.00085184        0.00015699
     135         -0.212298        1.000000        0.00015551        0.00108361        0.00042275        0.00030156
     136         -0.211056        1.000000        0.00052449        0.00112921        0.00057909        0.00042708
     137         -0.210454        1.000000        0.00031538        0.00118616        0.00112996        0.00028308
     138         -0.209302        1.000000        0.00057954        0.00117612        0.00048338        0.00022503
     139         -0.208359        1.000000        0.00006584        0.00010861        0.00016665        0.00009927
     140         -0.206949        1.000000        0.00030184        0.00063688        0.00152531        0.00009252
     141         -0.206064        1.000000        0.00007618        0.00038347        0.00023224        0.00015381
     142         -0.204606        1.000000        0.00097506        0.00162167        0.00129472        0.00097677
     143         -0.204007        1.000000        0.00036863        0.00063489        0.00037475        0.00021590
     144         -0.203239        1.000000        0.00035682        0.00133194        0.00049287        0.00049147
     145         -0.202577        1.000000        0.00059972        0.00060700        0.00061946        0.00026842
     146         -0.201742        1.000000        0.00013733        0.00048596        0.00052938        0.00019188
     147         -0.201061        1.000000        0.00015642        0.00040545        0.00107648        0.00002808
     148         -0.199806        1.000000        0.00100806        0.00515786        0.00154291        0.00060626
     149         -0.199696        1.000000        0.00011601        0.00090491        0.00110473        0.00012297
     150         -0.199118        1.000000        0.00064947        0.00039660        0.00272906        0.00011795
     151         -0.198970        1.000000        0.00044303        0.00053016        0.00168515        0.00010232
     152         -0.198295        1.000000        0.00017890        0.00057330        0.00034491        0.00025538
     153         -0.197692        1.000000        0.00039132        0.00051642        0.00105440        0.00007192
     154         -0.197591        1.000000        0.00025691        0.00021312        0.00081630        0.00008090
     155         -0.197198        1.000000        0.00034101        0.00098072        0.00111964        0.00005268
     156         -0.196672        1.000000        0.00007596        0.00023631        0.00039153        0.00003107
     157         -0.195398        1.000000        0.00003998        0.00010291        0.00026526        0.00006359
     158         -0.195050        1.000000        0.00010331        0.00020049        0.00042205        0.00007977
     159         -0.194599        1.000000        0.00012504        0.00057994        0.00016839        0.00018934
     160         -0.194581        1.000000        0.00005008        0.00067862        0.00012476        0.00014691
     161         -0.193949        1.000000        0.00037247        0.00030661        0.00045212        0.00013819
     162         -0.193074        1.000000        0.00019424        0.00036228        0.00035486        0.00005137
     163         -0.192708        1.000000        0.00113709        0.00104054        0.00238488        0.00020043
     164         -0.192342        1.000000        0.00089411        0.00094420        0.00183189        0.00036441
     165         -0.191875        1.000000        0.00013499        0.00018136        0.00013845        0.00013916
     166         -0.191020        1.000000        0.00013918        0.00032945        0.00024674        0.00009745
     167         -0.190882        1.000000        0.00013655        0.00019437        0.00011742        0.00010799
     168         -0.190742        1.000000        0.00011041        0.00046547        0.00020888        0.00007262
     169         -0.190502        1.000000        0.00016160        0.00020974        0.00029736        0.00010830
     170         -0.189449        1.000000        0.00007456        0.00043761        0.00061066        0.00013770
     171         -0.189346        1.000000        0.00009654        0.00013602        0.00059572        0.00012623
     172         -0.188657        1.000000        0.00017760        0.00119639        0.00436570        0.00036697
     173         -0.188441        1.000000        0.00018349        0.00062865        0.00083313        0.00023157
     174         -0.188191        1.000000        0.00006334        0.00019580        0.00010129        0.00004814
     175         -0.188045        1.000000        0.00002246        0.00003553        0.00030231        0.00001867
     176         -0.187687        1.000000        0.00003105        0.00003739        0.00003008        0.00002861
     177         -0.187354        1.000000        0.00003267        0.00008266        0.00013578        0.00005812
     178         -0.187103        1.000000        0.00006779        0.00037833        0.00178383        0.00032685
     179         -0.186652        1.000000        0.00012334        0.00010292        0.00007577        0.00006541
     180         -0.186309        1.000000        0.00007175        0.00021886        0.00032073        0.00012551
     181         -0.186163        1.000000        0.00003461        0.00030156        0.00002475        0.00002412
     182         -0.185798        1.000000        0.00014737        0.00020170        0.00010418        0.00008694
     183         -0.185386        1.000000        0.00014450        0.00021283        0.00011998        0.00014038
     184         -0.185112        1.000000        0.00008729        0.00034093        0.00007860        0.00011745
     185         -0.184829        1.000000        0.00007550        0.00021119        0.00004669        0.00007724
     186         -0.184684        1.000000        0.00008172        0.00037368        0.00007686        0.00001506
     187         -0.184404        1.000000        0.00007085        0.00006567        0.00003864        0.00010967
     188         -0.184340        1.000000        0.00005232        0.00005897        0.00006474        0.00002509
     189         -0.184089        1.000000        0.00003862        0.00010417        0.00014252        0.00002474
     190         -0.183652        1.000000        0.00003225        0.00041720        0.00008022        0.00002067
     191         -0.183481        1.000000        0.00004271        0.00019123        0.00005127        0.00006588
     192         -0.183182        1.000000        0.00001807        0.00018575        0.00006664        0.00003344
     193         -0.182763        1.000000        0.00004246        0.00018131        0.00004966        0.00002781
     194         -0.182539        1.000000        0.00002479        0.00002076        0.00003150        0.00001503
     195         -0.182486        1.000000        0.00000931        0.00000655        0.00006271        0.00001728
     196         -0.182260        0.000000        0.00003778        0.00017075        0.00022857        0.00001445
     197         -0.182129        0.000000        0.00002217        0.00008392        0.00003713        0.00002967
     198         -0.181963        0.000000        0.00008490        0.00019705        0.00004478        0.00008129
     199         -0.181682        0.000000        0.00003162        0.00011989        0.00003779        0.00001574
     200         -0.180154        0.000000        0.00001970        0.00004711        0.00005989        0.00001839
     201         -0.178693        0.000000        0.00001377        0.00001438        0.00000264        0.00001509
     202         -0.075231        0.000000        0.00008924        0.00005319        0.00003886        0.00003433
     203         -0.070678        0.000000        0.00002649        0.00003740        0.00001124        0.00004461
     204         -0.066541        0.000000        0.00006257        0.00004237        0.00001683        0.00002559
     205         -0.065095        0.000000        0.00002846        0.00004615        0.00000993        0.00001931
     206         -0.063135        0.000000        0.00001513        0.00000655        0.00001983        0.00003002
     207         -0.059626        0.000000        0.00004344        0.00003842        0.00003128        0.00003147
     208         -0.058770        0.000000        0.00004252        0.00007174        0.00010085        0.00001098
     209         -0.056658        0.000000        0.00010438        0.00004869        0.00002749        0.00000795
     210         -0.053899        0.000000        0.00003098        0.00000571        0.00008164        0.00001223
     211         -0.049162        0.000000        0.00010600        0.00011216        0.00004030        0.00005512
     212         -0.048083        0.000000        0.00004330        0.00006990        0.00011867        0.00002022
     213         -0.042721        0.000000        0.00004468        0.00005726        0.00004757        0.00003383
     214         -0.041513        0.000000        0.00001089        0.00003943        0.00001138        0.00000968
     215         -0.039912        0.000000        0.00014660        0.00009718        0.00002361        0.00008208
     216         -0.039001        0.000000        0.00005583        0.00006553        0.00009441        0.00002194
     217         -0.032875        0.000000        0.00019989        0.00004111        0.00006981        0.00002021
     218         -0.029848        0.000000        0.00002954        0.00027188        0.00020052        0.00000630
     219         -0.028006        0.000000        0.00003009        0.00002964        0.00005627        0.00004689
     220         -0.026888        0.000000        0.00003057        0.00015769        0.00006090        0.00000946
     221         -0.026243        0.000000        0.00009722        0.00002838        0.00005054        0.00002026
     222         -0.023514        0.000000        0.00007403        0.00007884        0.00003750        0.00001472
     223         -0.018649        0.000000        0.00001749        0.00010981        0.00012356        0.00000791
     224         -0.014977        0.000000        0.00002573        0.00001941        0.00001069        0.00000140
     225         -0.006006        0.000000        0.00001475        0.00013357        0.00000974        0.00004124
     226          0.075976        0.000000        0.11843746        0.00018490        0.00025863        0.23302950
     227          0.090681        0.000000        0.10308309        0.00003888        0.02892837        0.22746991
     228          0.092342        0.000000        0.12659946        0.01969832        0.10228058        0.10650049
     229          0.095648        0.000000        0.12055785        0.00067731        0.14980818        0.08797727
     230          0.100119        0.000000        0.10701277        0.00035622        0.00469479        0.24799498
     231          0.117525        0.000000        0.10096191        0.01383923        0.00020408        0.25172832
     232          0.119355        0.000000        0.10379015        0.00010659        0.01559650        0.24412931
     233          0.147525        0.000000        0.03946059        0.03068786        0.19423451        0.07067908
     234          0.160838        0.000000        0.03604925        0.13935374        0.00591618        0.15119688
     235          0.185098        0.000000        0.02964879        0.19653015        0.09728249        0.01119407
     236          0.223379        0.000000        0.06699497        0.12992559        0.09909805        0.04083237
     237          0.267823        0.000000        0.13393305        0.00387190        0.13960126        0.06619924
     238          0.279117        0.000000        0.00057235        0.29084517        0.02936505        0.00374675
     239          0.281922        0.000000        0.00052452        0.02336339        0.26208265        0.03555605
     240          0.282576        0.000000        0.00803429        0.25998018        0.05063066        0.01069072
     241          0.285382        0.000000        0.00688266        0.20029216        0.10913329        0.01430998
     242          0.286510        0.000000        0.00129717        0.12281081        0.18674305        0.00136959
     243          0.296037        0.000000        0.01246949        0.10699819        0.11987768        0.08600592
     244          0.300864        0.000000        0.00150017        0.02497425        0.28303946        0.00253839
     245          0.307711        0.000000        0.00046131        0.29459036        0.01837667        0.00177426
     246          0.311287        0.000000        0.00905048        0.27444029        0.02785605        0.00637484
     247          0.311699        0.000000        0.16721862        0.01895987        0.00124089        0.14975823
     248          0.313480        0.000000        0.00232922        0.02386740        0.26739216        0.02280376
     249          0.317309        0.000000        0.18333275        0.06731507        0.06482652        0.02340047
     250          0.324219        0.000000        0.23464525        0.01231657        0.01759738        0.08179856
     251          0.332777        0.000000        0.23451730        0.00732095        0.00746748        0.09635344
     252          0.349383        0.000000        0.23445812        0.00013012        0.00474582        0.10162331
     253          0.356116        0.000000        0.24106754        0.00012418        0.01035766        0.09324020
     254          0.441377        0.000000        0.00013093        0.01616000        0.00045416        0.00004946
     255          0.441563        0.000000        0.00013706        0.00000678        0.01841002        0.00012713
     256          0.454158        0.000000        0.00026597        0.00109150        0.01128334        0.01009061
     257          0.455042        0.000000        0.00063081        0.00385658        0.00085419        0.01221712
     258          0.455098        0.000000        0.00049147        0.02163887        0.00026578        0.00084915
     259          0.455828        0.000000        0.00002838        0.00004608        0.02080653        0.00271332