# Projected DOS for atomic kind C at iteration step i = 0, E(Fermi) =    -0.181961 a.u.
#     MO Eigenvalue [a.u.]      Occupation                 s                py                pz                px
       1         -0.987536        1.000000        0.05766701        0.00011508        0.00000000        0.04536619
       2         -0.960373        1.000000        0.06179552        0.00488612        0.02745408        0.01397772
       3         -0.956015        1.000000        0.05889877        0.00000009        0.00544238        0.03798268
       4         -0.955479        1.000000        0.06499397        0.00021305        0.02490700        0.02202940
       5         -0.947822        1.000000        0.05966978        0.00000278        0.00064369        0.04343482
       6         -0.932551        1.000000        0.06315928        0.00202371        0.00000004        0.04305168
       7         -0.927341        1.000000        0.06154110        0.00000313        0.00280289        0.04130724
       8         -0.718448        1.000000        0.42931276        0.00002471        0.00006877        0.00016179
       9         -0.698272        1.000000        0.43837801        0.00003044        0.00011003        0.00088717
      10         -0.698176        1.000000        0.43288679        0.00008505        0.00029935        0.00050345
      11         -0.696811        1.000000        0.43232106        0.00002991        0.00086364        0.00061636
      12         -0.689468        1.000000        0.43811106        0.00000024        0.00005463        0.00060066
      13         -0.678564        1.000000        0.43575354        0.00000182        0.00001764        0.00154496
      14         -0.674314        1.000000        0.43806620        0.00000289        0.00007241        0.00149000
      15         -0.619367        1.000000        0.00002274        0.00236629        0.00077426        0.00030431
      16         -0.613893        1.000000        0.00020378        0.00487820        0.04629299        0.00005809
      17         -0.607739        1.000000        0.00029581        0.00666914        0.00058254        0.00018108
      18         -0.602297        1.000000        0.00066354        0.00104534        0.00377790        0.00102001
      19         -0.598833        1.000000        0.00080218        0.00437623        0.00055202        0.00078954
      20         -0.598203        1.000000        0.00096077        0.04734944        0.00665539        0.00185663
      21         -0.597075        1.000000        0.00046393        0.00722061        0.00684066        0.00158965
      22         -0.594011        1.000000        0.00076520        0.00974769        0.00373809        0.00058167
      23         -0.593306        1.000000        0.00040454        0.00737944        0.00329729        0.00108811
      24         -0.591638        1.000000        0.00052368        0.02222250        0.00377755        0.00165023
      25         -0.589939        1.000000        0.00022931        0.00536804        0.00379824        0.00181600
      26         -0.586484        1.000000        0.00020780        0.00410174        0.00200805        0.00105951
      27         -0.585736        1.000000        0.00016989        0.00600547        0.00196903        0.00157913
      28         -0.585265        1.000000        0.00008841        0.00624056        0.00219590        0.00177843
      29         -0.583990        1.000000        0.00014447        0.01578220        0.00513503        0.00926736
      30         -0.582723        1.000000        0.00051661        0.00199751        0.00101558        0.00034548
      31         -0.581768        1.000000        0.00018292        0.00062728        0.00063144        0.00014512
      32         -0.578581        1.000000        0.00008364        0.01669376        0.00486513        0.00098688
      33         -0.576962        1.000000        0.00019552        0.00611428        0.00204628        0.00220898
      34         -0.576296        1.000000        0.00024671        0.00339870        0.00422636        0.00265597
      35         -0.575902        1.000000        0.00052215        0.00216222        0.00253407        0.00379002
      36         -0.574291        1.000000        0.00015893        0.00889748        0.01756689        0.00289230
      37         -0.573618        1.000000        0.00011063        0.01407830        0.00214230        0.00102822
      38         -0.573223        1.000000        0.00007393        0.00238388        0.00038266        0.00016954
      39         -0.572233        1.000000        0.00047017        0.01321548        0.01063820        0.00749148
      40         -0.571461        1.000000        0.00059886        0.00449476        0.01040468        0.00485361
      41         -0.571063        1.000000        0.00011104        0.00077126        0.00046841        0.00020953
      42         -0.569801        1.000000        0.00029229        0.01646675        0.00925397        0.00140987
      43         -0.569221        1.000000        0.00003913        0.00027977        0.00126189        0.00023820
      44         -0.569080        1.000000        0.00017944        0.00137124        0.01447733        0.00186232
      45         -0.567234        1.000000        0.00019249        0.00280411        0.00154471        0.00083856
      46         -0.566654        1.000000        0.00013146        0.00073102        0.01864602        0.01857019
      47         -0.565886        1.000000        0.00008359        0.00004025        0.00026370        0.00025406
      48         -0.563341        1.000000        0.00012179        0.00412035        0.02105796        0.00038600
      49         -0.563232        1.000000        0.00006394        0.00032580        0.00144214        0.00005272
      50         -0.562587        1.000000        0.00051593        0.03236497        0.01196670        0.02154091
      51         -0.562200        1.000000        0.00007478        0.00367247        0.00159091        0.00150690
      52         -0.561957        1.000000        0.00003331        0.00056511        0.00057447        0.00050075
      53         -0.559747        1.000000        0.00000907        0.00064488        0.00051232        0.00012039
      54         -0.559579        1.000000        0.00000685        0.00088592        0.00114704        0.00100363
      55         -0.558453        1.000000        0.00022276        0.00801820        0.00207586        0.00001858
      56         -0.557181        1.000000        0.00002158        0.00878623        0.00801093        0.00085577
      57         -0.555442        1.000000        0.00000463        0.00088679        0.00020725        0.00002928
      58         -0.554594        1.000000        0.00008109        0.01847711        0.01155270        0.00057647
      59         -0.553291        1.000000        0.00028516        0.04022403        0.01278494        0.00091953
      60         -0.551914        1.000000        0.00012444        0.00000909        0.00039549        0.00000138
      61         -0.549270        1.000000        0.00000201        0.00000337        0.00001505        0.00003270
      62         -0.546079        1.000000        0.00004795        0.01279125        0.05132209        0.00122914
      63         -0.544046        1.000000        0.00000873        0.04671268        0.00322084        0.00039329
      64         -0.537795        1.000000        0.00005463        0.00810626        0.04308433        0.00214526
      65         -0.506421        1.000000        0.03594726        0.00336587        0.00040012        0.33208100
      66         -0.483330        1.000000        0.02886656        0.03818366        0.19192375        0.10460043
      67         -0.481047        1.000000        0.02599255        0.00080472        0.17763398        0.15947101
      68         -0.478849        1.000000        0.02582670        0.00006249        0.04560781        0.29572636
      69         -0.470282        1.000000        0.02809727        0.00001015        0.00684954        0.32876737
      70         -0.466227        1.000000        0.00030907        0.00009432        0.00121824        0.00247490
      71         -0.463229        1.000000        0.00017810        0.00044044        0.00013348        0.00309846
      72         -0.459913        1.000000        0.00007343        0.00043227        0.00052259        0.00144849
      73         -0.458880        1.000000        0.02009459        0.00702364        0.00014884        0.28728380
      74         -0.458393        1.000000        0.00099679        0.00051439        0.00039014        0.01539314
      75         -0.456873        1.000000        0.00437512        0.00106783        0.00216795        0.06156171
      76         -0.454449        1.000000        0.01407604        0.00006518        0.01463611        0.20511759
      77         -0.452033        1.000000        0.00609871        0.00053188        0.00722485        0.07922878
      78         -0.449067        1.000000        0.00026145        0.00044414        0.00021185        0.00380814
      79         -0.447521        1.000000        0.00040774        0.00057623        0.00026742        0.00511501
      80         -0.427723        1.000000        0.00001360        0.10927838        0.43878947        0.00038772
      81         -0.425199        1.000000        0.00000575        0.42735961        0.10783345        0.00307329
      82         -0.415446        1.000000        0.00003632        0.39424917        0.11619345        0.01581644
      83         -0.412950        1.000000        0.00000572        0.13593601        0.34362442        0.05263884
      84         -0.412008        1.000000        0.00000421        0.49209986        0.01441399        0.02937483
      85         -0.411383        1.000000        0.00000182        0.26512402        0.18525890        0.08632946
      86         -0.410208        1.000000        0.00003402        0.21549633        0.02874976        0.28880695
      87         -0.409468        1.000000        0.00001199        0.03229452        0.25272932        0.24416209
      88         -0.405868        1.000000        0.00003217        0.03229135        0.48819668        0.00984080
      89         -0.402719        1.000000        0.00000460        0.50536726        0.03335295        0.00090754
      90         -0.395516        1.000000        0.00005145        0.28438420        0.23930236        0.00802449
      91         -0.393154        1.000000        0.00005646        0.23597761        0.28501671        0.00778816
      92         -0.391747        1.000000        0.00001390        0.51197659        0.01283787        0.00117437
      93         -0.389788        1.000000        0.00000136        0.01028544        0.48034993        0.03588981
      94         -0.287600        1.000000        0.00002084        0.00005450        0.00013644        0.00016982
      95         -0.283344        1.000000        0.00002265        0.00005101        0.00019069        0.00013220
      96         -0.278178        1.000000        0.00011855        0.00121399        0.00044309        0.00010161
      97         -0.273297        1.000000        0.00006762        0.00051669        0.00034931        0.00002964
      98         -0.271229        1.000000        0.00002913        0.00033316        0.00024343        0.00003889
      99         -0.269531        1.000000        0.00009502        0.00052521        0.00003026        0.00014290
     100         -0.268301        1.000000        0.00013144        0.00043403        0.00021735        0.00013808
     101         -0.268059        1.000000        0.00006949        0.00011914        0.00003911        0.00010341
     102         -0.266169        1.000000        0.00008789        0.00011980        0.00020066        0.00010252
     103         -0.264977        1.000000        0.00009652        0.00053185        0.00037566        0.00026705
     104         -0.263655        1.000000        0.00015998        0.00011051        0.00018936        0.00007257
     105         -0.261992        1.000000        0.00009203        0.00011829        0.00017199        0.00035584
     106         -0.260340        1.000000        0.00028681        0.00020098        0.00042367        0.00026649
     107         -0.259130        1.000000        0.00008119        0.00070891        0.00011524        0.00003155
     108         -0.253175        1.000000        0.00023304        0.00043538        0.00028539        0.00064598
     109         -0.250121        1.000000        0.00046476        0.00077325        0.00014994        0.00138603
     110         -0.247267        1.000000        0.00063339        0.00028325        0.00029571        0.00148776
     111         -0.245672        1.000000        0.00019374        0.00036662        0.00052511        0.00086365
     112         -0.243765        1.000000        0.00013220        0.00023586        0.00015535        0.00018662
     113         -0.242330        1.000000        0.00043822        0.00067848        0.00046687        0.00056447
     114         -0.240886        1.000000        0.00035296        0.00076092        0.00019085        0.00075045
     115         -0.239229        1.000000        0.00019256        0.00070350        0.00057921        0.00062187
     116         -0.237952        1.000000        0.00003086        0.00009923        0.00042161        0.00019350
     117         -0.236516        1.000000        0.00024688        0.00059476        0.00033782        0.00049106
     118         -0.235191        1.000000        0.00022584        0.00061384        0.00066029        0.00047916
     119         -0.233323        1.000000        0.00021187        0.00141301        0.00023734        0.00027738
     120         -0.231280        1.000000        0.00007367        0.00023067        0.00033456        0.00109346
     121         -0.230379        1.000000        0.00033806        0.00027572        0.00007261        0.00071536
     122         -0.228228        1.000000        0.00054511        0.00013982        0.00067811        0.00086669
     123         -0.227603        1.000000        0.00034346        0.00110602        0.00066962        0.00060958
     124         -0.225758        1.000000        0.00075251        0.00073661        0.00031100        0.00027579
     125         -0.224435        1.000000        0.00017090        0.00068079        0.00050247        0.00054251
     126         -0.224037        1.000000        0.00011848        0.00058813        0.00092260        0.00026708
     127         -0.221603        1.000000        0.00017863        0.00023565        0.00082542        0.00071568
     128         -0.219868        1.000000        0.00091925        0.00033885        0.00074086        0.00037271
     129         -0.218406        1.000000        0.00018079        0.00176322        0.00079814        0.00013766
     130         -0.217467        1.000000        0.00024591        0.00052368        0.00029239        0.00033802
     131         -0.216446        1.000000        0.00084204        0.00046105        0.00095384        0.00111784
     132         -0.215820        1.000000        0.00047961        0.00029591        0.00088366        0.00017120
     133         -0.214537        1.000000        0.00015151        0.00035925        0.00007212        0.00033902
     134         -0.212519        1.000000        0.00030120        0.00008178        0.00182200        0.00016670
     135         -0.211916        1.000000        0.00016737        0.00072870        0.00038218        0.00001799
     136         -0.210975        1.000000        0.00039931        0.00077765        0.00042280        0.00068540
     137         -0.210389        1.000000        0.00030307        0.00066697        0.00039648        0.00017672
     138         -0.209067        1.000000        0.00012802        0.00031044        0.00053275        0.00013137
     139         -0.208208        1.000000        0.00010225        0.00030595        0.00027411        0.00012437
     140         -0.206559        1.000000        0.00029347        0.00050916        0.00040689        0.00036875
     141         -0.206052        1.000000        0.00006040        0.00028861        0.00038206        0.00014446
     142         -0.204145        1.000000        0.00017263        0.00009099        0.00028231        0.00037954
     143         -0.203750        1.000000        0.00018640        0.00025502        0.00041223        0.00005294
     144         -0.203071        1.000000        0.00025961        0.00022527        0.00019693        0.00009457
     145         -0.202190        1.000000        0.00016906        0.00005246        0.00016299        0.00011994
     146         -0.201485        1.000000        0.00011295        0.00023901        0.00015834        0.00021119
     147         -0.200576        1.000000        0.00010748        0.00008409        0.00006463        0.00008006
     148         -0.199419        1.000000        0.00035243        0.00060074        0.00023659        0.00019115
     149         -0.199283        1.000000        0.00011048        0.00052046        0.00007567        0.00041209
     150         -0.198636        1.000000        0.00028778        0.00029732        0.00012709        0.00022189
     151         -0.198222        1.000000        0.00011477        0.00028610        0.00065620        0.00013720
     152         -0.197581        1.000000        0.00007259        0.00045033        0.00044177        0.00020843
     153         -0.197325        1.000000        0.00018196        0.00022775        0.00033061        0.00011358
     154         -0.197157        1.000000        0.00010975        0.00019786        0.00024455        0.00021825
     155         -0.196328        1.000000        0.00004939        0.00022102        0.00040279        0.00010720
     156         -0.195476        1.000000        0.00002966        0.00010338        0.00038353        0.00004166
     157         -0.194983        1.000000        0.00005235        0.00031527        0.00025095        0.00007658
     158         -0.194652        1.000000        0.00012646        0.00009669        0.00041302        0.00004203
     159         -0.193732        1.000000        0.00013852        0.00077042        0.00017005        0.00008142
     160         -0.193549        1.000000        0.00009813        0.00013650        0.00033071        0.00007796
     161         -0.192967        1.000000        0.00013331        0.00025227        0.00007616        0.00005188
     162         -0.192146        1.000000        0.00002248        0.00007558        0.00009995        0.00006775
     163         -0.191704        1.000000        0.00002538        0.00023083        0.00034179        0.00014563
     164         -0.191527        1.000000        0.00008554        0.00012077        0.00038538        0.00010748
     165         -0.191295        1.000000        0.00013830        0.00016711        0.00023833        0.00022599
     166         -0.191118        1.000000        0.00024931        0.00003849        0.00030697        0.00009168
     167         -0.190684        1.000000        0.00014411        0.00010219        0.00007601        0.00002468
     168         -0.190317        1.000000        0.00007902        0.00018784        0.00014978        0.00007822
     169         -0.189853        1.000000        0.00005223        0.00014288        0.00015146        0.00006163
     170         -0.189032        1.000000        0.00008091        0.00003253        0.00027189        0.00003600
     171         -0.188749        1.000000        0.00003603        0.00034964        0.00006657        0.00004264
     172         -0.188557        1.000000        0.00006025        0.00004849        0.00004237        0.00004956
     173         -0.187730        1.000000        0.00003537        0.00004750        0.00012873        0.00012666
     174         -0.187331        1.000000        0.00005585        0.00003766        0.00004797        0.00001996
     175         -0.187088        1.000000        0.00002305        0.00004620        0.00017371        0.00003605
     176         -0.186479        1.000000        0.00005632        0.00005415        0.00003862        0.00002796
     177         -0.186237        1.000000        0.00002877        0.00002213        0.00026523        0.00006727
     178         -0.185515        1.000000        0.00009689        0.00041067        0.00016272        0.00006610
     179         -0.185401        1.000000        0.00005113        0.00003981        0.00002043        0.00007524
     180         -0.185092        1.000000        0.00003610        0.00011428        0.00006846        0.00003899
     181         -0.184973        1.000000        0.00003644        0.00010574        0.00005048        0.00003512
     182         -0.184678        1.000000        0.00007774        0.00021653        0.00003658        0.00002335
     183         -0.184482        1.000000        0.00001425        0.00009710        0.00006635        0.00001389
     184         -0.184244        1.000000        0.00002045        0.00009053        0.00015292        0.00002820
     185         -0.184055        1.000000        0.00007546        0.00006233        0.00004151        0.00002807
     186         -0.183456        1.000000        0.00005516        0.00005484        0.00021085        0.00004646
     187         -0.183297        1.000000        0.00004279        0.00009242        0.00005747        0.00005724
     188         -0.183050        1.000000        0.00006453        0.00010547        0.00004733        0.00004683
     189         -0.182845        1.000000        0.00003538        0.00002001        0.00004949        0.00000731
     190         -0.182750        1.000000        0.00002339        0.00005293        0.00005169        0.00005150
     191         -0.182326        1.000000        0.00000877        0.00003318        0.00001798        0.00002672
     192         -0.182179        1.000000        0.00004194        0.00005477        0.00002002        0.00005674
     193         -0.182091        1.000000        0.00003860        0.00004668        0.00002814        0.00008585
     194         -0.181961        1.000000        0.00001751        0.00013897        0.00003338        0.00007544
     195         -0.181909        0.000000        0.00001823        0.00003324        0.00009356        0.00004370
     196         -0.181575        0.000000        0.00002772        0.00014576        0.00007145        0.00002121
     197         -0.181160        0.000000        0.00001690        0.00005099        0.00012787        0.00002077
     198         -0.180955        0.000000        0.00004727        0.00004758        0.00003702        0.00000857
     199         -0.180005        0.000000        0.00001357        0.00001759        0.00000099        0.00021815
     200         -0.179540        0.000000        0.00002910        0.00006052        0.00000985        0.00001520
     201         -0.178370        0.000000        0.00001018        0.00003752        0.00002709        0.00000719
     202         -0.075041        0.000000        0.00002435        0.00006502        0.00003932        0.00006200
     203         -0.070367        0.000000        0.00007029        0.00003469        0.00002242        0.00003271
     204         -0.066392        0.000000        0.00004930        0.00009963        0.00000815        0.00003757
     205         -0.064937        0.000000        0.00000754        0.00000930        0.00000215        0.00000650
     206         -0.062876        0.000000        0.00001022        0.00003743        0.00001078        0.00000800
     207         -0.059463        0.000000        0.00003433        0.00001672        0.00003354        0.00003465
     208         -0.058470        0.000000        0.00001578        0.00002282        0.00001342        0.00000867
     209         -0.056219        0.000000        0.00000543        0.00007186        0.00000736        0.00007622
     210         -0.053639        0.000000        0.00000822        0.00001718        0.00002032        0.00002467
     211         -0.048875        0.000000        0.00017214        0.00015413        0.00010866        0.00002895
     212         -0.047706        0.000000        0.00000905        0.00001025        0.00000691        0.00000800
     213         -0.042607        0.000000        0.00004055        0.00003836        0.00002300        0.00006055
     214         -0.041340        0.000000        0.00002631        0.00005005        0.00002110        0.00001427
     215         -0.039627        0.000000        0.00007509        0.00005309        0.00005132        0.00007044
     216         -0.038823        0.000000        0.00003894        0.00002675        0.00001726        0.00003788
     217         -0.032447        0.000000        0.00000748        0.00002223        0.00004636        0.00008780
     218         -0.029751        0.000000        0.00000621        0.00000907        0.00002745        0.00001166
     219         -0.027819        0.000000        0.00005206        0.00004233        0.00001102        0.00003546
     220         -0.026725        0.000000        0.00002582        0.00001117        0.00001260        0.00003415
     221         -0.026119        0.000000        0.00004491        0.00004364        0.00004402        0.00003267
     222         -0.023410        0.000000        0.00001227        0.00001273        0.00002360        0.00004110
     223         -0.018565        0.000000        0.00001133        0.00000731        0.00002289        0.00001942
     224         -0.014854        0.000000        0.00001434        0.00000595        0.00001056        0.00001248
     225         -0.005810        0.000000        0.00002673        0.00000399        0.00004207        0.00003158
     226          0.076142        0.000000        0.08377350        0.00218783        0.00049043        0.55205036
     227          0.090830        0.000000        0.07810893        0.00015286        0.06869481        0.48624485
     228          0.092528        0.000000        0.08037979        0.05826286        0.31632906        0.16341585
     229          0.095841        0.000000        0.08200343        0.00173578        0.27907578        0.25541248
     230          0.100304        0.000000        0.07781910        0.00000218        0.00922863        0.54577595
     231          0.117719        0.000000        0.08103051        0.02159574        0.00048158        0.52439981
     232          0.119515        0.000000        0.08050777        0.00023006        0.03557456        0.51201556
     233          0.147748        0.000000        0.00516863        0.00166546        0.01047037        0.00320198
     234          0.161028        0.000000        0.00429031        0.00031799        0.00451450        0.00748541
     235          0.185290        0.000000        0.00021600        0.00063539        0.00022461        0.00023827
     236          0.223559        0.000000        0.00237890        0.00157421        0.00087740        0.00203346
     237          0.268018        0.000000        0.00283821        0.00005740        0.00262082        0.00046251
     238          0.279296        0.000000        0.00001001        0.00449239        0.00055768        0.00006696
     239          0.282089        0.000000        0.00001573        0.00056435        0.00553268        0.00031742
     240          0.282764        0.000000        0.00015331        0.00485766        0.00044425        0.00021429
     241          0.285488        0.000000        0.00029455        0.00394508        0.00167951        0.00031829
     242          0.286698        0.000000        0.00003388        0.00186241        0.00401223        0.00000461
     243          0.296241        0.000000        0.00031989        0.00419650        0.00171040        0.00241222
     244          0.301066        0.000000        0.00000258        0.00116577        0.00581804        0.00008204
     245          0.307907        0.000000        0.00004643        0.00695252        0.00018617        0.00009203
     246          0.311487        0.000000        0.00005492        0.00641938        0.00081492        0.00086036
     247          0.311888        0.000000        0.00337260        0.00022918        0.00136789        0.00203712
     248          0.313660        0.000000        0.00003150        0.00020371        0.00784626        0.00030731
     249          0.317505        0.000000        0.00372385        0.00286050        0.00033105        0.00031703
     250          0.324391        0.000000        0.00459469        0.00061816        0.00010106        0.00011702
     251          0.332933        0.000000        0.00581825        0.00030846        0.00010996        0.00011206
     252          0.349584        0.000000        0.00494177        0.00033639        0.00032315        0.00012276
     253          0.356321        0.000000        0.00533318        0.00026834        0.00022680        0.00006463
     254          0.441538        0.000000        0.00000961        0.38599786        0.00463024        0.00175812
     255          0.441726        0.000000        0.00055863        0.00464147        0.38639016        0.00002983
     256          0.454335        0.000000        0.00001717        0.00888033        0.17790377        0.20386455
     257          0.455217        0.000000        0.00002496        0.08277277        0.05981033        0.25036719
     258          0.455275        0.000000        0.00002621        0.37456647        0.00993209        0.00736294
     259          0.455961        0.000000        0.00001526        0.00095754        0.34250364        0.04925930