 DBCSR| CPU Multiplication driver                                           XSMM
 DBCSR| Multrec recursion limit                                              512
 DBCSR| Multiplication stack size                                           1000
 DBCSR| Maximum elements for images                                    UNLIMITED
 DBCSR| Multiplicative factor virtual images                                   1
 DBCSR| Use multiplication densification                                       T
 DBCSR| Multiplication size stacks                                             3
 DBCSR| Use memory pool for CPU allocation                                     F
 DBCSR| Number of 3D layers                                               SINGLE
 DBCSR| Use MPI memory allocation                                              F
 DBCSR| Use RMA algorithm                                                      F
 DBCSR| Use Communication thread                                               T
 DBCSR| Communication thread load                                             87
 DBCSR| MPI: My node id                                                        0
 DBCSR| MPI: Number of nodes                                                  24
 DBCSR| OMP: Current number of threads                                         1
 DBCSR| OMP: Max number of threads                                             1
 DBCSR| Split modifier for TAS multiplication algorithm                  1.0E+00


  **** **** ******  **  PROGRAM STARTED AT               2023-12-05 13:42:41.351
 ***** ** ***  *** **   PROGRAM STARTED ON           milan30.int.triton.aalto.fi
 **    ****   ******    PROGRAM STARTED BY                               huangj4
 ***** **    ** ** **   PROGRAM PROCESS ID                                 37625
  **** **  *******  **  PROGRAM STARTED IN /scratch/phys/sin/Jie/Github/cp2kTest
                                           /PDOSNaked234/Cluster_222

 CP2K| version string:                                          CP2K version 8.2
 CP2K| source code revision number:                                  git:310b7ab
 CP2K| cp2kflags: omp libint fftw3 libxc parallel mpi3 scalapack xsmm           
 CP2K| is freely available from                            https://www.cp2k.org/
 CP2K| Program compiled at                          Thu May 12 10:08:29 UTC 2022
 CP2K| Program compiled on                                          80d7174ae3e8
 CP2K| Program compiled for                            linux-centos7-haswell-gcc
 CP2K| Data directory path    /share/apps/spack/envs/fgci-centos7-haswell/softwa
 CP2K| Input file name                                                 input.inp

 GLOBAL| Force Environment number                                              1
 GLOBAL| Basis set file name                                        BASIS_MOLOPT
 GLOBAL| Potential file name                                      GTH_POTENTIALS
 GLOBAL| MM Potential file name                                     MM_POTENTIAL
 GLOBAL| Coordinate file name                                MAPbI3-pos-last.xyz
 GLOBAL| Method name                                                        CP2K
 GLOBAL| Project name                                                 MAPbI3_DOS
 GLOBAL| Run type                                                         ENERGY
 GLOBAL| FFT library                                                       FFTW3
 GLOBAL| Diagonalization library                                       ScaLAPACK
 GLOBAL| Orthonormality check for eigenvectors                          DISABLED
 GLOBAL| Matrix multiplication library                                    SCALAP
 GLOBAL| All-to-all communication in single precision                          F
 GLOBAL| FFTs using library dependent lengths                                  F
 GLOBAL| Grid backend                                                       AUTO
 GLOBAL| Global print level                                               MEDIUM
 GLOBAL| MPI I/O enabled                                                       T
 GLOBAL| Total number of message passing processes                            24
 GLOBAL| Number of threads for this process                                    1
 GLOBAL| This output is from process                                           0
 GLOBAL| CPU model name                          AMD EPYC 7713 64-Core Processor
 GLOBAL| CPUID                                                              1002

 MEMORY| system memory details [Kb]
 MEMORY|                        rank 0           min           max       average
 MEMORY| MemTotal            528041892     528041892     528041892     528041892
 MEMORY| MemFree             495713280     495713280     495713280     495713280
 MEMORY| Buffers                     0             0             0             0
 MEMORY| Cached               13179584      13179584      13179584      13179584
 MEMORY| Slab                  2303140       2303140       2303140       2303140
 MEMORY| SReclaimable           422576        422576        422576        422576
 MEMORY| MemLikelyFree       509315440     509315440     509315440     509315440


 *** Fundamental physical constants (SI units) ***

 *** Literature: B. J. Mohr and B. N. Taylor,
 ***             CODATA recommended values of the fundamental physical
 ***             constants: 2006, Web Version 5.1
 ***             http://physics.nist.gov/constants

 Speed of light in vacuum [m/s]                             2.99792458000000E+08
 Magnetic constant or permeability of vacuum [N/A**2]       1.25663706143592E-06
 Electric constant or permittivity of vacuum [F/m]          8.85418781762039E-12
 Planck constant (h) [J*s]                                  6.62606896000000E-34
 Planck constant (h-bar) [J*s]                              1.05457162825177E-34
 Elementary charge [C]                                      1.60217648700000E-19
 Electron mass [kg]                                         9.10938215000000E-31
 Electron g factor [ ]                                     -2.00231930436220E+00
 Proton mass [kg]                                           1.67262163700000E-27
 Fine-structure constant                                    7.29735253760000E-03
 Rydberg constant [1/m]                                     1.09737315685270E+07
 Avogadro constant [1/mol]                                  6.02214179000000E+23
 Boltzmann constant [J/K]                                   1.38065040000000E-23
 Atomic mass unit [kg]                                      1.66053878200000E-27
 Bohr radius [m]                                            5.29177208590000E-11

 *** Conversion factors ***

 [u] -> [a.u.]                                              1.82288848426455E+03
 [Angstrom] -> [Bohr] = [a.u.]                              1.88972613288564E+00
 [a.u.] = [Bohr] -> [Angstrom]                              5.29177208590000E-01
 [a.u.] -> [s]                                              2.41888432650478E-17
 [a.u.] -> [fs]                                             2.41888432650478E-02
 [a.u.] -> [J]                                              4.35974393937059E-18
 [a.u.] -> [N]                                              8.23872205491840E-08
 [a.u.] -> [K]                                              3.15774647902944E+05
 [a.u.] -> [kJ/mol]                                         2.62549961709828E+03
 [a.u.] -> [kcal/mol]                                       6.27509468713739E+02
 [a.u.] -> [Pa]                                             2.94210107994716E+13
 [a.u.] -> [bar]                                            2.94210107994716E+08
 [a.u.] -> [atm]                                            2.90362800883016E+08
 [a.u.] -> [eV]                                             2.72113838565563E+01
 [a.u.] -> [Hz]                                             6.57968392072181E+15
 [a.u.] -> [1/cm] (wave numbers)                            2.19474631370540E+05
 [a.u./Bohr**2] -> [1/cm]                                   5.14048714338585E+03
 

 CELL_TOP| Volume [angstrom^3]:                                     30035.989929
 CELL_TOP| Vector a [angstrom    31.790     0.000     0.000   |a| =    31.790000
 CELL_TOP| Vector b [angstrom     0.000    31.090     0.000   |b| =    31.090000
 CELL_TOP| Vector c [angstrom     0.000     0.000    30.390   |c| =    30.390000
 CELL_TOP| Angle (b,c), alpha [degree]:                                90.000000
 CELL_TOP| Angle (a,c), beta  [degree]:                                90.000000
 CELL_TOP| Angle (a,b), gamma [degree]:                                90.000000
 CELL_TOP| Numerically orthorhombic:                                         YES

 GENERATE|  Preliminary Number of Bonds generated:                             0
 GENERATE|  Achieved consistency in connectivity generation.

 CELL| Volume [angstrom^3]:                                         30035.989929
 CELL| Vector a [angstrom]:      31.790     0.000     0.000   |a| =    31.790000
 CELL| Vector b [angstrom]:       0.000    31.090     0.000   |b| =    31.090000
 CELL| Vector c [angstrom]:       0.000     0.000    30.390   |c| =    30.390000
 CELL| Angle (b,c), alpha [degree]:                                    90.000000
 CELL| Angle (a,c), beta  [degree]:                                    90.000000
 CELL| Angle (a,b), gamma [degree]:                                    90.000000
 CELL| Numerically orthorhombic:                                             YES

 CELL_REF| Volume [angstrom^3]:                                     30035.989929
 CELL_REF| Vector a [angstrom    31.790     0.000     0.000   |a| =    31.790000
 CELL_REF| Vector b [angstrom     0.000    31.090     0.000   |b| =    31.090000
 CELL_REF| Vector c [angstrom     0.000     0.000    30.390   |c| =    30.390000
 CELL_REF| Angle (b,c), alpha [degree]:                                90.000000
 CELL_REF| Angle (a,c), beta  [degree]:                                90.000000
 CELL_REF| Angle (a,b), gamma [degree]:                                90.000000
 CELL_REF| Numerically orthorhombic:                                         YES

 *******************************************************************************
 *******************************************************************************
 **                                                                           **
 **     #####                         ##              ##                      **
 **    ##   ##            ##          ##              ##                      **
 **   ##     ##                       ##            ######                    **
 **   ##     ##  ##   ##  ##   #####  ##  ##   ####   ##    #####    #####    **
 **   ##     ##  ##   ##  ##  ##      ## ##   ##      ##   ##   ##  ##   ##   **
 **   ##  ## ##  ##   ##  ##  ##      ####     ###    ##   ######   ######    **
 **    ##  ###   ##   ##  ##  ##      ## ##      ##   ##   ##       ##        **
 **     #######   #####   ##   #####  ##  ##  ####    ##    #####   ##        **
 **           ##                                                    ##        **
 **                                                                           **
 **                                                ... make the atoms dance   **
 **                                                                           **
 **            Copyright (C) by CP2K developers group (2000-2021)             **
 **                      J. Chem. Phys. 152, 194103 (2020)                    **
 **                                                                           **
 *******************************************************************************

 DFT| Spin unrestricted (spin-polarized) Kohn-Sham calculation               UKS
 DFT| Multiplicity                                                             2
 DFT| Number of spin states                                                    2
 DFT| Charge                                                                   0
 DFT| Self-interaction correction (SIC)                                       NO
 DFT| Cutoffs: density                                              1.000000E-10
 DFT|          gradient                                             1.000000E-10
 DFT|          tau                                                  1.000000E-10
 DFT|          cutoff_smoothing_range                               0.000000E+00
 DFT| XC density smoothing                                                  NONE
 DFT| XC derivatives                                                          PW
 FUNCTIONAL| ROUTINE=NEW
 FUNCTIONAL| PBE:
 FUNCTIONAL| J.P.Perdew, K.Burke, M.Ernzerhof, Phys. Rev. Letter, vol. 77, n 18,
 FUNCTIONAL|  pp. 3865-3868, (1996){spin polarized}                             
 vdW POTENTIAL|                                                   Pair Potential
 vdW POTENTIAL|          DFT-D3 (Version 3.1)
 vdW POTENTIAL|          Potential Form: S. Grimme et al, JCP 132: 154104 (2010)
 vdW POTENTIAL|          Zero Damping
 vdW POTENTIAL|          Cutoff Radius [Bohr]:                             20.00
 vdW POTENTIAL|          s6 Scaling Factor:                               1.0000
 vdW POTENTIAL|          sr6 Scaling Factor:                              1.2170
 vdW POTENTIAL|          s8 Scaling Factor:                               0.7220
 vdW POTENTIAL|          Cutoff for CN calculation:                   0.1000E-05

 QS| Method:                                                                 GPW
 QS| Density plane wave grid type                        NON-SPHERICAL FULLSPACE
 QS| Number of grid levels:                                                    4
 QS| Density cutoff [a.u.]:                                                110.0
 QS| Multi grid cutoff [a.u.]: 1) grid level                               110.0
 QS|                           2) grid level                                36.7
 QS|                           3) grid level                                12.2
 QS|                           4) grid level                                 4.1
 QS| Grid level progression factor:                                          3.0
 QS| Relative density cutoff [a.u.]:                                        30.0
 QS| Interaction thresholds: eps_pgf_orb:                                1.0E-05
 QS|                         eps_filter_matrix:                          0.0E+00
 QS|                         eps_core_charge:                            1.0E-12
 QS|                         eps_rho_gspace:                             1.0E-10
 QS|                         eps_rho_rspace:                             1.0E-10
 QS|                         eps_gvg_rspace:                             1.0E-05
 QS|                         eps_ppl:                                    1.0E-02
 QS|                         eps_ppnl:                                   1.0E-07


 ATOMIC KIND INFORMATION

  1. Atomic kind: I                                     Number of atoms:      36

     Orbital Basis Set                                         SZV-MOLOPT-SR-GTH

       Number of orbital shell sets:                                           1
       Number of orbital shells:                                               2
       Number of primitive Cartesian functions:                                5
       Number of Cartesian basis functions:                                    4
       Number of spherical basis functions:                                    4
       Norm type:                                                              2

       Normalised Cartesian orbitals:

                        Set   Shell   Orbital            Exponent    Coefficient

                          1       1    2s                0.966173      -0.369082
                                                         0.828886      -0.032154
                                                         0.367159       0.255166
                                                         0.201369       0.106471
                                                         0.083015       0.018311

                          1       2    3px               0.966173      -1.009678
                                                         0.828886       0.783764
                                                         0.367159       0.107863
                                                         0.201369       0.101262
                                                         0.083015       0.016495
                          1       2    3py               0.966173      -1.009678
                                                         0.828886       0.783764
                                                         0.367159       0.107863
                                                         0.201369       0.101262
                                                         0.083015       0.016495
                          1       2    3pz               0.966173      -1.009678
                                                         0.828886       0.783764
                                                         0.367159       0.107863
                                                         0.201369       0.101262
                                                         0.083015       0.016495

       Atomic covalent radius [Angstrom]:                                  1.330

       Atomic van der Waals radius [Angstrom]:                             1.980

     GTH Potential information for                                       GTH-PBE

       Description:                       Goedecker-Teter-Hutter pseudopotential
                                           Goedecker et al., PRB 54, 1703 (1996)
                                          Hartwigsen et al., PRB 58, 3641 (1998)
                                                      Krack, TCA 114, 145 (2005)

       Gaussian exponent of the core charge distribution:               1.594388
       Electronic configuration (s p d ...):                               2   5

       Parameters of the local part of the GTH pseudopotential:

                          rloc        C1          C2          C3          C4
                        0.560000    8.207102

       Parameters of the non-local part of the GTH pseudopotential:

                   l      r(l)      h(i,j,l)

                   0    0.531928    2.308146    1.003909   -0.959156
                                    1.003909   -2.856109    2.476530
                                   -0.959156    2.476530   -1.965685
                   1    0.589182    0.906482    0.425071
                                    0.425071   -0.502950
                   2    0.739721    0.479195

  2. Atomic kind: Pb                                    Number of atoms:       8

     Orbital Basis Set                                         SZV-MOLOPT-SR-GTH

       Number of orbital shell sets:                                           1
       Number of orbital shells:                                               2
       Number of primitive Cartesian functions:                                5
       Number of Cartesian basis functions:                                    4
       Number of spherical basis functions:                                    4
       Norm type:                                                              2

       Normalised Cartesian orbitals:

                        Set   Shell   Orbital            Exponent    Coefficient

                          1       1    2s                1.933598      -0.156134
                                                         0.981425       0.419979
                                                         0.222223      -0.230246
                                                         0.077759      -0.022545
                                                         0.073968      -0.008640

                          1       2    3px               1.933598       0.064608
                                                         0.981425      -0.243154
                                                         0.222223       0.142297
                                                         0.077759       0.018505
                                                         0.073968       0.009435
                          1       2    3py               1.933598       0.064608
                                                         0.981425      -0.243154
                                                         0.222223       0.142297
                                                         0.077759       0.018505
                                                         0.073968       0.009435
                          1       2    3pz               1.933598       0.064608
                                                         0.981425      -0.243154
                                                         0.222223       0.142297
                                                         0.077759       0.018505
                                                         0.073968       0.009435

       Atomic covalent radius [Angstrom]:                                  1.470

       Atomic van der Waals radius [Angstrom]:                             2.020

     GTH Potential information for                                       GTH-PBE

       Description:                       Goedecker-Teter-Hutter pseudopotential
                                           Goedecker et al., PRB 54, 1703 (1996)
                                          Hartwigsen et al., PRB 58, 3641 (1998)
                                                      Krack, TCA 114, 145 (2005)

       Gaussian exponent of the core charge distribution:               1.311282
       Electronic configuration (s p d ...):                               2   2

       Parameters of the local part of the GTH pseudopotential:

                          rloc        C1          C2          C3          C4
                        0.617500    4.672384

       Parameters of the non-local part of the GTH pseudopotential:

                   l      r(l)      h(i,j,l)

                   0    0.622359    0.879918    2.081148   -1.431257
                                    2.081148   -5.014690    3.695490
                                   -1.431257    3.695490   -2.933204
                   1    0.812002    0.153457    0.478898
                                    0.478898   -0.566640
                   2    1.025015    0.301702

  3. Atomic kind: C                                     Number of atoms:       7

     Orbital Basis Set                                            SZV-MOLOPT-GTH

       Number of orbital shell sets:                                           1
       Number of orbital shells:                                               2
       Number of primitive Cartesian functions:                                7
       Number of Cartesian basis functions:                                    4
       Number of spherical basis functions:                                    4
       Norm type:                                                              2

       Normalised Cartesian orbitals:

                        Set   Shell   Orbital            Exponent    Coefficient

                          1       1    2s                6.132625      -0.263661
                                                         2.625196      -0.231112
                                                         1.045457       0.042712
                                                         0.478316       0.306085
                                                         0.178617       0.065483
                                                         0.075145       0.000568
                                                         0.030287       0.000417

                          1       2    3px               6.132625       0.562677
                                                         2.625196       0.633910
                                                         1.045457       0.379157
                                                         0.478316       0.235193
                                                         0.178617       0.052379
                                                         0.075145       0.003677
                                                         0.030287       0.000105
                          1       2    3py               6.132625       0.562677
                                                         2.625196       0.633910
                                                         1.045457       0.379157
                                                         0.478316       0.235193
                                                         0.178617       0.052379
                                                         0.075145       0.003677
                                                         0.030287       0.000105
                          1       2    3pz               6.132625       0.562677
                                                         2.625196       0.633910
                                                         1.045457       0.379157
                                                         0.478316       0.235193
                                                         0.178617       0.052379
                                                         0.075145       0.003677
                                                         0.030287       0.000105

       Atomic covalent radius [Angstrom]:                                  0.770

       Atomic van der Waals radius [Angstrom]:                             1.700

     GTH Potential information for                                       GTH-PBE

       Description:                       Goedecker-Teter-Hutter pseudopotential
                                           Goedecker et al., PRB 54, 1703 (1996)
                                          Hartwigsen et al., PRB 58, 3641 (1998)
                                                      Krack, TCA 114, 145 (2005)

       Gaussian exponent of the core charge distribution:               4.364419
       Electronic configuration (s p d ...):                               2   2

       Parameters of the local part of the GTH pseudopotential:

                          rloc        C1          C2          C3          C4
                        0.338471   -8.803674    1.339211

       Parameters of the non-local part of the GTH pseudopotential:

                   l      r(l)      h(i,j,l)

                   0    0.302576    9.622487
                   1    0.291507

  4. Atomic kind: N                                     Number of atoms:       7

     Orbital Basis Set                                            SZV-MOLOPT-GTH

       Number of orbital shell sets:                                           1
       Number of orbital shells:                                               2
       Number of primitive Cartesian functions:                                7
       Number of Cartesian basis functions:                                    4
       Number of spherical basis functions:                                    4
       Norm type:                                                              2

       Normalised Cartesian orbitals:

                        Set   Shell   Orbital            Exponent    Coefficient

                          1       1    2s                9.042730      -0.237404
                                                         3.882225      -0.265910
                                                         1.512880       0.102064
                                                         0.586631       0.295369
                                                         0.222851       0.088647
                                                         0.084583       0.003860
                                                         0.039194       0.000722

                          1       2    3px               9.042730       0.822162
                                                         3.882225       0.990771
                                                         1.512880       0.665657
                                                         0.586631       0.321705
                                                         0.222851       0.063706
                                                         0.084583       0.004155
                                                         0.039194      -0.000005
                          1       2    3py               9.042730       0.822162
                                                         3.882225       0.990771
                                                         1.512880       0.665657
                                                         0.586631       0.321705
                                                         0.222851       0.063706
                                                         0.084583       0.004155
                                                         0.039194      -0.000005
                          1       2    3pz               9.042730       0.822162
                                                         3.882225       0.990771
                                                         1.512880       0.665657
                                                         0.586631       0.321705
                                                         0.222851       0.063706
                                                         0.084583       0.004155
                                                         0.039194      -0.000005

       Atomic covalent radius [Angstrom]:                                  0.750

       Atomic van der Waals radius [Angstrom]:                             1.550

     GTH Potential information for                                       GTH-PBE

       Description:                       Goedecker-Teter-Hutter pseudopotential
                                           Goedecker et al., PRB 54, 1703 (1996)
                                          Hartwigsen et al., PRB 58, 3641 (1998)
                                                      Krack, TCA 114, 145 (2005)

       Gaussian exponent of the core charge distribution:               6.208322
       Electronic configuration (s p d ...):                               2   3

       Parameters of the local part of the GTH pseudopotential:

                          rloc        C1          C2          C3          C4
                        0.283791  -12.415226    1.868096

       Parameters of the non-local part of the GTH pseudopotential:

                   l      r(l)      h(i,j,l)

                   0    0.255405   13.630263
                   1    0.245495

  5. Atomic kind: H                                     Number of atoms:      42

     Orbital Basis Set                                            SZV-MOLOPT-GTH

       Number of orbital shell sets:                                           1
       Number of orbital shells:                                               1
       Number of primitive Cartesian functions:                                7
       Number of Cartesian basis functions:                                    1
       Number of spherical basis functions:                                    1
       Norm type:                                                              2

       Normalised Cartesian orbitals:

                        Set   Shell   Orbital            Exponent    Coefficient

                          1       1    2s               11.478000       0.129129
                                                         3.700759       0.177012
                                                         1.446884       0.141285
                                                         0.716815       0.245670
                                                         0.247919       0.094768
                                                         0.066918       0.004062
                                                         0.021708      -0.000053

       Atomic covalent radius [Angstrom]:                                  0.320

       Atomic van der Waals radius [Angstrom]:                             1.090

     GTH Potential information for                                    GTH-PBE-q1

       Description:                       Goedecker-Teter-Hutter pseudopotential
                                           Goedecker et al., PRB 54, 1703 (1996)
                                          Hartwigsen et al., PRB 58, 3641 (1998)
                                                      Krack, TCA 114, 145 (2005)

       Gaussian exponent of the core charge distribution:              12.500000
       Electronic configuration (s p d ...):                                   1

       Parameters of the local part of the GTH pseudopotential:

                          rloc        C1          C2          C3          C4
                        0.200000   -4.178900    0.724463


 MOLECULE KIND INFORMATION


 All atoms are their own molecule, skipping detailed information


 TOTAL NUMBERS AND MAXIMUM NUMBERS

  Total number of            - Atomic kinds:                                   5
                             - Atoms:                                        100
                             - Shell sets:                                   100
                             - Shells:                                       158
                             - Primitive Cartesian functions:                612
                             - Cartesian basis functions:                    274
                             - Spherical basis functions:                    274

  Maximum angular momentum of- Orbital basis functions:                        1
                             - Local part of the GTH pseudopotential:          2
                             - Non-local part of the GTH pseudopotential:      4


 MODULE QUICKSTEP:  ATOMIC COORDINATES IN angstrom

  Atom  Kind  Element       X           Y           Z          Z(eff)       Mass

       1     1 I   53   12.878724   12.650586    8.840548      7.0000     126.9045
       2     1 I   53   18.602143   12.988137    9.045884      7.0000     126.9045
       3     1 I   53   12.003452   19.096475    9.073328      7.0000     126.9045
       4     1 I   53   18.635960   18.765306    8.865919      7.0000     126.9045
       5     1 I   53   11.919847    9.640021   12.214815      7.0000     126.9045
       6     1 I   53   19.302076    9.855039   12.252028      7.0000     126.9045
       7     1 I   53    9.454703   13.326225   11.515719      7.0000     126.9045
       8     1 I   53   11.990293   12.682822   15.040809      7.0000     126.9045
       9     1 I   53   12.814777   15.818446   12.008329      7.0000     126.9045
      10     1 I   53   15.662862   12.192111   12.428493      7.0000     126.9045
      11     1 I   53   18.833736   12.862731   15.429863      7.0000     126.9045
      12     1 I   53   18.093850   16.167374   12.363473      7.0000     126.9045
      13     1 I   53   21.942728   13.792071   12.161014      7.0000     126.9045
      14     1 I   53    9.140582   18.796910   12.455649      7.0000     126.9045
      15     1 I   53   12.637510   18.535236   15.359967      7.0000     126.9045
      16     1 I   53   12.015505   22.238617   12.489942      7.0000     126.9045
      17     1 I   53   15.526420   19.496017   11.794175      7.0000     126.9045
      18     1 I   53   18.825513   19.218651   15.278822      7.0000     126.9045
      19     1 I   53   18.670391   22.855536   12.246377      7.0000     126.9045
      20     1 I   53   22.110542   19.567793   11.896262      7.0000     126.9045
      21     1 I   53   12.680154    8.790471   17.842271      7.0000     126.9045
      22     1 I   53   17.197417    9.006039   18.010753      7.0000     126.9045
      23     1 I   53    9.415036   13.412619   18.158105      7.0000     126.9045
      24     1 I   53   12.248641   12.709834   21.340153      7.0000     126.9045
      25     1 I   53   12.986276   15.508541   18.230146      7.0000     126.9045
      26     1 I   53   16.088186   12.074172   18.702274      7.0000     126.9045
      27     1 I   53   19.835370   12.792829   21.580658      7.0000     126.9045
      28     1 I   53   19.406535   16.485604   19.146343      7.0000     126.9045
      29     1 I   53   22.538081   13.109332   17.843932      7.0000     126.9045
      30     1 I   53    9.506514   19.094761   18.059902      7.0000     126.9045
      31     1 I   53   12.716800   18.707104   20.947442      7.0000     126.9045
      32     1 I   53   12.347808   23.934703   17.348936      7.0000     126.9045
      33     1 I   53   15.704742   18.479120   17.927791      7.0000     126.9045
      34     1 I   53   17.674855   19.626188   21.894383      7.0000     126.9045
      35     1 I   53   16.901696   22.823509   18.748281      7.0000     126.9045
      36     1 I   53   21.825379   19.962849   18.172039      7.0000     126.9045
      37     2 Pb  82   12.598394   12.603903   11.906285      4.0000     207.2000
      38     2 Pb  82   18.982890   13.069311   12.112637      4.0000     207.2000
      39     2 Pb  82   12.212816   19.068884   12.136568      4.0000     207.2000
      40     2 Pb  82   18.702765   19.369132   11.964499      4.0000     207.2000
      41     2 Pb  82   12.825814   12.513821   18.315734      4.0000     207.2000
      42     2 Pb  82   19.514115   13.415395   18.582944      4.0000     207.2000
      43     2 Pb  82   12.428838   19.988603   18.203917      4.0000     207.2000
      44     2 Pb  82   18.264542   19.767395   18.876657      4.0000     207.2000
      45     3 C    6   15.040737   15.967541    8.482051      4.0000      12.0107
      46     3 C    6   15.036109    7.974669   14.489119      4.0000      12.0107
      47     3 C    6    9.029372   15.627339   14.809484      4.0000      12.0107
      48     3 C    6   15.257865   15.391424   14.955675      4.0000      12.0107
      49     3 C    6   21.349785   16.292604   15.364971      4.0000      12.0107
      50     3 C    6   15.240289   21.662569   15.044887      4.0000      12.0107
      51     3 C    6   15.581690   15.639765   21.064408      4.0000      12.0107
      52     4 N    7   16.459807   15.863049    9.134026      5.0000      14.0067
      53     4 N    7   16.446437    8.393053   13.976882      5.0000      14.0067
      54     4 N    7   10.386303   15.748192   15.568761      5.0000      14.0067
      55     4 N    7   16.678619   15.651044   15.565178      5.0000      14.0067
      56     4 N    7   22.856508   15.946026   15.464776      5.0000      14.0067
      57     4 N    7   16.758024   21.908946   15.337179      5.0000      14.0067
      58     4 N    7   16.787760   15.944824   22.005484      5.0000      14.0067
      59     5 H    1   15.179618   16.126641    7.440807      1.0000       1.0079
      60     5 H    1   14.530735   16.783233    8.934928      1.0000       1.0079
      61     5 H    1   14.523523   15.056819    8.666708      1.0000       1.0079
      62     5 H    1   17.057217   16.685988    8.870452      1.0000       1.0079
      63     5 H    1   16.960143   14.983411    8.855074      1.0000       1.0079
      64     5 H    1   16.398636   15.870923   10.173985      1.0000       1.0079
      65     5 H    1   14.458134    7.697522   13.642679      1.0000       1.0079
      66     5 H    1   14.596569    8.799088   14.990641      1.0000       1.0079
      67     5 H    1   15.155238    7.155297   15.162149      1.0000       1.0079
      68     5 H    1   16.382208    9.235755   13.388478      1.0000       1.0079
      69     5 H    1   16.884496    7.575870   13.332439      1.0000       1.0079
      70     5 H    1   17.074077    8.583480   14.769121      1.0000       1.0079
      71     5 H    1    9.214341   15.802864   13.778655      1.0000       1.0079
      72     5 H    1    8.358256   16.345633   15.210683      1.0000       1.0079
      73     5 H    1    8.663043   14.643830   14.971975      1.0000       1.0079
      74     5 H    1   10.883407   16.650417   15.371582      1.0000       1.0079
      75     5 H    1   11.009848   14.941779   15.305319      1.0000       1.0079
      76     5 H    1   10.226478   15.681081   16.592616      1.0000       1.0079
      77     5 H    1   15.397891   14.938775   14.005735      1.0000       1.0079
      78     5 H    1   14.761575   16.327461   14.869366      1.0000       1.0079
      79     5 H    1   14.734892   14.740905   15.611565      1.0000       1.0079
      80     5 H    1   17.249922   16.183889   14.869565      1.0000       1.0079
      81     5 H    1   17.176971   14.741868   15.734962      1.0000       1.0079
      82     5 H    1   16.606542   16.210098   16.440577      1.0000       1.0079
      83     5 H    1   21.031108   16.118803   14.367381      1.0000       1.0079
      84     5 H    1   21.235520   17.313279   15.622255      1.0000       1.0079
      85     5 H    1   20.806780   15.684443   16.041612      1.0000       1.0079
      86     5 H    1   23.431744   16.470887   14.655405      1.0000       1.0079
      87     5 H    1   23.000674   14.932472   15.373051      1.0000       1.0079
      88     5 H    1   23.269052   16.253812   16.372190      1.0000       1.0079
      89     5 H    1   15.168678   21.107028   14.142255      1.0000       1.0079
      90     5 H    1   14.749846   22.600251   14.963283      1.0000       1.0079
      91     5 H    1   14.847791   21.095525   15.852557      1.0000       1.0079
      92     5 H    1   17.196025   22.479023   14.585916      1.0000       1.0079
      93     5 H    1   17.287950   20.992012   15.368013      1.0000       1.0079
      94     5 H    1   16.863351   22.377897   16.265325      1.0000       1.0079
      95     5 H    1   15.950339   15.243428   20.152739      1.0000       1.0079
      96     5 H    1   15.061998   16.549742   20.889194      1.0000       1.0079
      97     5 H    1   14.951080   14.934937   21.548227      1.0000       1.0079
      98     5 H    1   17.458302   16.565975   21.526749      1.0000       1.0079
      99     5 H    1   17.271594   15.067066   22.254183      1.0000       1.0079
     100     5 H    1   16.432115   16.454652   22.949193      1.0000       1.0079




 SCF PARAMETERS         Density guess:                                   RESTART
                        --------------------------------------------------------
                        max_scf:                                             100
                        max_scf_history:                                       0
                        max_diis:                                              4
                        --------------------------------------------------------
                        eps_scf:                                        1.00E-05
                        eps_scf_history:                                0.00E+00
                        eps_diis:                                       1.00E-01
                        eps_eigval:                                     1.00E-05
                        --------------------------------------------------------
                        level_shift [a.u.]:                                 0.00
                        --------------------------------------------------------
                        Outer loop SCF in use 
                        No variables optimised in outer loop
                        eps_scf                                         1.00E-05
                        max_scf                                               10
                        No outer loop optimization
                        step_size                                       5.00E-01

 PW_GRID| Information for grid number                                          1
 PW_GRID| Grid distributed over                                    24 processors
 PW_GRID| Real space group dimensions                                    24    1
 PW_GRID| the grid is blocked:                                                NO
 PW_GRID| Cutoff [a.u.]                                                    110.0
 PW_GRID| spherical cutoff:                                                   NO
 PW_GRID|   Bounds   1           -144     143                Points:         288
 PW_GRID|   Bounds   2           -144     143                Points:         288
 PW_GRID|   Bounds   3           -144     143                Points:         288
 PW_GRID| Volume element (a.u.^3)  0.8485E-02     Volume (a.u.^3)    202692.9096
 PW_GRID| Grid span                                                    FULLSPACE
 PW_GRID|   Distribution                         Average         Max         Min
 PW_GRID|   G-Vectors                           995328.0      995328      995328
 PW_GRID|   G-Rays                                3456.0        3456        3456
 PW_GRID|   Real Space Points                   995328.0      995328      995328

 PW_GRID| Information for grid number                                          2
 PW_GRID| Number of the reference grid                                         1
 PW_GRID| Grid distributed over                                    24 processors
 PW_GRID| Real space group dimensions                                    24    1
 PW_GRID| the grid is blocked:                                                NO
 PW_GRID| Cutoff [a.u.]                                                     36.7
 PW_GRID| spherical cutoff:                                                   NO
 PW_GRID|   Bounds   1            -90      89                Points:         180
 PW_GRID|   Bounds   2            -81      80                Points:         162
 PW_GRID|   Bounds   3            -80      79                Points:         160
 PW_GRID| Volume element (a.u.^3)  0.4344E-01     Volume (a.u.^3)    202692.9096
 PW_GRID| Grid span                                                    FULLSPACE
 PW_GRID|   Distribution                         Average         Max         Min
 PW_GRID|   G-Vectors                           194400.0      194580      194220
 PW_GRID|   G-Rays                                1080.0        1081        1079
 PW_GRID|   Real Space Points                   194400.0      207360      181440

 PW_GRID| Information for grid number                                          3
 PW_GRID| Number of the reference grid                                         1
 PW_GRID| Grid distributed over                                    24 processors
 PW_GRID| Real space group dimensions                                    24    1
 PW_GRID| the grid is blocked:                                                NO
 PW_GRID| Cutoff [a.u.]                                                     12.2
 PW_GRID| spherical cutoff:                                                   NO
 PW_GRID|   Bounds   1            -48      47                Points:          96
 PW_GRID|   Bounds   2            -48      47                Points:          96
 PW_GRID|   Bounds   3            -48      47                Points:          96
 PW_GRID| Volume element (a.u.^3)  0.2291         Volume (a.u.^3)    202692.9096
 PW_GRID| Grid span                                                    FULLSPACE
 PW_GRID|   Distribution                         Average         Max         Min
 PW_GRID|   G-Vectors                            36864.0       36960       36768
 PW_GRID|   G-Rays                                 384.0         385         383
 PW_GRID|   Real Space Points                    36864.0       36864       36864

 PW_GRID| Information for grid number                                          4
 PW_GRID| Number of the reference grid                                         1
 PW_GRID| Grid distributed over                                    24 processors
 PW_GRID| Real space group dimensions                                    24    1
 PW_GRID| the grid is blocked:                                                NO
 PW_GRID| Cutoff [a.u.]                                                      4.1
 PW_GRID| spherical cutoff:                                                   NO
 PW_GRID|   Bounds   1            -30      29                Points:          60
 PW_GRID|   Bounds   2            -27      26                Points:          54
 PW_GRID|   Bounds   3            -27      26                Points:          54
 PW_GRID| Volume element (a.u.^3)   1.159         Volume (a.u.^3)    202692.9096
 PW_GRID| Grid span                                                    FULLSPACE
 PW_GRID|   Distribution                         Average         Max         Min
 PW_GRID|   G-Vectors                             7290.0        7380        7260
 PW_GRID|   G-Rays                                 121.5         123         121
 PW_GRID|   Real Space Points                     7290.0        8748        5832

 POISSON| Solver                                                        PERIODIC
 POISSON| Periodicity                                                        XYZ

 RS_GRID| Information for grid number                                          1
 RS_GRID|   Bounds   1           -144     143                Points:         288
 RS_GRID|   Bounds   2           -144     143                Points:         288
 RS_GRID|   Bounds   3           -144     143                Points:         288
 RS_GRID| Real space distribution over                                  4 groups
 RS_GRID| Real space distribution along direction                              2
 RS_GRID| Border size                                                         26
 RS_GRID| Real space distribution over                                  6 groups
 RS_GRID| Real space distribution along direction                              3
 RS_GRID| Border size                                                         26
 RS_GRID|   Distribution                         Average         Max         Min
 RS_GRID|   Planes                                 124.0         124         124
 RS_GRID|   Distribution                         Average         Max         Min
 RS_GRID|   Planes                                 100.0         100         100

 RS_GRID| Information for grid number                                          2
 RS_GRID|   Bounds   1            -90      89                Points:         180
 RS_GRID|   Bounds   2            -81      80                Points:         162
 RS_GRID|   Bounds   3            -80      79                Points:         160
 RS_GRID| Real space distribution over                                  4 groups
 RS_GRID| Real space distribution along direction                              2
 RS_GRID| Border size                                                         27
 RS_GRID| Real space distribution over                                  6 groups
 RS_GRID| Real space distribution along direction                              3
 RS_GRID| Border size                                                         27
 RS_GRID|   Distribution                         Average         Max         Min
 RS_GRID|   Planes                                  94.5          95          94
 RS_GRID|   Distribution                         Average         Max         Min
 RS_GRID|   Planes                                  80.7          81          80

 RS_GRID| Information for grid number                                          3
 RS_GRID|   Bounds   1            -48      47                Points:          96
 RS_GRID|   Bounds   2            -48      47                Points:          96
 RS_GRID|   Bounds   3            -48      47                Points:          96
 RS_GRID| Real space fully replicated
 RS_GRID| Group size                                                           1

 RS_GRID| Information for grid number                                          4
 RS_GRID|   Bounds   1            -30      29                Points:          60
 RS_GRID|   Bounds   2            -27      26                Points:          54
 RS_GRID|   Bounds   3            -27      26                Points:          54
 RS_GRID| Real space fully replicated
 RS_GRID| Group size                                                           1

 Spin 1

 Number of electrons:                                                        195
 Number of occupied orbitals:                                                195
 Number of molecular orbitals:                                               195

 Spin 2

 Number of electrons:                                                        194
 Number of occupied orbitals:                                                194
 Number of molecular orbitals:                                               194

 Number of orbital functions:                                                274
 Number of independent orbital functions:                                    274

 Extrapolation method: initial_guess

 *** WARNING in qs_initial_guess.F:309 :: User requested to restart the   ***
 *** wavefunction from the file named: MAPbI3_DOS-RESTART.wfn. This file  ***
 *** does not exist. Please check the existence of the file or change     ***
 *** properly the value of the keyword WFN_RESTART_FILE_NAME. Calculation ***
 *** continues using ATOMIC GUESS.                                        ***


 Atomic guess: The first density matrix is obtained in terms of atomic orbitals
               and electronic configurations assigned to each atomic kind

 Guess for atomic kind: I

 Electronic structure
    Total number of core electrons                                         46.00
    Total number of valence electrons                                       7.00
    Total number of electrons                                              53.00
    Multiplicity                                                   not specified
    S   [  2.00  2.00  2.00  2.00] 2.00
    P   [  6.00  6.00  6.00] 5.00
    D   [ 10.00 10.00]


 *******************************************************************************
                  Iteration          Convergence                     Energy [au]
 *******************************************************************************
                          1         0.00000                     -11.281006293251

 Energy components [Hartree]           Total Energy ::          -11.281006293251
                                        Band Energy ::           -4.827239200000
                                     Kinetic Energy ::            3.405545064965
                                   Potential Energy ::          -14.686551358215
                                      Virial (-V/T) ::            4.312540600125
                                        Core Energy ::          -18.787370753201
                                          XC Energy ::           -2.181900935197
                                     Coulomb Energy ::            9.688265395148
                       Total Pseudopotential Energy ::          -22.268091755868
                       Local Pseudopotential Energy ::          -22.909338972733
                    Nonlocal Pseudopotential Energy ::            0.641247216865
                                        Confinement ::            0.751759377024

 Orbital energies  State     L     Occupation   Energy[a.u.]          Energy[eV]

                       1     0          2.000      -1.015423          -27.631065

                       1     1          5.000      -0.559279          -15.218746


 Total Electron Density at R=0:                                         0.000906

 Guess for atomic kind: Pb

 Electronic structure
    Total number of core electrons                                         78.00
    Total number of valence electrons                                       4.00
    Total number of electrons                                              82.00
    Multiplicity                                                   not specified
    S   [  2.00  2.00  2.00  2.00  2.00] 2.00
    P   [  6.00  6.00  6.00  6.00] 2.00
    D   [ 10.00 10.00 10.00]
    F   [ 14.00]


 *******************************************************************************
                  Iteration          Convergence                     Energy [au]
 *******************************************************************************
                          1         0.00000                      -3.334488567620

 Energy components [Hartree]           Total Energy ::           -3.334488567620
                                        Band Energy ::           -2.493053560830
                                     Kinetic Energy ::            1.362411891253
                                   Potential Energy ::           -4.696900458872
                                      Virial (-V/T) ::            3.447489330524
                                        Core Energy ::           -5.179275754156
                                          XC Energy ::           -0.936836278773
                                     Coulomb Energy ::            2.781623465309
                       Total Pseudopotential Energy ::           -6.595268847800
                       Local Pseudopotential Energy ::           -6.599860737731
                    Nonlocal Pseudopotential Energy ::            0.004591889931
                                        Confinement ::            0.535812023919

 Orbital energies  State     L     Occupation   Energy[a.u.]          Energy[eV]

                       1     0          2.000      -0.814587          -22.166042

                       1     1          2.000      -0.431940          -11.753677


 Total Electron Density at R=0:                                         0.000012

 Guess for atomic kind: C

 Electronic structure
    Total number of core electrons                                          2.00
    Total number of valence electrons                                       4.00
    Total number of electrons                                               6.00
    Multiplicity                                                   not specified
    S   [  2.00] 2.00
    P      2.00


 *******************************************************************************
                  Iteration          Convergence                     Energy [au]
 *******************************************************************************
                          1         0.00000                      -5.193179266359

 Energy components [Hartree]           Total Energy ::           -5.193179266359
                                        Band Energy ::           -1.089426063362
                                     Kinetic Energy ::            4.338444617531
                                   Potential Energy ::           -9.531623883890
                                      Virial (-V/T) ::            2.197014073978
                                        Core Energy ::           -8.574505764553
                                          XC Energy ::           -1.533265579935
                                     Coulomb Energy ::            4.914592078128
                       Total Pseudopotential Energy ::          -12.939213155833
                       Local Pseudopotential Energy ::          -13.491979661493
                    Nonlocal Pseudopotential Energy ::            0.552766505660
                                        Confinement ::            0.262627737492

 Orbital energies  State     L     Occupation   Energy[a.u.]          Energy[eV]

                       1     0          2.000      -0.418189          -11.379503

                       1     1          2.000      -0.126524           -3.442892


 Total Electron Density at R=0:                                         0.012643

 Guess for atomic kind: N

 Electronic structure
    Total number of core electrons                                          2.00
    Total number of valence electrons                                       5.00
    Total number of electrons                                               7.00
    Multiplicity                                                   not specified
    S   [  2.00] 2.00
    P      3.00


 *******************************************************************************
                  Iteration          Convergence                     Energy [au]
 *******************************************************************************
                          1         0.00000                      -9.516699812225

 Energy components [Hartree]           Total Energy ::           -9.516699812225
                                        Band Energy ::           -1.575119888772
                                     Kinetic Energy ::            7.570578894892
                                   Potential Energy ::          -17.087278707117
                                      Virial (-V/T) ::            2.257063686193
                                        Core Energy ::          -15.899031892889
                                          XC Energy ::           -2.289347639535
                                     Coulomb Energy ::            8.671679720199
                       Total Pseudopotential Energy ::          -23.501476200035
                       Local Pseudopotential Energy ::          -24.429638778414
                    Nonlocal Pseudopotential Energy ::            0.928162578379
                                        Confinement ::            0.318654122541

 Orbital energies  State     L     Occupation   Energy[a.u.]          Energy[eV]

                       1     0          2.000      -0.570074          -15.512512

                       1     1          3.000      -0.144990           -3.945389


 Total Electron Density at R=0:                                         0.000320

 Guess for atomic kind: H

 Electronic structure
    Total number of core electrons                                          0.00
    Total number of valence electrons                                       1.00
    Total number of electrons                                               1.00
    Multiplicity                                                   not specified
    S      1.00


 *******************************************************************************
                  Iteration          Convergence                     Energy [au]
 *******************************************************************************
                          1         0.00000                      -0.303680652738

 Energy components [Hartree]           Total Energy ::           -0.303680652738
                                        Band Energy ::           -0.122516337542
                                     Kinetic Energy ::            1.009243604796
                                   Potential Energy ::           -1.312924257534
                                      Virial (-V/T) ::            1.300899258905
                                        Core Energy ::           -0.399779323576
                                          XC Energy ::           -0.355111242836
                                     Coulomb Energy ::            0.451209913674
                       Total Pseudopotential Energy ::           -1.417414563464
                       Local Pseudopotential Energy ::           -1.417414563464
                    Nonlocal Pseudopotential Energy ::            0.000000000000
                                        Confinement ::            0.083916350930

 Orbital energies  State     L     Occupation   Energy[a.u.]          Energy[eV]

                       1     0          1.000      -0.122516           -3.333839


 Total Electron Density at R=0:                                         0.627062

 Spin 1
 Re-scaling the density matrix to get the right number of electrons for spin 1
                  # Electrons              Trace(P)               Scaling factor
                          195               194.500                        1.003

 Spin 2
 Re-scaling the density matrix to get the right number of electrons for spin 2
                  # Electrons              Trace(P)               Scaling factor
                          194               194.500                        0.997


 SCF WAVEFUNCTION OPTIMIZATION

  ----------------------------------- OT ---------------------------------------
  Minimizer      : DIIS                : direct inversion
                                         in the iterative subspace
                                         using   7 DIIS vectors
                                         safer DIIS on
  Preconditioner : FULL_ALL            : diagonalization, state selective
  Precond_solver : DEFAULT
  stepsize       :    0.15000000                  energy_gap     :    0.08000000
  eps_taylor     :   0.10000E-15                  max_taylor     :             4
  ----------------------------------- OT ---------------------------------------

  Step     Update method      Time    Convergence         Total energy    Change
  ------------------------------------------------------------------------------
     1 OT DIIS     0.15E+00    4.3     0.03467713      -558.5250722966 -5.59E+02
     2 OT DIIS     0.15E+00    4.0     0.02100119      -570.5826339898 -1.21E+01
     3 OT DIIS     0.15E+00    4.6     0.01168573      -573.0686415073 -2.49E+00
     4 OT DIIS     0.15E+00    4.5     0.00741465      -574.1244261103 -1.06E+00
     5 OT DIIS     0.15E+00    4.9     0.00464863      -574.5239207983 -3.99E-01
     6 OT DIIS     0.15E+00    4.6     0.00290796      -574.8377608037 -3.14E-01
     7 OT DIIS     0.15E+00    4.8     0.00198471      -574.9674187508 -1.30E-01
     8 OT DIIS     0.15E+00    5.3     0.00138605      -575.0333553147 -6.59E-02
     9 OT DIIS     0.15E+00    6.2     0.00100621      -575.0764792572 -4.31E-02
    10 OT DIIS     0.15E+00    5.7     0.00081682      -575.1004967562 -2.40E-02
    11 OT DIIS     0.15E+00    5.1     0.00066772      -575.1178453300 -1.73E-02
    12 OT DIIS     0.15E+00    5.2     0.00056328      -575.1316881470 -1.38E-02
    13 OT DIIS     0.15E+00    6.1     0.00049886      -575.1428629377 -1.12E-02
    14 OT DIIS     0.15E+00    5.7     0.00044924      -575.1523527989 -9.49E-03
    15 OT DIIS     0.15E+00    5.5     0.00040911      -575.1601162414 -7.76E-03
    16 OT DIIS     0.15E+00    5.3     0.00037276      -575.1675706537 -7.45E-03
    17 OT DIIS     0.15E+00    5.8     0.00033914      -575.1744419742 -6.87E-03
    18 OT DIIS     0.15E+00    5.8     0.00031126      -575.1808610798 -6.42E-03
    19 OT DIIS     0.15E+00    5.5     0.00028779      -575.1858476618 -4.99E-03
    20 OT DIIS     0.15E+00    5.8     0.00026536      -575.1902013778 -4.35E-03
    21 OT DIIS     0.15E+00    5.8     0.00024634      -575.1939457203 -3.74E-03
    22 OT DIIS     0.15E+00    5.7     0.00023102      -575.1971922552 -3.25E-03
    23 OT DIIS     0.15E+00    5.7     0.00021912      -575.1999915880 -2.80E-03
    24 OT DIIS     0.15E+00    5.4     0.00020481      -575.2025392927 -2.55E-03
    25 OT DIIS     0.15E+00    5.8     0.00019497      -575.2047576832 -2.22E-03
    26 OT DIIS     0.15E+00    5.1     0.00018611      -575.2067933943 -2.04E-03
    27 OT DIIS     0.15E+00    6.0     0.00017917      -575.2084388991 -1.65E-03
    28 OT DIIS     0.15E+00    5.8     0.00017350      -575.2099231568 -1.48E-03
    29 OT DIIS     0.15E+00    5.5     0.00016969      -575.2111789215 -1.26E-03
    30 OT DIIS     0.15E+00    5.5     0.00016631      -575.2122345613 -1.06E-03
    31 OT DIIS     0.15E+00    5.7     0.00016337      -575.2132700204 -1.04E-03
    32 OT DIIS     0.15E+00    6.0     0.00016165      -575.2142357716 -9.66E-04
    33 OT DIIS     0.15E+00    5.6     0.00015906      -575.2153002874 -1.06E-03
    34 OT DIIS     0.15E+00    5.9     0.00015704      -575.2163287256 -1.03E-03
    35 OT DIIS     0.15E+00    5.6     0.00015563      -575.2172173260 -8.89E-04
    36 OT DIIS     0.15E+00    5.4     0.00015415      -575.2180185893 -8.01E-04
    37 OT DIIS     0.15E+00    6.0     0.00015233      -575.2188369072 -8.18E-04
    38 OT DIIS     0.15E+00    5.9     0.00015102      -575.2197076044 -8.71E-04
    39 OT DIIS     0.15E+00    5.6     0.00014950      -575.2205708861 -8.63E-04
    40 OT DIIS     0.15E+00    5.4     0.00014701      -575.2215686954 -9.98E-04
    41 OT DIIS     0.15E+00    6.2     0.00014543      -575.2224267349 -8.58E-04
    42 OT DIIS     0.15E+00    5.6     0.00014298      -575.2233553465 -9.29E-04
    43 OT DIIS     0.15E+00    5.4     0.00013986      -575.2243818457 -1.03E-03
    44 OT DIIS     0.15E+00    5.8     0.00013736      -575.2253550346 -9.73E-04
    45 OT DIIS     0.15E+00    6.0     0.00013569      -575.2260083197 -6.53E-04
    46 OT DIIS     0.15E+00    5.7     0.00013173      -575.2268945635 -8.86E-04
    47 OT DIIS     0.15E+00    5.2     0.00012975      -575.2276256967 -7.31E-04
    48 OT DIIS     0.15E+00    6.0     0.00012672      -575.2284462878 -8.21E-04
    49 OT DIIS     0.15E+00    5.8     0.00012333      -575.2292977770 -8.51E-04
    50 OT DIIS     0.15E+00    5.5     0.00012084      -575.2300125864 -7.15E-04
    51 OT DIIS     0.15E+00    6.0     0.00011801      -575.2306231137 -6.11E-04
    52 OT DIIS     0.15E+00    5.8     0.00011490      -575.2313496840 -7.27E-04
    53 OT DIIS     0.15E+00    5.8     0.00011220      -575.2320878572 -7.38E-04
    54 OT DIIS     0.15E+00    5.6     0.00011029      -575.2325013634 -4.14E-04
    55 OT DIIS     0.15E+00    5.7     0.00010723      -575.2330926024 -5.91E-04
    56 OT DIIS     0.15E+00    5.7     0.00010548      -575.2335763235 -4.84E-04
    57 OT DIIS     0.15E+00    5.3     0.00010325      -575.2341073723 -5.31E-04
    58 OT DIIS     0.15E+00    6.3     0.00010074      -575.2347538419 -6.46E-04
    59 OT DIIS     0.15E+00    6.0     0.00009862      -575.2353197141 -5.66E-04
    60 OT DIIS     0.15E+00    5.3     0.00009664      -575.2357242572 -4.05E-04
    61 OT DIIS     0.15E+00    5.3     0.00009420      -575.2362798692 -5.56E-04
    62 OT DIIS     0.15E+00    6.0     0.00009206      -575.2368198145 -5.40E-04
    63 OT DIIS     0.15E+00    5.8     0.00009068      -575.2371550325 -3.35E-04
    64 OT DIIS     0.15E+00    5.4     0.00008859      -575.2375817340 -4.27E-04
    65 OT DIIS     0.15E+00    5.9     0.00008735      -575.2379881744 -4.06E-04
    66 OT DIIS     0.15E+00    5.9     0.00008531      -575.2384471595 -4.59E-04
    67 OT DIIS     0.15E+00    5.5     0.00008339      -575.2389630885 -5.16E-04
    68 OT DIIS     0.15E+00    5.4     0.00008172      -575.2394420585 -4.79E-04
    69 OT DIIS     0.15E+00    5.8     0.00008014      -575.2397396710 -2.98E-04
    70 OT DIIS     0.15E+00    5.5     0.00007741      -575.2402634773 -5.24E-04
    71 OT DIIS     0.15E+00    5.5     0.00007497      -575.2408069026 -5.43E-04
    72 OT DIIS     0.15E+00    6.0     0.00007577      -575.2409684310 -1.62E-04
    73 OT DIIS     0.15E+00    5.7     0.00007247      -575.2412818202 -3.13E-04
    74 OT DIIS     0.15E+00    5.7     0.00006993      -575.2417864316 -5.05E-04
    75 OT DIIS     0.15E+00    5.5     0.00006744      -575.2423075413 -5.21E-04
    76 OT DIIS     0.15E+00    5.8     0.00006472      -575.2427309656 -4.23E-04
    77 OT DIIS     0.15E+00    5.8     0.00006289      -575.2430427753 -3.12E-04
    78 OT DIIS     0.15E+00    5.3     0.00006072      -575.2433156809 -2.73E-04
    79 OT DIIS     0.15E+00    6.3     0.00005823      -575.2436347246 -3.19E-04
    80 OT DIIS     0.15E+00    6.0     0.00005614      -575.2440372231 -4.02E-04
    81 OT DIIS     0.15E+00    5.3     0.00005414      -575.2442798011 -2.43E-04
    82 OT SD       0.15E+00    5.3     0.00006237      -575.2450083898 -7.29E-04
    83 OT SD       0.15E+00    6.0     0.00005043      -575.2450567011 -4.83E-05
    84 OT DIIS     0.15E+00    5.9     0.00004986      -575.2450927853 -3.61E-05
    85 OT DIIS     0.15E+00    5.5     0.00004540      -575.2453568258 -2.64E-04
    86 OT DIIS     0.15E+00    5.9     0.00004411      -575.2455786939 -2.22E-04
    87 OT DIIS     0.15E+00    5.9     0.00004280      -575.2457161880 -1.37E-04
    88 OT DIIS     0.15E+00    5.6     0.00004159      -575.2459376590 -2.21E-04
    89 OT DIIS     0.15E+00    5.5     0.00003970      -575.2461939177 -2.56E-04
    90 OT DIIS     0.15E+00    5.7     0.00003843      -575.2463746853 -1.81E-04
    91 OT DIIS     0.15E+00    5.8     0.00003795      -575.2465744481 -2.00E-04
    92 OT DIIS     0.15E+00    5.5     0.00003678      -575.2466763306 -1.02E-04
    93 OT SD       0.15E+00    6.0     0.00003620      -575.2470027280 -3.26E-04
    94 OT DIIS     0.15E+00    5.5     0.00003594      -575.2470216443 -1.89E-05
    95 OT DIIS     0.15E+00    5.3     0.00003289      -575.2472404464 -2.19E-04
    96 OT DIIS     0.15E+00    5.8     0.00003205      -575.2473678811 -1.27E-04
    97 OT DIIS     0.15E+00    5.9     0.00003136      -575.2474922744 -1.24E-04
    98 OT DIIS     0.15E+00    5.7     0.00003057      -575.2475914033 -9.91E-05
    99 OT DIIS     0.15E+00    5.4     0.00003012      -575.2477696012 -1.78E-04
   100 OT DIIS     0.15E+00    6.1     0.00002959      -575.2478448663 -7.53E-05

  Leaving inner SCF loop after reaching   100 steps.


  Electronic density on regular grids:       -388.9999979668        0.0000020332
  Core density on regular grids:              388.9999992023       -0.0000007977
  Total charge density on r-space grids:        0.0000012354
  Total charge density g-space grids:           0.0000012354

  Overlap energy of the core charge distribution:               0.00001458045426
  Self energy of the core charge distribution:              -1273.61259759958057
  Core Hamiltonian energy:                                    303.21452819036904
  Hartree energy:                                             531.31938475633024
  Exchange-correlation energy:                               -135.96031176035262
  Dispersion energy:                                           -0.20886303349911

  Total energy:                                              -575.24784486627880

  outer SCF iter =    1 RMS gradient =   0.30E-04 energy =       -575.2478448663

  ----------------------------------- OT ---------------------------------------
  Minimizer      : DIIS                : direct inversion
                                         in the iterative subspace
                                         using   7 DIIS vectors
                                         safer DIIS on
  Preconditioner : FULL_ALL            : diagonalization, state selective
  Precond_solver : DEFAULT
  stepsize       :    0.15000000                  energy_gap     :    0.08000000
  eps_taylor     :   0.10000E-15                  max_taylor     :             4
  ----------------------------------- OT ---------------------------------------

  Step     Update method      Time    Convergence         Total energy    Change
  ------------------------------------------------------------------------------
     1 OT DIIS     0.15E+00   12.1     0.00007616      -575.2478997876 -5.49E-05
     2 OT DIIS     0.15E+00    5.0     0.00006726      -575.2479866183 -8.68E-05
     3 OT DIIS     0.15E+00    5.7     0.00005234      -575.2482076665 -2.21E-04
     4 OT DIIS     0.15E+00    5.7     0.00004980      -575.2482993872 -9.17E-05
     5 OT DIIS     0.15E+00    5.8     0.00004389      -575.2485536061 -2.54E-04
     6 OT DIIS     0.15E+00    5.5     0.00004098      -575.2487514285 -1.98E-04
     7 OT DIIS     0.15E+00    5.8     0.00003910      -575.2488769714 -1.26E-04
     8 OT DIIS     0.15E+00    5.7     0.00003573      -575.2491067804 -2.30E-04
     9 OT DIIS     0.15E+00    5.4     0.00003339      -575.2493363847 -2.30E-04
    10 OT DIIS     0.15E+00    6.0     0.00003223      -575.2493994449 -6.31E-05
    11 OT DIIS     0.15E+00    5.9     0.00003003      -575.2495681401 -1.69E-04
    12 OT DIIS     0.15E+00    5.6     0.00002777      -575.2497574227 -1.89E-04
    13 OT DIIS     0.15E+00    5.6     0.00002664      -575.2498576999 -1.00E-04
    14 OT DIIS     0.15E+00    6.0     0.00002487      -575.2499816578 -1.24E-04
    15 OT DIIS     0.15E+00    5.7     0.00002372      -575.2500804564 -9.88E-05
    16 OT DIIS     0.15E+00    5.4     0.00002268      -575.2501464546 -6.60E-05
    17 OT DIIS     0.15E+00    5.9     0.00002203      -575.2502143339 -6.79E-05
    18 OT DIIS     0.15E+00    6.0     0.00002127      -575.2502973136 -8.30E-05
    19 OT DIIS     0.15E+00    5.5     0.00002047      -575.2503515191 -5.42E-05
    20 OT DIIS     0.15E+00    5.2     0.00002013      -575.2504100823 -5.86E-05
    21 OT DIIS     0.15E+00    5.7     0.00001977      -575.2504561907 -4.61E-05
    22 OT DIIS     0.15E+00    5.8     0.00001913      -575.2505126029 -5.64E-05
    23 OT DIIS     0.15E+00    5.5     0.00001891      -575.2505665005 -5.39E-05
    24 OT DIIS     0.15E+00    6.0     0.00001812      -575.2506402254 -7.37E-05
    25 OT DIIS     0.15E+00    5.7     0.00001775      -575.2506859313 -4.57E-05
    26 OT DIIS     0.15E+00    5.6     0.00001736      -575.2507313596 -4.54E-05
    27 OT DIIS     0.15E+00    5.7     0.00001714      -575.2507672003 -3.58E-05
    28 OT DIIS     0.15E+00    5.5     0.00001694      -575.2507964248 -2.92E-05
    29 OT DIIS     0.15E+00    5.8     0.00001664      -575.2508394907 -4.31E-05
    30 OT DIIS     0.15E+00    5.5     0.00001636      -575.2508889267 -4.94E-05
    31 OT DIIS     0.15E+00    6.2     0.00001605      -575.2509419075 -5.30E-05
    32 OT DIIS     0.15E+00    5.7     0.00001569      -575.2509747432 -3.28E-05
    33 OT DIIS     0.15E+00    5.2     0.00001551      -575.2510012399 -2.65E-05
    34 OT DIIS     0.15E+00    5.7     0.00001530      -575.2510257911 -2.46E-05
    35 OT DIIS     0.15E+00    5.9     0.00001510      -575.2510557319 -2.99E-05
    36 OT DIIS     0.15E+00    5.8     0.00001480      -575.2510964947 -4.08E-05
    37 OT DIIS     0.15E+00    5.3     0.00001435      -575.2511412253 -4.47E-05
    38 OT DIIS     0.15E+00    6.0     0.00001410      -575.2511893095 -4.81E-05
    39 OT DIIS     0.15E+00    6.0     0.00001414      -575.2512150866 -2.58E-05
    40 OT DIIS     0.15E+00    5.5     0.00001391      -575.2512299207 -1.48E-05
    41 OT DIIS     0.15E+00    5.7     0.00001369      -575.2512511209 -2.12E-05
    42 OT DIIS     0.15E+00    5.8     0.00001406      -575.2512675325 -1.64E-05
    43 OT SD       0.15E+00    5.7     0.00001330      -575.2512891822 -2.16E-05
    44 OT DIIS     0.15E+00    5.4     0.00001315      -575.2512919815 -2.80E-06
    45 OT DIIS     0.15E+00    5.8     0.00001295      -575.2513307106 -3.87E-05
    46 OT DIIS     0.15E+00    5.6     0.00001302      -575.2513595783 -2.89E-05
    47 OT DIIS     0.15E+00    5.4     0.00001263      -575.2513809963 -2.14E-05
    48 OT DIIS     0.15E+00    6.0     0.00001245      -575.2514116442 -3.06E-05
    49 OT DIIS     0.15E+00    5.8     0.00001238      -575.2514353410 -2.37E-05
    50 OT DIIS     0.15E+00    5.7     0.00001234      -575.2514559428 -2.06E-05
    51 OT DIIS     0.15E+00    5.5     0.00001444      -575.2514743192 -1.84E-05
    52 OT DIIS     0.15E+00    6.0     0.00001198      -575.2515296643 -5.53E-05
    53 OT DIIS     0.15E+00    5.9     0.00001139      -575.2515589663 -2.93E-05
    54 OT DIIS     0.15E+00    5.4     0.00001081      -575.2516216756 -6.27E-05
    55 OT DIIS     0.15E+00    6.1     0.00001066      -575.2516689854 -4.73E-05
    56 OT SD       0.15E+00    5.7     0.00001075      -575.2517029289 -3.39E-05
    57 OT DIIS     0.15E+00    5.4     0.00000975      -575.2517046070 -1.68E-06

  *** SCF run converged in    57 steps ***


  Electronic density on regular grids:       -388.9999979667        0.0000020333
  Core density on regular grids:              388.9999992023       -0.0000007977
[...]
 flops    69 x    32 x     3            104049792       0.0%    100.0%      0.0%
 flops    64 x    32 x     2            114147328       0.0%    100.0%      0.0%
 flops    64 x    34 x    21            115519488       0.0%    100.0%      0.0%
 flops    64 x    35 x    21            118917120       0.0%    100.0%      0.0%
 flops    68 x    34 x    22            129398016       0.0%    100.0%      0.0%
 flops    69 x    34 x    22            131300928       0.0%    100.0%      0.0%
 flops    68 x    35 x    22            133203840       0.0%    100.0%      0.0%
 flops    69 x    35 x    22            135162720       0.0%    100.0%      0.0%
 flops    34 x    32 x    21            144582144       0.0%    100.0%      0.0%
 flops    35 x    32 x    21            148834560       0.0%    100.0%      0.0%
 flops    64 x    32 x     3            170237952       0.0%    100.0%      0.0%
 flops    64 x    34 x    22            241274880       0.0%    100.0%      0.0%
 flops    64 x    35 x    22            248371200       0.0%    100.0%      0.0%
 flops    32 x    34 x    23            252642304       0.0%    100.0%      0.0%
 flops    32 x    35 x    23            260072960       0.0%    100.0%      0.0%
 flops    34 x    34 x    23            268432448       0.0%    100.0%      0.0%
 flops    32 x    32 x    21            272498688       0.0%    100.0%      0.0%
 flops    35 x    35 x    23            284454800       0.0%    100.0%      0.0%
 flops    34 x    32 x    22            301593600       0.0%    100.0%      0.0%
 flops    35 x    32 x    22            310464000       0.0%    100.0%      0.0%
 flops     1 x    32 x     1            318560000       0.0%    100.0%      0.0%
 flops     1 x     4 x    32            434411520       0.0%    100.0%      0.0%
 flops     4 x     1 x    32            440236032       0.0%    100.0%      0.0%
 flops    68 x    34 x    23            541118976       0.0%    100.0%      0.0%
 flops    69 x    34 x    23            549076608       0.0%    100.0%      0.0%
 flops    68 x    35 x    23            557034240       0.0%    100.0%      0.0%
 flops    69 x    35 x    23            565225920       0.0%    100.0%      0.0%
 flops    32 x    32 x    22            568426496       0.0%    100.0%      0.0%
 flops    68 x    32 x    21            581253120       0.0%    100.0%      0.0%
 flops    32 x    34 x    32            581984256       0.0%    100.0%      0.0%
 flops    69 x    32 x    21            589800960       0.0%    100.0%      0.0%
 flops    32 x    35 x    32            595660800       0.0%    100.0%      0.0%
 flops    34 x    34 x    32            618358272       0.0%    100.0%      0.0%
 flops    35 x    35 x    32            651504000       0.0%    100.0%      0.0%
 flops    64 x    34 x    23           1010569216       0.0%    100.0%      0.0%
 flops    64 x    35 x    23           1040291840       0.0%    100.0%      0.0%
 flops    64 x    32 x    21           1091198976       0.0%    100.0%      0.0%
 flops    68 x    32 x    22           1217863680       0.0%    100.0%      0.0%
 flops    69 x    32 x    22           1235773440       0.0%    100.0%      0.0%
 flops    34 x    32 x    23           1264012288       0.0%    100.0%      0.0%
 flops    35 x    32 x    23           1301189120       0.0%    100.0%      0.0%
 flops    68 x    34 x    32           1393858560       0.0%    100.0%      0.0%
 flops    69 x    34 x    32           1414356480       0.0%    100.0%      0.0%
 flops    68 x    35 x    32           1434854400       0.0%    100.0%      0.0%
 flops    69 x    35 x    32           1455955200       0.0%    100.0%      0.0%
 flops     1 x    32 x     4           1836944384       0.0%    100.0%      0.0%
 flops     4 x    32 x     1           1836944384       0.0%    100.0%      0.0%
 flops    64 x    32 x    22           2276229120       0.0%    100.0%      0.0%
 flops    64 x    34 x    32           2327937024       0.0%    100.0%      0.0%
 flops    32 x    32 x    23           2382331904       0.0%    100.0%      0.0%
 flops    64 x    35 x    32           2382643200       0.0%    100.0%      0.0%
 flops     4 x     4 x    32           2617147392       0.0%    100.0%      0.0%
 flops    34 x    32 x    32           2910756864       0.0%    100.0%      0.0%
 flops    35 x    32 x    32           2979164160       0.0%    100.0%      0.0%
 flops    68 x    32 x    23           5092884480       0.0%    100.0%      0.0%
 flops    69 x    32 x    23           5167779840       0.0%    100.0%      0.0%
 flops    32 x    32 x    32           5463343104       0.0%    100.0%      0.0%
 flops    64 x    32 x    23           9539878912       0.0%    100.0%      0.0%
 flops     4 x    32 x     4          10756624384       0.0%    100.0%      0.0%
 flops    68 x    32 x    32          13127581696       0.0%    100.0%      0.0%
 flops    69 x    32 x    32          13327417344       0.0%    100.0%      0.0%
 flops    64 x    32 x    32          21865955328       0.0%    100.0%      0.0%
 flops inhomo. stacks                  4088356850     100.0%      0.0%      0.0%
 flops total                       136.967060E+09       3.0%     97.0%      0.0%
 flops max/rank                      7.040067E+09       3.1%     96.9%      0.0%
 matmuls inhomo. stacks                     45594     100.0%      0.0%      0.0%
 matmuls total                           44526468       0.1%     99.9%      0.0%
 number of processed stacks               2384984       1.9%     98.1%      0.0%
 average stack size                                     1.0      19.0       0.0
 marketing flops                   147.211502E+09
 -------------------------------------------------------------------------------
 # multiplications                           7267
 max memory usage/rank             770.502656E+06
 # max total images/rank                        3
 # max 3D layers                                1
 # MPI messages exchanged                 3313752
 MPI messages size (bytes):
  total size                        22.066252E+09
  min size                           0.000000E+00
  max size                          20.992000E+03
  average size                       6.658993E+03
 MPI breakdown and total messages size (bytes):
             size <=      128              897502                      624
       128 < size <=     8192             1369392               8339239368
      8192 < size <=    32768             1046858              13727039584
     32768 < size <=   131072                   0                        0
    131072 < size <=  4194304                   0                        0
   4194304 < size <= 16777216                   0                        0
  16777216 < size                               0                        0
 -------------------------------------------------------------------------------

 *** WARNING in dbcsr_mm.F:294 :: Using a non-square number of MPI ranks ***
 *** might lead to poor performance. Used ranks: 24 Suggested: 25 49     ***

 -------------------------------------------------------------------------------
 -                                                                             -
 -                      DBCSR MESSAGE PASSING PERFORMANCE                      -
 -                                                                             -
 -------------------------------------------------------------------------------
 ROUTINE             CALLS      AVE VOLUME [Bytes]
 MP_Bcast              239                     12.
 MP_Allreduce        39494                      8.
 MP_Alltoall         24189                   5264.
 MP_ISend           329706                   3727.
 MP_IRecv           325834                   3389.
 -------------------------------------------------------------------------------

 -------------------------------------------------------------------------------
 -                                                                             -
 -                                GRID STATISTICS                              -
 -                                                                             -
 -------------------------------------------------------------------------------
 LP    KERNEL             BACKEND                              COUNT     PERCENT
 1     collocate ortho    REF                                7382076      23.64%
 1     integrate ortho    REF                                7335354      23.49%
 2     collocate ortho    REF                                5028824      16.10%
 2     integrate ortho    REF                                4996996      16.00%
 0     collocate ortho    REF                                3248480      10.40%
 0     integrate ortho    REF                                3227920      10.34%
 0     collocate general  REF                                   4800       0.02%
 0     integrate general  REF                                   4800       0.02%
 -------------------------------------------------------------------------------

 MEMORY| Estimated peak process memory [MiB]                                 736

 -------------------------------------------------------------------------------
 ----                             MULTIGRID INFO                            ----
 -------------------------------------------------------------------------------
 count for grid        1:         172858          cutoff [a.u.]          110.00
 count for grid        2:          92753          cutoff [a.u.]           36.67
 count for grid        3:          58967          cutoff [a.u.]           12.22
 count for grid        4:          20657          cutoff [a.u.]            4.07
 total gridlevel count  :         345235

 -------------------------------------------------------------------------------
 -                                                                             -
 -                         MESSAGE PASSING PERFORMANCE                         -
 -                                                                             -
 -------------------------------------------------------------------------------

 ROUTINE             CALLS      AVE VOLUME [Bytes]
 MP_Group                4
 MP_Bcast            15074                  69099.
 MP_Allreduce        39229                    258.
 MP_Sync               642
 MP_Alltoall          5836               37749026.
 MP_ISendRecv        28980                 182448.
 MP_Wait             70054
 MP_comm_split         319
 MP_ISend            36652                 686384.
 MP_IRecv            36652                 686395.
 MP_Recv                96                  70144.
 -------------------------------------------------------------------------------


 -------------------------------------------------------------------------------
 -                                                                             -
 -                           R E F E R E N C E S                               -
 -                                                                             -
 -------------------------------------------------------------------------------
 
 CP2K version 8.2, the CP2K developers group (2021).
 CP2K is freely available from https://www.cp2k.org/ .

 Kuehne,Thomas D.; Iannuzzi,Marcella; Del Ben,Mauro;
 Rybkin,Vladimir V.; Seewald,Patrick; Stein,Frederick; Laino,Teodoro;
 Khaliullin,Rustam Z.; Schuett,Ole; Schiffmann,Florian; Golze,Dorothea;
 Wilhelm,Jan; Chulkov,Sergey; Bani-Hashemian,Mohammad Hossein;
 Weber,Valery; Borstnik,Urban; Taillefumier,Mathieu;
 Jakobovits,Alice Shoshana; Lazzaro,Alfio; Pabst,Hans; Mueller,Tiziano;
 Schade,Robert; Guidon,Manuel; Andermatt,Samuel; Holmberg,Nico;
 Schenter,Gregory K.; Hehn,Anna; Bussy,Augustin; Belleflamme,Fabian;
 Tabacchi,Gloria; Gloess,Andreas; Lass,Michael; Bethune,Iain;
 Mundy,Christopher J.; Plessl,Christian; Watkins,Matt;
 VandeVondele,Joost; Krack,Matthias; Hutter,Juerg. 
 The Journal of Chemical Physics, 152 (19), (2020). 
 CP2K: An electronic structure and molecular dynamics software package -
 Quickstep: Efficient and accurate electronic structure calculations.
 https://doi.org/10.1063/5.0007045

 Goerigk, Lars; Hansen, Andreas; Bauer, Christoph; Ehrlich, Stephan;
 Najibi, Asim; Grimme, Stefan. , 19 (48), (2017). 
 A look at the density functional theory zoo with the advanced GMTKN55 database
 for general main group thermochemistry, kinetics and noncovalent interactions.
 https://doi.org/10.1039/C7CP04913G

 Schuett, Ole; Messmer, Peter; Hutter, Juerg; VandeVondele, Joost. 
 Electronic Structure Calculations on Graphics Processing Units, John
 Wiley & Sons, Ltd, 173-190 (2016). 
 GPU-Accelerated Sparse Matrix-Matrix Multiplication for
 Linear Scaling Density Functional Theory.
 https://doi.org/10.1002/9781118670712.ch8

 Heinecke, A; Henry, G; Hutchinson, M; Pabst, H. 
 Proceedings of Intl. Supercomputing Conference, 981-991 (2016). 
 LIBXSMM: Accelerating Small Matrix Multiplications
 by Runtime Code Generation.
 https://doi.org/10.1109/SC.2016.83

 Borstnik, U; VandeVondele, J; Weber, V; Hutter, J. 
 PARALLEL COMPUTING, 40 (5-6), 47-58 (2014). 
 Sparse matrix multiplication: The distributed block-compressed sparse
 row library.
 https://doi.org/10.1016/j.parco.2014.03.012

 Hutter, J; Iannuzzi, M; Schiffmann, F; VandeVondele, J. 
 WIREs Comput Mol Sci., 4 (1), 15-25 (2014). 
 CP2K: atomistic simulations of condensed matter systems.
 https://doi.org/10.1002/wcms.1159

 Grimme, S; Ehrlich, S; Goerigk, L. 
 JOURNAL OF COMPUTATIONAL CHEMISTRY, 32, 1456 (2011). 
 Effect of the damping function in dispersion corrected density functional theory.
 https://doi.org/10.1002/jcc.21759

 Grimme, S; Antony, J; Ehrlich, S; Krieg, H. 
 JOURNAL OF CHEMICAL PHYSICS, 132 (15), 154104 (2010). 
 A consistent and accurate ab initio parametrization of density
 functional dispersion correction (DFT-D) for the 94 elements H-Pu.
 https://doi.org/10.1063/1.3382344

 VandeVondele, J; Hutter, J. 
 JOURNAL OF CHEMICAL PHYSICS, 127 (11), 114105 (2007). 
 Gaussian basis sets for accurate calculations on molecular systems in
 gas and condensed phases.
 https://doi.org/10.1063/1.2770708

 Krack, M. 
 THEORETICAL CHEMISTRY ACCOUNTS, 114 (1-3), 145-152 (2005). 
 Pseudopotentials for H to Kr optimized for gradient-corrected
 exchange-correlation functionals.
 https://doi.org/10.1007/s00214-005-0655-y

 VandeVondele, J; Krack, M; Mohamed, F; Parrinello, M; Chassaing, T;
 Hutter, J. COMPUTER PHYSICS COMMUNICATIONS, 167 (2), 103-128 (2005). 
 QUICKSTEP: Fast and accurate density functional calculations using a
 mixed Gaussian and plane waves approach.
 https://doi.org/10.1016/j.cpc.2004.12.014

 Frigo, M; Johnson, SG. 
 PROCEEDINGS OF THE IEEE, 93 (2), 216-231 (2005). 
 The design and implementation of FFTW3.
 https://doi.org/10.1109/JPROC.2004.840301

 VandeVondele, J; Hutter, J. 
 JOURNAL OF CHEMICAL PHYSICS, 118 (10), 4365-4369 (2003). 
 An efficient orbital transformation method for electronic structure
 calculations.
 https://doi.org/10.1063/1.1543154

 Hartwigsen, C; Goedecker, S; Hutter, J. 
 PHYSICAL REVIEW B, 58 (7), 3641-3662 (1998). 
 Relativistic separable dual-space Gaussian pseudopotentials from H to Rn.
 https://doi.org/10.1103/PhysRevB.58.3641

 Lippert, G; Hutter, J; Parrinello, M. 
 MOLECULAR PHYSICS, 92 (3), 477-487 (1997). 
 A hybrid Gaussian and plane wave density functional scheme.
 https://doi.org/10.1080/002689797170220

 Perdew, JP; Burke, K; Ernzerhof, M. 
 PHYSICAL REVIEW LETTERS, 77 (18), 3865-3868 (1996). 
 Generalized gradient approximation made simple.
 https://doi.org/10.1103/PhysRevLett.77.3865

 Goedecker, S; Teter, M; Hutter, J. 
 PHYSICAL REVIEW B, 54 (3), 1703-1710 (1996). 
 Separable dual-space Gaussian pseudopotentials.
 https://doi.org/10.1103/PhysRevB.54.1703


 -------------------------------------------------------------------------------
 -                                                                             -
 -                                T I M I N G                                  -
 -                                                                             -
 -------------------------------------------------------------------------------
 SUBROUTINE                       CALLS  ASD         SELF TIME        TOTAL TIME
                                MAXIMUM       AVERAGE  MAXIMUM  AVERAGE  MAXIMUM
 CP2K                                 1  1.0    0.310    0.367  890.948  890.951
 qs_energies                          1  2.0    0.000    0.000  888.281  888.282
 scf_env_do_scf                       1  3.0    0.000    0.001  885.588  885.589
 scf_env_do_scf_inner_loop          157  4.0    0.005    0.032  877.464  877.468
 qs_ks_update_qs_env                159  5.0    0.002    0.003  681.664  681.697
 rebuild_ks_matrix                  157  6.0    0.001    0.001  681.623  681.656
 qs_ks_build_kohn_sham_matrix       157  7.0    0.032    0.038  681.622  681.655
 pw_transfer                       5506  9.7    0.463    0.564  624.687  671.828
 fft_wrap_pw1pw2                   5192 10.8    0.076    0.093  622.056  670.070
 fft_wrap_pw1pw2_110               3302 11.9   29.348   38.802  590.810  639.168
 fft3d_ps                          5192 12.8  246.330  265.249  463.222  543.710
 qs_vxc_create                      157  8.0    0.005    0.007  505.281  507.735
 xc_vxc_pw_create                   157  9.0    9.930   10.693  505.276  507.732
 mp_alltoall_z22v                  5192 14.8  163.232  286.257  163.232  286.257
 xc_rho_set_and_dset_create         157 10.0    3.837    4.848  229.174  261.533
 yz_to_x                           2521 13.1   27.022   30.009  122.574  194.345
 qs_rho_update_rho                  158  5.0    0.001    0.002  189.276  189.280
 calculate_rho_elec                 316  6.0    1.545    1.589  189.275  189.279
 density_rs2pw                      316  7.0    0.019    0.024  162.621  169.388
 sum_up_and_integrate               157  8.0    1.275    1.731  135.922  135.928
 integrate_v_rspace                 314  9.0    0.013    0.015  134.646  135.221
 x_to_yz                           2671 14.4   26.507   34.781   94.186  129.647
 potential_pw2rs                    314 10.0    0.092    0.114  110.655  111.239
 rs_pw_transfer                    2524  9.5    0.048    0.058   82.577   90.815
 pw_gather_p                       2521 12.1   79.378   88.583   79.378   88.583
 xc_functional_eval                 157 11.0    0.002    0.003   41.878   73.918
 pbe_lsd_eval                       157 12.0   41.876   73.916   41.876   73.916
 mp_waitany                       36652 11.5   35.845   55.804   35.845   55.804
 pw_scatter_p                      2671 13.4   49.101   53.650   49.101   53.650
 grid_collocate_task_list           316  7.0   21.788   37.754   21.788   37.754
 rs_pw_transfer_RS2PW_110           318  9.0    8.244   11.505   27.671   35.508
 pw_derive                         1884 10.5   22.783   30.593   22.783   30.593
 fft_wrap_pw1pw2_40                 630 11.5    0.769    1.075   24.872   30.390
 rs_pw_transfer_PW2RS_110           316 12.0   11.436   15.444   23.119   26.225
 grid_integrate_task_list           314 10.0   12.890   23.770   12.890   23.770
 mp_sum_d                         13126 11.0    8.785   17.906    8.785   17.906
 -------------------------------------------------------------------------------

 The number of warnings for this run is : 2
 
 -------------------------------------------------------------------------------
  **** **** ******  **  PROGRAM ENDED AT                 2023-12-05 13:57:32.974
 ***** ** ***  *** **   PROGRAM RAN ON               milan30.int.triton.aalto.fi
 **    ****   ******    PROGRAM RAN BY                                   huangj4
 ***** **    ** ** **   PROGRAM PROCESS ID                                 37625
  **** **  *******  **  PROGRAM STOPPED IN /scratch/phys/sin/Jie/Github/cp2kTest
                                           /PDOSNaked234/Cluster_222
