# Projected DOS for atomic kind N at iteration step i = 0, E(Fermi) =    -0.110416 a.u.
#     MO Eigenvalue [a.u.]      Occupation                 s                py                pz                px
       1         -0.913496        1.000000        0.00000006        0.00000000        0.00000000        0.00000000
       2         -0.907853        1.000000        0.00000044        0.00000004        0.00000001        0.00000001
       3         -0.905423        1.000000        0.00006291        0.00000363        0.00000006        0.00000009
       4         -0.905068        1.000000        0.00000002        0.00000000        0.00000000        0.00000000
       5         -0.900237        1.000000        0.00002014        0.00000110        0.00000000        0.00000016
       6         -0.895034        1.000000        0.00000000        0.00000000        0.00000000        0.00000000
       7         -0.894120        1.000000        0.00000001        0.00000000        0.00000001        0.00000000
       8         -0.892637        1.000000        0.00000092        0.00000000        0.00000000        0.00000001
       9         -0.888455        1.000000        0.00000090        0.00000000        0.00000000        0.00000003
      10         -0.888165        1.000000        0.00002694        0.00000075        0.00000008        0.00000172
      11         -0.887598        1.000000        0.00000001        0.00000000        0.00000000        0.00000000
      12         -0.886643        1.000000        0.00311520        0.00005713        0.00000134        0.00000150
      13         -0.883095        1.000000        0.00000010        0.00000000        0.00000000        0.00000000
      14         -0.882592        1.000000        0.00174165        0.00002090        0.00000118        0.00000005
      15         -0.875608        1.000000        0.61171182        0.00000772        0.00004815        0.00013580
      16         -0.874925        1.000000        0.61406888        0.00000044        0.00000363        0.00023231
      17         -0.874036        1.000000        0.00002411        0.00000009        0.00000041        0.00000037
      18         -0.873992        1.000000        0.00002651        0.00000001        0.00000000        0.00000000
      19         -0.873530        1.000000        0.00000060        0.00000000        0.00000000        0.00000000
      20         -0.871901        1.000000        0.00180182        0.00000472        0.00001748        0.00002177
      21         -0.871531        1.000000        0.00000001        0.00000000        0.00000001        0.00000002
      22         -0.870981        1.000000        0.00030009        0.00000002        0.00000001        0.00000089
      23         -0.870401        1.000000        0.00020957        0.00000009        0.00000059        0.00000078
      24         -0.870394        1.000000        0.00001041        0.00000014        0.00000001        0.00000013
      25         -0.868933        1.000000        0.14748594        0.00000796        0.00002025        0.00002420
      26         -0.868761        1.000000        0.00000004        0.00000000        0.00000000        0.00000000
      27         -0.868170        1.000000        0.45673052        0.00000168        0.00004586        0.00007582
      28         -0.866629        1.000000        0.01746913        0.00000233        0.00013898        0.00021738
      29         -0.865684        1.000000        0.00000364        0.00000000        0.00000000        0.00000001
      30         -0.865021        1.000000        0.00164661        0.00001142        0.00003374        0.00000723
      31         -0.863901        1.000000        0.00201360        0.00000001        0.00000008        0.00000003
      32         -0.863679        1.000000        0.60254069        0.00000279        0.00002691        0.00000368
      33         -0.861830        1.000000        0.00192935        0.00001023        0.00007445        0.00000492
      34         -0.861403        1.000000        0.00669451        0.00021074        0.00003353        0.00005659
      35         -0.860408        1.000000        0.00001937        0.00000020        0.00000009        0.00000014
      36         -0.860012        1.000000        0.00134387        0.00000007        0.00000008        0.00000083
      37         -0.859448        1.000000        0.00007522        0.00000059        0.00002093        0.00000071
      38         -0.857742        1.000000        0.00003032        0.00000865        0.00001969        0.00000222
      39         -0.856838        1.000000        0.00000159        0.00000177        0.00000073        0.00000019
      40         -0.855826        1.000000        0.00016588        0.00000014        0.00000044        0.00000042
      41         -0.855623        1.000000        0.00001495        0.00000001        0.00000000        0.00000080
      42         -0.855360        1.000000        0.00019254        0.00011045        0.00001478        0.00000008
      43         -0.855083        1.000000        0.00034936        0.00000104        0.00000432        0.00000055
      44         -0.854286        1.000000        0.00023340        0.00000003        0.00000008        0.00000117
      45         -0.854126        1.000000        0.00047214        0.00016465        0.00002084        0.00000194
      46         -0.851648        1.000000        0.00205756        0.00002599        0.00000344        0.00002102
      47         -0.851561        1.000000        0.00028706        0.00000021        0.00000217        0.00000056
      48         -0.851052        1.000000        0.00017074        0.00000103        0.00000221        0.00000104
      49         -0.850380        1.000000        0.00007977        0.00000166        0.00000059        0.00000049
      50         -0.850084        1.000000        0.00014580        0.00000041        0.00000368        0.00000051
      51         -0.847499        1.000000        0.00030253        0.00007929        0.00006964        0.00001091
      52         -0.847252        1.000000        0.01918695        0.00000555        0.00010192        0.00001828
      53         -0.846823        1.000000        0.00010443        0.00000006        0.00000320        0.00000069
      54         -0.845588        1.000000        0.00022979        0.00000169        0.00000198        0.00000052
      55         -0.845193        1.000000        0.00037782        0.00000021        0.00001507        0.00000225
      56         -0.844544        1.000000        0.00298260        0.00001383        0.00000076        0.00001783
      57         -0.844415        1.000000        0.00228082        0.00000069        0.00000806        0.00000109
      58         -0.842997        1.000000        0.00172584        0.00007840        0.00002334        0.00000319
      59         -0.842837        1.000000        0.00019018        0.00004793        0.00001777        0.00000171
      60         -0.842672        1.000000        0.00036185        0.00009418        0.00003831        0.00000229
      61         -0.841181        1.000000        0.00174627        0.00014413        0.00006198        0.00000157
      62         -0.840906        1.000000        0.00994672        0.00000335        0.00001756        0.00000106
      63         -0.840229        1.000000        0.00115059        0.00000374        0.00000142        0.00000114
      64         -0.840118        1.000000        0.00018084        0.00000487        0.00000110        0.00000050
      65         -0.839171        1.000000        0.00883633        0.00006000        0.00000299        0.00000769
      66         -0.838851        1.000000        0.00001792        0.00000010        0.00000089        0.00000013
      67         -0.838507        1.000000        0.00178259        0.00000403        0.00000097        0.00000042
      68         -0.837346        1.000000        0.00102877        0.00014432        0.00001237        0.00000179
      69         -0.835449        1.000000        0.00011563        0.00000162        0.00001034        0.00000116
      70         -0.834766        1.000000        0.00264856        0.00000088        0.00000127        0.00000033
      71         -0.834227        1.000000        0.00689076        0.00001849        0.00000066        0.00000256
      72         -0.833803        1.000000        0.01448681        0.00000057        0.00000417        0.00000175
      73         -0.832988        1.000000        0.00000266        0.00000002        0.00000006        0.00000001
      74         -0.832129        1.000000        0.00000023        0.00000001        0.00000000        0.00000000
      75         -0.831658        1.000000        0.00242710        0.00000557        0.00000016        0.00000216
      76         -0.830219        1.000000        0.01277056        0.00002742        0.00000003        0.00001209
      77         -0.828893        1.000000        0.10684807        0.00000338        0.00000431        0.00007046
      78         -0.827008        1.000000        0.12036229        0.00001174        0.00000155        0.00000863
      79         -0.826474        1.000000        0.01874456        0.00000894        0.00000025        0.00000600
      80         -0.826140        1.000000        0.04910137        0.00002315        0.00000008        0.00002060
      81         -0.825867        1.000000        0.00028300        0.00000126        0.00000160        0.00000012
      82         -0.825826        1.000000        0.00028687        0.00000005        0.00000009        0.00000034
      83         -0.824975        1.000000        0.00023215        0.00000057        0.00000004        0.00000004
      84         -0.823050        1.000000        0.02584688        0.00005641        0.00000089        0.00000145
      85         -0.822646        1.000000        0.03493804        0.00000847        0.00000342        0.00000064
      86         -0.822161        1.000000        0.00721562        0.00000129        0.00000991        0.00001557
      87         -0.820953        1.000000        0.00003753        0.00000009        0.00000001        0.00000001
      88         -0.820191        1.000000        0.26375304        0.00017059        0.00045874        0.00070669
      89         -0.818528        1.000000        0.00250222        0.00000141        0.00000482        0.00000624
      90         -0.818490        1.000000        0.00007584        0.00000020        0.00000072        0.00000005
      91         -0.818045        1.000000        0.00372907        0.00001216        0.00000884        0.00000015
      92         -0.816121        1.000000        0.05408115        0.00003007        0.00001460        0.00001008
      93         -0.815830        1.000000        0.00027853        0.00000148        0.00000015        0.00000043
      94         -0.814646        1.000000        0.00451320        0.00000488        0.00001945        0.00002026
      95         -0.814483        1.000000        0.07186346        0.00007736        0.00008721        0.00002861
      96         -0.814352        1.000000        0.00943421        0.00001031        0.00004297        0.00004439
      97         -0.814060        1.000000        0.08220111        0.00001610        0.00010512        0.00004282
      98         -0.813315        1.000000        0.06670874        0.00000181        0.00008711        0.00005119
      99         -0.812875        1.000000        0.02156109        0.00002273        0.00001473        0.00001047
     100         -0.812250        1.000000        0.00470112        0.00000601        0.00001851        0.00001967
     101         -0.810024        1.000000        0.01487611        0.00000488        0.00006234        0.00016082
     102         -0.805573        1.000000        0.07105756        0.00003514        0.00013812        0.00017509
     103         -0.805292        1.000000        0.09347056        0.00032359        0.00105483        0.00088639
     104         -0.805225        1.000000        0.00007070        0.00000274        0.00000055        0.00000161
     105         -0.804152        1.000000        0.07509131        0.00032784        0.00010400        0.00039905
     106         -0.804001        1.000000        0.00273535        0.00001264        0.00000339        0.00001449
     107         -0.801953        1.000000        0.10783936        0.00001651        0.00086972        0.00021110
     108         -0.801951        1.000000        0.00000614        0.00000000        0.00000005        0.00000001
     109         -0.797995        1.000000        0.28846393        0.00291704        0.00019808        0.00176552
     110         -0.797542        1.000000        0.00006123        0.00000469        0.00000120        0.00000163
     111         -0.797454        1.000000        0.00000276        0.00000001        0.00000007        0.00000000
     112         -0.793686        1.000000        0.00000415        0.00000002        0.00000012        0.00000010
     113         -0.793325        1.000000        0.00451949        0.00003673        0.00001799        0.00002873
     114         -0.792839        1.000000        0.05348071        0.00040588        0.00144339        0.00099599
     115         -0.792300        1.000000        0.00000164        0.00000001        0.00000004        0.00000003
     116         -0.792128        1.000000        0.00367303        0.00003632        0.00002718        0.00007883
     117         -0.791217        1.000000        0.00046759        0.00000403        0.00001363        0.00000942
     118         -0.790948        1.000000        0.00001316        0.00000009        0.00000031        0.00000077
     119         -0.786133        1.000000        0.00000000        0.00000000        0.00000000        0.00000000
     120         -0.780412        1.000000        0.00434351        0.00011101        0.00002155        0.00011012
     121         -0.769396        1.000000        0.00000002        0.00000002        0.00000002        0.00000000
     122         -0.765263        1.000000        0.00000008        0.00000007        0.00000139        0.00000063
     123         -0.757220        1.000000        0.00005899        0.00000427        0.00000037        0.00000359
     124         -0.716407        1.000000        0.00000001        0.00000001        0.00000000        0.00000000
     125         -0.622125        1.000000        0.01650069        0.00000923        0.00290114        0.19210740
     126         -0.617622        1.000000        0.01751570        0.00001461        0.01113657        0.17708403
     127         -0.617289        1.000000        0.02059867        0.00604675        0.00087623        0.17525002
     128         -0.616205        1.000000        0.01513673        0.00018771        0.02514912        0.17422074
     129         -0.584755        1.000000        0.02684855        0.00071269        0.00082059        0.16460953
     130         -0.583506        1.000000        0.02520139        0.01462439        0.08003547        0.07224250
     131         -0.575260        1.000000        0.02705728        0.00029523        0.09690686        0.06368745
     132         -0.559155        1.000000        0.00000122        0.00001980        0.00000747        0.00000082
     133         -0.558148        1.000000        0.00036060        0.00001720        0.00017574        0.00024980
     134         -0.551610        1.000000        0.00005851        0.00253482        0.00103805        0.00003305
     135         -0.536056        1.000000        0.00079352        0.00983792        0.00709453        0.00035732
     136         -0.534725        1.000000        0.00065974        0.01283268        0.00757820        0.00031245
     137         -0.529716        1.000000        0.00090642        0.03183042        0.00579734        0.00048438
     138         -0.526273        1.000000        0.00054424        0.03302509        0.02176953        0.00270114
     139         -0.525800        1.000000        0.00044647        0.02190824        0.02794768        0.00222571
     140         -0.524414        1.000000        0.00035913        0.04828105        0.01640416        0.00270063
     141         -0.522750        1.000000        0.00017264        0.01813713        0.01741807        0.00131684
     142         -0.520662        1.000000        0.00024971        0.01068309        0.01603302        0.00069972
     143         -0.519315        1.000000        0.00082105        0.00367180        0.00451741        0.00062477
     144         -0.519086        1.000000        0.00020961        0.00362478        0.03406197        0.00335339
     145         -0.518365        1.000000        0.00023498        0.01122097        0.01939464        0.00182503
     146         -0.517899        1.000000        0.00023516        0.00560186        0.00367908        0.00020135
     147         -0.517729        1.000000        0.00017266        0.00317209        0.00921818        0.00046437
     148         -0.516884        1.000000        0.00036157        0.01541248        0.02974641        0.00196087
     149         -0.515901        1.000000        0.00015046        0.00024183        0.00490874        0.00037371
     150         -0.514574        1.000000        0.00064198        0.01988773        0.00260653        0.00014620
     151         -0.514062        1.000000        0.00029323        0.01043695        0.03029178        0.00060009
     152         -0.512702        1.000000        0.00028288        0.00911096        0.05966794        0.00242554
     153         -0.511512        1.000000        0.00020649        0.00014918        0.00129859        0.00005400
     154         -0.508757        1.000000        0.00017642        0.00343004        0.01895097        0.00085899
     155         -0.507727        1.000000        0.00014945        0.00347373        0.00437307        0.00072590
     156         -0.507161        1.000000        0.00023050        0.00472576        0.01729992        0.00243333
     157         -0.505814        1.000000        0.00001299        0.00031712        0.00083986        0.00013111
     158         -0.504112        1.000000        0.00017298        0.02409890        0.01126869        0.00098284
     159         -0.503855        1.000000        0.00017346        0.02218116        0.00553233        0.00070716
     160         -0.503394        1.000000        0.00001881        0.00180167        0.00269871        0.00023612
     161         -0.501694        1.000000        0.00009902        0.00235594        0.00424254        0.00044462
     162         -0.499003        1.000000        0.00000618        0.00077342        0.00141749        0.00050202
     163         -0.498244        1.000000        0.00001361        0.00938840        0.01883633        0.00193482
     164         -0.497022        1.000000        0.00001742        0.01080266        0.00472766        0.00026079
     165         -0.496098        1.000000        0.00007660        0.32174623        0.15488251        0.00853496
     166         -0.495604        1.000000        0.00000982        0.00289828        0.00186644        0.00024626
     167         -0.495101        1.000000        0.00000880        0.01532076        0.00199407        0.00016593
     168         -0.493210        1.000000        0.00008368        0.38333933        0.11481366        0.01391266
     169         -0.492680        1.000000        0.00000829        0.01716826        0.00131376        0.00022261
     170         -0.491147        1.000000        0.00004731        0.24579931        0.23681575        0.02983168
     171         -0.487650        1.000000        0.00031752        0.26690040        0.21380918        0.01317918
     172         -0.485806        1.000000        0.00028709        0.08192947        0.37179063        0.01399378
     173         -0.481492        1.000000        0.00006455        0.23945860        0.23215131        0.01522879
     174         -0.481054        1.000000        0.00007231        0.26413857        0.17837222        0.01462968
     175         -0.477652        1.000000        0.00011400        0.16670054        0.34078834        0.00745516
     176         -0.473200        1.000000        0.00000781        0.00010979        0.00095952        0.00006335
     177         -0.467152        1.000000        0.00000698        0.00112438        0.00274818        0.00010707
     178         -0.463718        1.000000        0.00000045        0.00042373        0.00001310        0.00013329
     179         -0.463005        1.000000        0.00000046        0.00013297        0.00039691        0.00002612
     180         -0.459206        1.000000        0.00000151        0.00062391        0.00000816        0.00022890
     181         -0.457178        1.000000        0.00005631        0.01577388        0.10432487        0.00000728
     182         -0.455756        1.000000        0.00000736        0.02134554        0.30809878        0.00013043
     183         -0.455208        1.000000        0.00005419        0.02630121        0.02438293        0.00052393
     184         -0.454588        1.000000        0.00016920        0.45801865        0.06025259        0.00374715
     185         -0.453938        1.000000        0.00000556        0.00019630        0.00021405        0.00002451
     186         -0.453391        1.000000        0.00000037        0.00061229        0.00019525        0.00001486
     187         -0.449521        1.000000        0.00000281        0.00068412        0.00023714        0.00008482
     188         -0.448629        1.000000        0.00000068        0.00005943        0.00008963        0.00002047
     189         -0.447978        1.000000        0.00000004        0.00000026        0.00000138        0.00000757
     190         -0.447118        1.000000        0.00000483        0.00402782        0.00065824        0.00011550
     191         -0.445553        1.000000        0.00001287        0.30676585        0.10103814        0.14798167
     192         -0.445088        1.000000        0.00000805        0.00406201        0.00048941        0.00015181
     193         -0.444305        1.000000        0.00000378        0.00007495        0.00030158        0.00024991
     194         -0.443597        1.000000        0.00000014        0.00001107        0.00000405        0.00000488
     195         -0.442642        1.000000        0.00000549        0.00139736        0.00017874        0.00009005
     196         -0.442061        1.000000        0.00008770        0.23672081        0.00441231        0.00040158
     197         -0.441329        1.000000        0.00154931        0.00561896        0.12562147        0.28480919
     198         -0.441151        1.000000        0.00011876        0.13063861        0.00747209        0.00075374
     199         -0.439664        1.000000        0.00006460        0.00972544        0.00199972        0.00014273
     200         -0.437050        1.000000        0.00013966        0.00607980        0.00079134        0.00028188
     201         -0.436756        1.000000        0.00002241        0.00130841        0.00030297        0.00029936
     202         -0.436288        1.000000        0.00000501        0.00089567        0.00002823        0.00001241
     203         -0.435394        1.000000        0.00000071        0.00000367        0.00001493        0.00002596
     204         -0.434698        1.000000        0.00054585        0.00236198        0.06797215        0.00095588
     205         -0.434611        1.000000        0.00000080        0.00000674        0.00002943        0.00007044
     206         -0.433995        1.000000        0.00000356        0.00006700        0.00016020        0.00013745
     207         -0.433757        1.000000        0.00000001        0.00002107        0.00000553        0.00000161
     208         -0.433227        1.000000        0.00000079        0.00002185        0.00010485        0.00000097
     209         -0.432153        1.000000        0.00001925        0.00337654        0.00009361        0.00010823
     210         -0.431495        1.000000        0.00001412        0.00518056        0.00000344        0.00003118
     211         -0.431366        1.000000        0.00014452        0.05452929        0.00000588        0.00030928
     212         -0.429670        1.000000        0.00000148        0.00004376        0.00003393        0.00014728
     213         -0.429402        1.000000        0.00142250        0.12681394        0.11789576        0.10757808
     214         -0.428960        1.000000        0.00001034        0.00096606        0.00085638        0.00076563
     215         -0.427470        1.000000        0.00000637        0.00019650        0.00007039        0.00095662
     216         -0.425749        1.000000        0.00000627        0.00000808        0.00013132        0.00067194
     217         -0.425687        1.000000        0.00000689        0.00001608        0.00013808        0.00035846
     218         -0.425489        1.000000        0.00000502        0.00000355        0.00008888        0.00009587
     219         -0.425151        1.000000        0.00000079        0.00028519        0.00008440        0.00001886
     220         -0.424805        1.000000        0.00000147        0.00005985        0.00001919        0.00003465
     221         -0.424746        1.000000        0.00008011        0.00045227        0.00059775        0.00370937
     222         -0.424128        1.000000        0.00004760        0.00330245        0.00066939        0.00029963
     223         -0.423373        1.000000        0.00003844        0.00012661        0.00042352        0.00023060
     224         -0.422999        1.000000        0.00000435        0.00003139        0.00004416        0.00005902
     225         -0.422340        1.000000        0.00010076        0.00006587        0.00055050        0.00767712
     226         -0.422076        1.000000        0.00000582        0.00045221        0.00014353        0.00003675
     227         -0.422010        1.000000        0.00002299        0.00027534        0.00017009        0.00204479
     228         -0.421744        1.000000        0.00001456        0.00134673        0.00046759        0.00062734
     229         -0.421359        1.000000        0.00000296        0.00000738        0.00003324        0.00003646
     230         -0.421028        1.000000        0.00003775        0.00032932        0.00040114        0.00024403
     231         -0.420893        1.000000        0.00016116        0.01914299        0.00154029        0.00045947
     232         -0.420674        1.000000        0.00004846        0.00519837        0.00156734        0.00188818
     233         -0.420559        1.000000        0.00003290        0.00360881        0.00107138        0.00149354
     234         -0.420485        1.000000        0.00001243        0.00065258        0.00056609        0.00079436
     235         -0.419925        1.000000        0.00003024        0.00218896        0.00003527        0.00014639
     236         -0.419644        1.000000        0.00001105        0.00007746        0.00007004        0.00015630
     237         -0.419238        1.000000        0.00003252        0.00412204        0.00119024        0.00184490
     238         -0.418736        1.000000        0.00001288        0.00217162        0.00031607        0.00067101
     239         -0.418013        1.000000        0.00001031        0.00003042        0.00127531        0.00015339
     240         -0.417471        1.000000        0.00001772        0.00013903        0.00111682        0.00140307
     241         -0.416909        1.000000        0.00005245        0.00018999        0.00050048        0.00036201
     242         -0.416747        1.000000        0.00006328        0.00071015        0.00011164        0.00580735
     243         -0.416342        1.000000        0.00004863        0.00048053        0.00380052        0.00393692
     244         -0.416219        1.000000        0.00000145        0.00003769        0.00002925        0.00003051
     245         -0.415944        1.000000        0.00002170        0.00188250        0.00076894        0.00061634
     246         -0.415575        1.000000        0.00000188        0.00005501        0.00002176        0.00001852
     247         -0.413727        1.000000        0.00001678        0.00041581        0.00019146        0.00196738
     248         -0.413577        1.000000        0.00024828        0.01888074        0.01000940        0.00900379
     249         -0.413383        1.000000        0.00001364        0.00094390        0.00036706        0.00018448
     250         -0.412975        1.000000        0.00000174        0.00001484        0.00002011        0.00004653
     251         -0.412631        1.000000        0.00003899        0.00150154        0.00013811        0.00169292
     252         -0.411706        1.000000        0.00020230        0.01040729        0.00482372        0.00698222
     253         -0.411677        1.000000        0.00006757        0.00027928        0.00078379        0.00219099
     254         -0.411224        1.000000        0.00003272        0.00006540        0.00006125        0.00051866
     255         -0.410796        1.000000        0.00004229        0.00013452        0.00000519        0.00385872
     256         -0.409686        1.000000        0.00001494        0.00002136        0.00011650        0.00085066
     257         -0.409330        1.000000        0.00037087        0.00926840        0.01236501        0.00086660
     258         -0.408826        1.000000        0.00000476        0.00013108        0.00004581        0.00032545
     259         -0.408644        1.000000        0.00000062        0.00000770        0.00000931        0.00000904