# Projected DOS for atomic kind N at iteration step i = 0, E(Fermi) =    -0.110130 a.u.
#     MO Eigenvalue [a.u.]      Occupation                 s                py                pz                px
       1         -0.913496        1.000000        0.00000006        0.00000000        0.00000000        0.00000000
       2         -0.907854        1.000000        0.00000044        0.00000004        0.00000001        0.00000001
       3         -0.905420        1.000000        0.00006293        0.00000363        0.00000006        0.00000009
       4         -0.905066        1.000000        0.00000002        0.00000000        0.00000000        0.00000000
       5         -0.900237        1.000000        0.00002013        0.00000110        0.00000000        0.00000016
       6         -0.895049        1.000000        0.00000000        0.00000000        0.00000000        0.00000000
       7         -0.894095        1.000000        0.00000001        0.00000000        0.00000001        0.00000000
       8         -0.892601        1.000000        0.00000093        0.00000000        0.00000000        0.00000001
       9         -0.888456        1.000000        0.00000090        0.00000000        0.00000000        0.00000003
      10         -0.888023        1.000000        0.00002780        0.00000077        0.00000007        0.00000175
      11         -0.887598        1.000000        0.00000001        0.00000000        0.00000000        0.00000000
      12         -0.886642        1.000000        0.00311638        0.00005714        0.00000134        0.00000150
      13         -0.883086        1.000000        0.00000010        0.00000000        0.00000000        0.00000000
      14         -0.882588        1.000000        0.00174141        0.00002089        0.00000118        0.00000005
      15         -0.875639        1.000000        0.61153406        0.00000745        0.00004845        0.00013647
      16         -0.874908        1.000000        0.61405746        0.00000045        0.00000360        0.00023252
      17         -0.874190        1.000000        0.00002189        0.00000009        0.00000038        0.00000034
      18         -0.873992        1.000000        0.00006519        0.00000000        0.00000000        0.00000001
      19         -0.873521        1.000000        0.00000060        0.00000000        0.00000000        0.00000000
      20         -0.871909        1.000000        0.00182317        0.00000481        0.00001795        0.00002213
      21         -0.871529        1.000000        0.00000001        0.00000000        0.00000001        0.00000002
      22         -0.870968        1.000000        0.00029918        0.00000002        0.00000001        0.00000088
      23         -0.870415        1.000000        0.00021234        0.00000011        0.00000060        0.00000077
      24         -0.870077        1.000000        0.00000642        0.00000013        0.00000002        0.00000018
      25         -0.868930        1.000000        0.14881653        0.00000798        0.00002046        0.00002449
      26         -0.868524        1.000000        0.00000005        0.00000000        0.00000000        0.00000000
      27         -0.868169        1.000000        0.45540408        0.00000167        0.00004578        0.00007564
      28         -0.866655        1.000000        0.01751952        0.00000217        0.00014066        0.00021746
      29         -0.865666        1.000000        0.00000358        0.00000000        0.00000000        0.00000001
      30         -0.865013        1.000000        0.00164701        0.00001142        0.00003373        0.00000723
      31         -0.863891        1.000000        0.00183957        0.00000001        0.00000008        0.00000003
      32         -0.863659        1.000000        0.60269869        0.00000291        0.00002700        0.00000373
      33         -0.861828        1.000000        0.00191550        0.00001010        0.00007467        0.00000480
      34         -0.861401        1.000000        0.00668318        0.00021018        0.00003330        0.00005656
      35         -0.860156        1.000000        0.00002253        0.00000008        0.00000016        0.00000007
      36         -0.859992        1.000000        0.00134964        0.00000008        0.00000008        0.00000083
      37         -0.859415        1.000000        0.00007429        0.00000061        0.00002123        0.00000075
      38         -0.857716        1.000000        0.00002926        0.00000873        0.00001933        0.00000221
      39         -0.856831        1.000000        0.00000145        0.00000165        0.00000067        0.00000018
      40         -0.855847        1.000000        0.00021910        0.00000027        0.00000134        0.00000044
      41         -0.855561        1.000000        0.00000660        0.00000002        0.00000003        0.00000088
      42         -0.855358        1.000000        0.00019512        0.00011564        0.00001535        0.00000008
      43         -0.855319        1.000000        0.00044898        0.00000121        0.00000546        0.00000068
      44         -0.854279        1.000000        0.00023519        0.00000003        0.00000007        0.00000117
      45         -0.854123        1.000000        0.00045844        0.00016256        0.00002048        0.00000187
      46         -0.851737        1.000000        0.00098509        0.00001225        0.00000306        0.00000797
      47         -0.851643        1.000000        0.00100474        0.00001262        0.00000299        0.00000727
      48         -0.851533        1.000000        0.00028617        0.00000021        0.00000216        0.00000056
      49         -0.851244        1.000000        0.00029485        0.00000221        0.00000160        0.00000751
      50         -0.850199        1.000000        0.00015948        0.00000042        0.00000409        0.00000057
      51         -0.847500        1.000000        0.00032941        0.00008025        0.00007006        0.00001098
      52         -0.847172        1.000000        0.01965502        0.00000569        0.00010337        0.00001842
      53         -0.846995        1.000000        0.00018844        0.00000005        0.00000630        0.00000110
      54         -0.845933        1.000000        0.00034943        0.00000192        0.00000575        0.00000109
      55         -0.845692        1.000000        0.00032826        0.00000158        0.00000620        0.00000107
      56         -0.844532        1.000000        0.00299987        0.00001391        0.00000077        0.00001788
      57         -0.844409        1.000000        0.00222578        0.00000071        0.00000784        0.00000110
      58         -0.843039        1.000000        0.00162609        0.00005896        0.00001641        0.00000256
      59         -0.842836        1.000000        0.00032857        0.00008127        0.00002980        0.00000236
      60         -0.842661        1.000000        0.00039426        0.00008836        0.00003579        0.00000208
      61         -0.841170        1.000000        0.00175113        0.00013849        0.00005933        0.00000152
      62         -0.841000        1.000000        0.00625408        0.00000413        0.00001185        0.00000078
      63         -0.840375        1.000000        0.00385778        0.00000399        0.00000557        0.00000098
      64         -0.839248        1.000000        0.00726943        0.00004798        0.00000285        0.00000622
      65         -0.838900        1.000000        0.00001861        0.00000015        0.00000090        0.00000012
      66         -0.838675        1.000000        0.00369165        0.00001582        0.00000184        0.00000210
      67         -0.837363        1.000000        0.00102260        0.00014060        0.00001184        0.00000185
      68         -0.836400        1.000000        0.00001477        0.00000128        0.00000091        0.00000009
      69         -0.836101        1.000000        0.00007453        0.00000179        0.00000655        0.00000068
      70         -0.835220        1.000000        0.00242148        0.00000019        0.00000160        0.00000052
      71         -0.834135        1.000000        0.00672347        0.00001866        0.00000053        0.00000243
      72         -0.833769        1.000000        0.01301664        0.00000079        0.00000366        0.00000167
      73         -0.832971        1.000000        0.00000336        0.00000001        0.00000003        0.00000000
      74         -0.832098        1.000000        0.00000027        0.00000001        0.00000000        0.00000000
      75         -0.831653        1.000000        0.00247229        0.00000558        0.00000016        0.00000219
      76         -0.830225        1.000000        0.01341135        0.00002748        0.00000003        0.00001248
      77         -0.829025        1.000000        0.10510161        0.00000361        0.00000344        0.00006697
      78         -0.827050        1.000000        0.11118086        0.00001059        0.00000161        0.00001108
      79         -0.826656        1.000000        0.03450995        0.00001343        0.00000097        0.00000785
      80         -0.826471        1.000000        0.00257246        0.00000254        0.00000073        0.00000090
      81         -0.826126        1.000000        0.03909537        0.00001833        0.00000007        0.00001637
      82         -0.825827        1.000000        0.00029419        0.00000006        0.00000009        0.00000034
      83         -0.824011        1.000000        0.00118444        0.00000328        0.00000004        0.00000008
      84         -0.823182        1.000000        0.02258758        0.00001808        0.00000757        0.00001478
      85         -0.822943        1.000000        0.02061723        0.00004060        0.00000301        0.00000631
      86         -0.822544        1.000000        0.03022638        0.00000474        0.00000400        0.00000088
      87         -0.820947        1.000000        0.00004770        0.00000006        0.00000008        0.00000004
      88         -0.820165        1.000000        0.25652236        0.00016763        0.00044762        0.00068926
      89         -0.818829        1.000000        0.00740959        0.00000423        0.00001523        0.00001996
      90         -0.818596        1.000000        0.00003831        0.00000029        0.00000058        0.00000001
      91         -0.818032        1.000000        0.00385399        0.00001212        0.00000911        0.00000015
      92         -0.817099        1.000000        0.00007151        0.00000164        0.00000010        0.00000069
      93         -0.816173        1.000000        0.05002904        0.00002818        0.00001536        0.00001125
      94         -0.815175        1.000000        0.01342061        0.00001109        0.00003717        0.00004027
      95         -0.814441        1.000000        0.00406425        0.00000397        0.00000937        0.00000704
      96         -0.814428        1.000000        0.10221835        0.00008724        0.00012879        0.00004189
      97         -0.813532        1.000000        0.12186779        0.00000741        0.00015406        0.00008432
      98         -0.812905        1.000000        0.01432573        0.00001910        0.00001896        0.00001672
      99         -0.812603        1.000000        0.01080572        0.00001464        0.00003179        0.00003213
     100         -0.809917        1.000000        0.01477031        0.00000506        0.00006210        0.00016142
     101         -0.807002        1.000000        0.00001653        0.00000242        0.00000151        0.00000129
     102         -0.805596        1.000000        0.07238117        0.00003442        0.00014249        0.00017700
     103         -0.805254        1.000000        0.09294798        0.00032278        0.00105213        0.00088354
     104         -0.804171        1.000000        0.02176333        0.00009294        0.00003181        0.00012049
     105         -0.804077        1.000000        0.05699646        0.00025347        0.00007718        0.00030072
     106         -0.802007        1.000000        0.10691762        0.00001615        0.00086117        0.00020761
     107         -0.801943        1.000000        0.00000010        0.00000000        0.00000000        0.00000000
     108         -0.798942        1.000000        0.00003041        0.00000224        0.00000161        0.00000068
     109         -0.798303        1.000000        0.00018722        0.00000076        0.00000061        0.00000083
     110         -0.797939        1.000000        0.28652203        0.00291406        0.00019667        0.00175923
     111         -0.796589        1.000000        0.00000195        0.00000001        0.00000005        0.00000000
     112         -0.793300        1.000000        0.00448991        0.00003725        0.00001761        0.00002867
     113         -0.792822        1.000000        0.05324979        0.00040447        0.00143854        0.00099251
     114         -0.792099        1.000000        0.00358066        0.00003508        0.00002734        0.00007816
     115         -0.791326        1.000000        0.00052811        0.00000451        0.00001522        0.00001066
     116         -0.790882        1.000000        0.00004081        0.00000034        0.00000114        0.00000132
     117         -0.787013        1.000000        0.00000006        0.00000000        0.00000000        0.00000001
     118         -0.786189        1.000000        0.00000208        0.00000076        0.00000175        0.00000089
     119         -0.786024        1.000000        0.00000020        0.00000001        0.00000000        0.00000000
     120         -0.785316        1.000000        0.00000000        0.00000000        0.00000000        0.00000000
     121         -0.780389        1.000000        0.00435047        0.00011127        0.00002167        0.00011065
     122         -0.769286        1.000000        0.00000002        0.00000002        0.00000002        0.00000000
     123         -0.762696        1.000000        0.00000028        0.00000002        0.00000000        0.00000000
     124         -0.756801        1.000000        0.00005721        0.00000420        0.00000038        0.00000354
     125         -0.622144        1.000000        0.01648376        0.00000901        0.00289500        0.19213881
     126         -0.617617        1.000000        0.01751540        0.00001267        0.01113987        0.17709853
     127         -0.617276        1.000000        0.02063405        0.00606986        0.00085556        0.17523813
     128         -0.616194        1.000000        0.01513260        0.00018264        0.02517548        0.17422883
     129         -0.584757        1.000000        0.02684364        0.00071176        0.00081842        0.16461790
     130         -0.583497        1.000000        0.02521024        0.01462518        0.08006278        0.07225623
     131         -0.575245        1.000000        0.02709020        0.00029183        0.09694133        0.06371772
     132         -0.561274        1.000000        0.00000524        0.00002075        0.00001450        0.00000438
     133         -0.557786        1.000000        0.00034546        0.00001581        0.00015889        0.00023522
     134         -0.551188        1.000000        0.00004908        0.00218483        0.00091759        0.00002364
     135         -0.538685        1.000000        0.00072075        0.02072833        0.00045469        0.00011287
     136         -0.532498        1.000000        0.00062836        0.00514494        0.01117803        0.00029204
     137         -0.532375        1.000000        0.00023887        0.00300135        0.00401099        0.00013990
     138         -0.529096        1.000000        0.00082525        0.02466499        0.01031758        0.00095709
     139         -0.524995        1.000000        0.00015224        0.01875872        0.04962350        0.00381199
     140         -0.524289        1.000000        0.00109155        0.02665146        0.00813981        0.00075938
     141         -0.522027        1.000000        0.00014134        0.07365145        0.01505724        0.00417463
     142         -0.520755        1.000000        0.00025690        0.02125181        0.01814330        0.00157494
     143         -0.518315        1.000000        0.00022726        0.00500358        0.04574825        0.00445438
     144         -0.517984        1.000000        0.00006952        0.01189142        0.02659067        0.00087869
     145         -0.516599        1.000000        0.00068713        0.00224642        0.00194200        0.00037003
     146         -0.516303        1.000000        0.00056925        0.00513762        0.01106932        0.00059527
     147         -0.516249        1.000000        0.00034033        0.02338661        0.01684174        0.00126751
     148         -0.514277        1.000000        0.00071339        0.01643372        0.00691096        0.00032488
     149         -0.513486        1.000000        0.00023680        0.00421145        0.02976253        0.00132666
     150         -0.513116        1.000000        0.00008794        0.00320093        0.03650224        0.00097117
     151         -0.511563        1.000000        0.00003680        0.00578874        0.01156019        0.00045437
     152         -0.511090        1.000000        0.00011706        0.00599691        0.03672148        0.00166211
     153         -0.509720        1.000000        0.00048028        0.00538553        0.00632061        0.00056444
     154         -0.507696        1.000000        0.00022883        0.00231560        0.03704559        0.00237641
     155         -0.506162        1.000000        0.00018846        0.00492285        0.00441353        0.00088274
     156         -0.505742        1.000000        0.00001872        0.00687451        0.00021068        0.00002523
     157         -0.505479        1.000000        0.00015482        0.00438121        0.00248151        0.00035972
     158         -0.504985        1.000000        0.00007140        0.00145622        0.00629843        0.00075110
     159         -0.501193        1.000000        0.00027886        0.02229816        0.00223033        0.00126667
     160         -0.500836        1.000000        0.00008396        0.00760104        0.00777306        0.00047885
     161         -0.500056        1.000000        0.00002303        0.00206798        0.00227633        0.00031614
     162         -0.498111        1.000000        0.00001722        0.01609710        0.02119048        0.00199997
     163         -0.496566        1.000000        0.00008518        0.35895744        0.12386925        0.00677255
     164         -0.496209        1.000000        0.00001705        0.01781358        0.01343900        0.00140617
     165         -0.493706        1.000000        0.00001042        0.00302172        0.00397985        0.00070273
     166         -0.493473        1.000000        0.00003357        0.15217301        0.00609837        0.00051920
     167         -0.493105        1.000000        0.00006650        0.23704456        0.15054226        0.01729556
     168         -0.492559        1.000000        0.00000687        0.00923844        0.00431733        0.00058318
     169         -0.490822        1.000000        0.00005217        0.24565511        0.20563711        0.02544709
     170         -0.490627        1.000000        0.00001830        0.00198261        0.00113215        0.00013148
     171         -0.487525        1.000000        0.00031435        0.26328891        0.21097116        0.01308138
     172         -0.485502        1.000000        0.00032558        0.07039943        0.36760329        0.01443178
     173         -0.481436        1.000000        0.00006644        0.23854170        0.23130594        0.01512890
     174         -0.480184        1.000000        0.00008758        0.21605175        0.21493892        0.01215371
     175         -0.477066        1.000000        0.00011206        0.19402841        0.29353167        0.00876973
     176         -0.473164        1.000000        0.00000829        0.00010617        0.00109052        0.00007133
     177         -0.467152        1.000000        0.00000690        0.00113581        0.00274860        0.00010750
     178         -0.463716        1.000000        0.00000045        0.00042563        0.00001309        0.00013331
     179         -0.463004        1.000000        0.00000045        0.00013321        0.00039912        0.00002633
     180         -0.459201        1.000000        0.00000152        0.00062520        0.00000834        0.00022857
     181         -0.457024        1.000000        0.00005838        0.01820685        0.13817642        0.00000524
     182         -0.455717        1.000000        0.00000592        0.02196451        0.27269991        0.00015190
     183         -0.455158        1.000000        0.00005414        0.02427847        0.02602164        0.00051834
     184         -0.454561        1.000000        0.00017123        0.45627644        0.06002966        0.00378228
     185         -0.454301        1.000000        0.00000427        0.00021595        0.00046240        0.00001827
     186         -0.453384        1.000000        0.00000044        0.00067799        0.00020823        0.00001550
     187         -0.449521        1.000000        0.00000284        0.00068340        0.00023639        0.00008434
     188         -0.448616        1.000000        0.00000074        0.00006453        0.00009295        0.00002028
     189         -0.447967        1.000000        0.00000004        0.00000028        0.00000140        0.00000761
     190         -0.447118        1.000000        0.00000487        0.00409478        0.00066423        0.00011599
     191         -0.445540        1.000000        0.00001267        0.30635405        0.10120180        0.14809816
     192         -0.445081        1.000000        0.00000824        0.00428895        0.00049286        0.00015381
     193         -0.444285        1.000000        0.00000388        0.00007037        0.00031222        0.00024282
     194         -0.443594        1.000000        0.00000015        0.00001161        0.00000422        0.00000499
     195         -0.442760        1.000000        0.00000446        0.00138130        0.00017778        0.00009426
     196         -0.442073        1.000000        0.00009477        0.24716285        0.00450619        0.00042763
     197         -0.441324        1.000000        0.00154745        0.00557103        0.12568189        0.28475515
     198         -0.441164        1.000000        0.00011544        0.12083425        0.00697952        0.00073247
     199         -0.439664        1.000000        0.00006412        0.00940761        0.00194114        0.00014122
     200         -0.437035        1.000000        0.00014769        0.00681452        0.00071353        0.00026708
     201         -0.436608        1.000000        0.00000651        0.00052435        0.00005559        0.00005565
     202         -0.436544        1.000000        0.00001360        0.00030258        0.00041826        0.00029998
     203         -0.435379        1.000000        0.00000072        0.00000351        0.00001517        0.00002593
     204         -0.434699        1.000000        0.00054556        0.00239588        0.06788610        0.00095591
     205         -0.434600        1.000000        0.00000081        0.00000657        0.00002956        0.00007133
     206         -0.433733        1.000000        0.00000003        0.00002137        0.00000525        0.00000231
     207         -0.433671        1.000000        0.00000355        0.00007662        0.00016441        0.00014171
     208         -0.433291        1.000000        0.00000081        0.00000781        0.00012896        0.00000084
     209         -0.432129        1.000000        0.00001905        0.00312740        0.00009283        0.00010835
     210         -0.431490        1.000000        0.00001222        0.00444645        0.00000366        0.00002714
     211         -0.431352        1.000000        0.00014786        0.05540383        0.00000546        0.00031646
     212         -0.429644        1.000000        0.00000149        0.00004342        0.00003368        0.00014969
     213         -0.429374        1.000000        0.00140949        0.12636079        0.11716067        0.10691368
     214         -0.428953        1.000000        0.00001266        0.00118580        0.00105343        0.00094480
     215         -0.427441        1.000000        0.00000637        0.00019583        0.00006999        0.00095987
     216         -0.426052        1.000000        0.00001306        0.00001202        0.00022166        0.00005593
     217         -0.425710        1.000000        0.00000710        0.00000370        0.00016629        0.00092856
     218         -0.425523        1.000000        0.00000190        0.00000256        0.00004787        0.00014620
     219         -0.425141        1.000000        0.00000083        0.00029230        0.00008613        0.00002065
     220         -0.424790        1.000000        0.00000093        0.00005090        0.00001220        0.00002446
     221         -0.424715        1.000000        0.00007931        0.00045444        0.00060897        0.00371175
     222         -0.424122        1.000000        0.00004914        0.00344016        0.00070455        0.00030882
     223         -0.423521        1.000000        0.00003879        0.00017650        0.00044320        0.00021223
     224         -0.422994        1.000000        0.00000242        0.00002687        0.00002552        0.00004723
     225         -0.422558        1.000000        0.00004720        0.00485151        0.00184104        0.00192727
     226         -0.422318        1.000000        0.00010214        0.00003236        0.00056599        0.00766980
     227         -0.422069        1.000000        0.00000658        0.00051718        0.00016187        0.00003927
     228         -0.421995        1.000000        0.00002308        0.00027333        0.00017016        0.00205102
     229         -0.421688        1.000000        0.00000673        0.00069134        0.00021312        0.00032066
     230         -0.421338        1.000000        0.00000302        0.00000953        0.00003435        0.00003724
     231         -0.421125        1.000000        0.00003466        0.00026230        0.00036149        0.00021479
     232         -0.420934        1.000000        0.00016410        0.01951623        0.00163046        0.00044136
     233         -0.420581        1.000000        0.00000344        0.00005486        0.00012288        0.00045945
     234         -0.420485        1.000000        0.00000651        0.00003583        0.00032821        0.00056077
     235         -0.419931        1.000000        0.00003660        0.00309773        0.00024319        0.00040905
     236         -0.419636        1.000000        0.00001082        0.00007111        0.00006979        0.00015385
     237         -0.419357        1.000000        0.00007348        0.00918820        0.00240434        0.00368380
     238         -0.418787        1.000000        0.00000957        0.00163693        0.00025838        0.00041405
     239         -0.418005        1.000000        0.00000952        0.00002512        0.00128604        0.00014401
     240         -0.417469        1.000000        0.00003206        0.00017154        0.00036424        0.00017364
     241         -0.417442        1.000000        0.00001711        0.00013434        0.00108298        0.00135526
     242         -0.416733        1.000000        0.00006273        0.00071742        0.00010914        0.00584823
     243         -0.416324        1.000000        0.00004916        0.00048691        0.00385584        0.00398922
     244         -0.416213        1.000000        0.00000129        0.00003703        0.00002334        0.00002605
     245         -0.415925        1.000000        0.00002139        0.00185557        0.00076298        0.00060978
     246         -0.415575        1.000000        0.00000200        0.00006776        0.00002543        0.00002057
     247         -0.413707        1.000000        0.00001532        0.00030882        0.00013068        0.00191811
     248         -0.413583        1.000000        0.00025175        0.01931979        0.01022752        0.00906894
     249         -0.413373        1.000000        0.00001324        0.00089821        0.00035571        0.00016076
     250         -0.412969        1.000000        0.00000169        0.00000989        0.00001670        0.00004545
     251         -0.412679        1.000000        0.00004348        0.00222498        0.00028655        0.00160505
     252         -0.411686        1.000000        0.00020382        0.00986110        0.00468199        0.00725735
     253         -0.411650        1.000000        0.00006674        0.00014556        0.00075267        0.00216314
     254         -0.411185        1.000000        0.00003270        0.00006563        0.00005938        0.00051652
     255         -0.410792        1.000000        0.00004223        0.00012844        0.00000836        0.00380896
     256         -0.409654        1.000000        0.00001568        0.00002685        0.00012917        0.00087986
     257         -0.409398        1.000000        0.00035417        0.00888278        0.01190424        0.00082716
     258         -0.409046        1.000000        0.00002940        0.00062438        0.00110792        0.00027607
     259         -0.408732        1.000000        0.00000466        0.00011826        0.00003102        0.00046650