# Projected DOS for atomic kind C at iteration step i = 0, E(Fermi) =    -0.110416 a.u.
#     MO Eigenvalue [a.u.]      Occupation                 s                py                pz                px
       1         -0.913496        1.000000        0.00000001        0.00000000        0.00000001        0.00000001
       2         -0.907853        1.000000        0.00000006        0.00000003        0.00000000        0.00000005
       3         -0.905423        1.000000        0.00001211        0.00001654        0.00000100        0.00000144
       4         -0.905068        1.000000        0.00000001        0.00000002        0.00000000        0.00000001
       5         -0.900237        1.000000        0.00000186        0.00000018        0.00000007        0.00000219
       6         -0.895034        1.000000        0.00000000        0.00000000        0.00000000        0.00000000
       7         -0.894120        1.000000        0.00000000        0.00000000        0.00000001        0.00000000
       8         -0.892637        1.000000        0.00000045        0.00000005        0.00000056        0.00000033
       9         -0.888455        1.000000        0.00000064        0.00000000        0.00000141        0.00000043
      10         -0.888165        1.000000        0.00000204        0.00000002        0.00000000        0.00000240
      11         -0.887598        1.000000        0.00000000        0.00000000        0.00000000        0.00000000
      12         -0.886643        1.000000        0.00032546        0.00002113        0.00001352        0.00026255
      13         -0.883095        1.000000        0.00000002        0.00000000        0.00000002        0.00000005
      14         -0.882592        1.000000        0.00018520        0.00000899        0.00000721        0.00014065
      15         -0.875608        1.000000        0.06129225        0.00000788        0.00064911        0.04329337
      16         -0.874925        1.000000        0.05847050        0.00000004        0.00544899        0.03793195
      17         -0.874036        1.000000        0.00000209        0.00000000        0.00000003        0.00000201
      18         -0.873992        1.000000        0.00000265        0.00000000        0.00000005        0.00000176
      19         -0.873530        1.000000        0.00000011        0.00000000        0.00000002        0.00000000
      20         -0.871901        1.000000        0.00016133        0.00000005        0.00000305        0.00014169
      21         -0.871531        1.000000        0.00000000        0.00000000        0.00000000        0.00000000
      22         -0.870981        1.000000        0.00007601        0.00000378        0.00000540        0.00000041
      23         -0.870401        1.000000        0.00002067        0.00000002        0.00000078        0.00001500
      24         -0.870394        1.000000        0.00000103        0.00000002        0.00000010        0.00000072
      25         -0.868933        1.000000        0.01521426        0.00000794        0.00068273        0.01008570
      26         -0.868761        1.000000        0.00000001        0.00000001        0.00000001        0.00000000
      27         -0.868170        1.000000        0.04697838        0.00000526        0.00212429        0.03092628
      28         -0.866629        1.000000        0.00153730        0.00000292        0.00000821        0.00138808
      29         -0.865684        1.000000        0.00000045        0.00000002        0.00000010        0.00000022
      30         -0.865021        1.000000        0.00014485        0.00001725        0.00009029        0.00002603
      31         -0.863901        1.000000        0.00023124        0.00000609        0.00000007        0.00013527
      32         -0.863679        1.000000        0.06713012        0.00189835        0.00000002        0.04322742
      33         -0.861830        1.000000        0.00017913        0.00000080        0.00000239        0.00015110
      34         -0.861403        1.000000        0.00059646        0.00001274        0.00000117        0.00050571
      35         -0.860408        1.000000        0.00000181        0.00000002        0.00000005        0.00000136
      36         -0.860012        1.000000        0.00008184        0.00001391        0.00000379        0.00023832
      37         -0.859448        1.000000        0.00000780        0.00000004        0.00000058        0.00000588
      38         -0.857742        1.000000        0.00000326        0.00000027        0.00000053        0.00000196
      39         -0.856838        1.000000        0.00000016        0.00000005        0.00000003        0.00000009
      40         -0.855826        1.000000        0.00000593        0.00000127        0.00000133        0.00004783
      41         -0.855623        1.000000        0.00000129        0.00000014        0.00001510        0.00002586
      42         -0.855360        1.000000        0.00002055        0.00000308        0.00000137        0.00001525
      43         -0.855083        1.000000        0.00003351        0.00000102        0.00000334        0.00002926
      44         -0.854286        1.000000        0.00000485        0.00000164        0.00002947        0.00008501
      45         -0.854126        1.000000        0.00004986        0.00000354        0.00000142        0.00004214
      46         -0.851648        1.000000        0.00021331        0.00001189        0.00006142        0.00009735
      47         -0.851561        1.000000        0.00002830        0.00000283        0.00001544        0.00000465
      48         -0.851052        1.000000        0.00001884        0.00000070        0.00000345        0.00000845
      49         -0.850380        1.000000        0.00001666        0.00001293        0.00000084        0.00000231
      50         -0.850084        1.000000        0.00001602        0.00000038        0.00000208        0.00000844
      51         -0.847499        1.000000        0.00003042        0.00000366        0.00001133        0.00001372
      52         -0.847252        1.000000        0.00193905        0.00016052        0.00102079        0.00034277
      53         -0.846823        1.000000        0.00001053        0.00000039        0.00000344        0.00002193
      54         -0.845588        1.000000        0.00002897        0.00000552        0.00000621        0.00001476
      55         -0.845193        1.000000        0.00004444        0.00000086        0.00000611        0.00001997
      56         -0.844544        1.000000        0.00030959        0.00000408        0.00002374        0.00020681
      57         -0.844415        1.000000        0.00023286        0.00002116        0.00011584        0.00004508
      58         -0.842997        1.000000        0.00022207        0.00002390        0.00003354        0.00009570
      59         -0.842837        1.000000        0.00002170        0.00000212        0.00000652        0.00003802
      60         -0.842672        1.000000        0.00005504        0.00001172        0.00000453        0.00002199
      61         -0.841181        1.000000        0.00019568        0.00000302        0.00001215        0.00013512
      62         -0.840906        1.000000        0.00104235        0.00009379        0.00048352        0.00019545
      63         -0.840229        1.000000        0.00012769        0.00001681        0.00004995        0.00008752
      64         -0.840118        1.000000        0.00001991        0.00000082        0.00000463        0.00001242
      65         -0.839171        1.000000        0.00108449        0.00008852        0.00027050        0.00039553
      66         -0.838851        1.000000        0.00000218        0.00000011        0.00000045        0.00000084
      67         -0.838507        1.000000        0.00019478        0.00001796        0.00007479        0.00004873
      68         -0.837346        1.000000        0.00011948        0.00000347        0.00000125        0.00008643
      69         -0.835449        1.000000        0.00001421        0.00000117        0.00000339        0.00000493
      70         -0.834766        1.000000        0.00029337        0.00002308        0.00013408        0.00006927
      71         -0.834227        1.000000        0.00078709        0.00004092        0.00031083        0.00024670
      72         -0.833803        1.000000        0.00160243        0.00012119        0.00069839        0.00031638
      73         -0.832988        1.000000        0.00000030        0.00000002        0.00000012        0.00000010
      74         -0.832129        1.000000        0.00000003        0.00000000        0.00000000        0.00000002
      75         -0.831658        1.000000        0.00027047        0.00000129        0.00001738        0.00017340
      76         -0.830219        1.000000        0.00140916        0.00000519        0.00019724        0.00080971
      77         -0.828893        1.000000        0.01225283        0.00090654        0.00494323        0.00239908
      78         -0.827008        1.000000        0.01423372        0.00002133        0.00034405        0.00906976
      79         -0.826474        1.000000        0.00214648        0.00001905        0.00041373        0.00106422
      80         -0.826140        1.000000        0.00549329        0.00001519        0.00152017        0.00237841
      81         -0.825867        1.000000        0.00003125        0.00000043        0.00001025        0.00001261
      82         -0.825826        1.000000        0.00003369        0.00000233        0.00001314        0.00000673
      83         -0.824975        1.000000        0.00002737        0.00000004        0.00000370        0.00001463
      84         -0.823050        1.000000        0.00315070        0.00000294        0.00015315        0.00190054
      85         -0.822646        1.000000        0.00399914        0.00001523        0.00135800        0.00150839
      86         -0.822161        1.000000        0.00087254        0.00005968        0.00032177        0.00017320
      87         -0.820953        1.000000        0.00000421        0.00000781        0.00000440        0.00000154
      88         -0.820191        1.000000        0.03246508        0.00210132        0.01189905        0.00645639
      89         -0.818528        1.000000        0.00030444        0.00001545        0.00010884        0.00007017
      90         -0.818490        1.000000        0.00000940        0.00000013        0.00000117        0.00000469
      91         -0.818045        1.000000        0.00047451        0.00000008        0.00000022        0.00029207
      92         -0.816121        1.000000        0.00631871        0.00000450        0.00231306        0.00191526
      93         -0.815830        1.000000        0.00003266        0.00000003        0.00001226        0.00000999
      94         -0.814646        1.000000        0.00058187        0.00003489        0.00019557        0.00012442
      95         -0.814483        1.000000        0.00939346        0.00000737        0.00028786        0.00535912
      96         -0.814352        1.000000        0.00122017        0.00007062        0.00041044        0.00025431
      97         -0.814060        1.000000        0.01082852        0.00001404        0.00008197        0.00635405
      98         -0.813315        1.000000        0.00883759        0.00001769        0.00012749        0.00508874
      99         -0.812875        1.000000        0.00267536        0.00000487        0.00053789        0.00114763
     100         -0.812250        1.000000        0.00060360        0.00002187        0.00021062        0.00014067
     101         -0.810024        1.000000        0.00200820        0.00003087        0.00084070        0.00045287
     102         -0.805573        1.000000        0.01008598        0.00001298        0.00020257        0.00539485
     103         -0.805292        1.000000        0.01310773        0.00069258        0.00402934        0.00263473
     104         -0.805225        1.000000        0.00001043        0.00000014        0.00000298        0.00000315
     105         -0.804152        1.000000        0.01002598        0.00000816        0.00324909        0.00261307
     106         -0.804001        1.000000        0.00036608        0.00000354        0.00012142        0.00010445
     107         -0.801953        1.000000        0.01563493        0.00003888        0.00002160        0.00839294
     108         -0.801951        1.000000        0.00000089        0.00000000        0.00000001        0.00000048
     109         -0.797995        1.000000        0.04076634        0.00001771        0.01230558        0.01010778
     110         -0.797542        1.000000        0.00000959        0.00000083        0.00000231        0.00000245
     111         -0.797454        1.000000        0.00000040        0.00000000        0.00000003        0.00000019
     112         -0.793686        1.000000        0.00000066        0.00000004        0.00000018        0.00000015
     113         -0.793325        1.000000        0.00071265        0.00000024        0.00005722        0.00030135
     114         -0.792839        1.000000        0.00845554        0.00037990        0.00223164        0.00168102
     115         -0.792300        1.000000        0.00000022        0.00000000        0.00000007        0.00000007
     116         -0.792128        1.000000        0.00050473        0.00000208        0.00015625        0.00014792
     117         -0.791217        1.000000        0.00007487        0.00000356        0.00001938        0.00001545
     118         -0.790948        1.000000        0.00000349        0.00000222        0.00000223        0.00000635
     119         -0.786133        1.000000        0.00000000        0.00000000        0.00000000        0.00000000
     120         -0.780412        1.000000        0.00061547        0.00000353        0.00026490        0.00015982
     121         -0.769396        1.000000        0.00000000        0.00000026        0.00000018        0.00000000
     122         -0.765263        1.000000        0.00000045        0.00000001        0.00000072        0.00000015
     123         -0.757220        1.000000        0.00001284        0.00000004        0.00000293        0.00000183
     124         -0.716407        1.000000        0.00000000        0.00000000        0.00000000        0.00000000
     125         -0.622125        1.000000        0.43941666        0.00000599        0.00010448        0.00130960
     126         -0.617622        1.000000        0.43765609        0.00009890        0.00005929        0.00179217
     127         -0.617289        1.000000        0.43512768        0.00011302        0.00007658        0.00281597
     128         -0.616205        1.000000        0.43920038        0.00002491        0.00006308        0.00090048
     129         -0.584755        1.000000        0.42724369        0.00004941        0.00008142        0.00613801
     130         -0.583506        1.000000        0.42996153        0.00070182        0.00259015        0.00241988
     131         -0.575260        1.000000        0.42691524        0.00001612        0.00379303        0.00307343
     132         -0.559155        1.000000        0.00000887        0.00000054        0.00000190        0.00000053
     133         -0.558148        1.000000        0.00246885        0.00000089        0.00005426        0.00006350
     134         -0.551610        1.000000        0.00003589        0.00035454        0.00027373        0.00005012
     135         -0.536056        1.000000        0.00098587        0.00125785        0.00059058        0.00025969
     136         -0.534725        1.000000        0.00077630        0.00101539        0.00080888        0.00032188
     137         -0.529716        1.000000        0.00074014        0.00312470        0.00062188        0.00012940
     138         -0.526273        1.000000        0.00039072        0.00351950        0.00261553        0.00004357
     139         -0.525800        1.000000        0.00023938        0.00265222        0.00253540        0.00094613
     140         -0.524414        1.000000        0.00048123        0.00525969        0.00150591        0.00018441
     141         -0.522750        1.000000        0.00014916        0.00185478        0.00180276        0.00054576
     142         -0.520662        1.000000        0.00035493        0.00141865        0.00155642        0.00004591
     143         -0.519315        1.000000        0.00040999        0.00034904        0.00047825        0.00051220
     144         -0.519086        1.000000        0.00037309        0.00030712        0.00296765        0.00077147
     145         -0.518365        1.000000        0.00028133        0.00095216        0.00165123        0.00053691
     146         -0.517899        1.000000        0.00032409        0.00032272        0.00041697        0.00019790
     147         -0.517729        1.000000        0.00022048        0.00030805        0.00074149        0.00024686
     148         -0.516884        1.000000        0.00072032        0.00133029        0.00287929        0.00060176
     149         -0.515901        1.000000        0.00049437        0.00027145        0.00081037        0.00010254
     150         -0.514574        1.000000        0.00026251        0.00177541        0.00013738        0.00031095
     151         -0.514062        1.000000        0.00027505        0.00088823        0.00339247        0.00044166
     152         -0.512702        1.000000        0.00040270        0.00083794        0.00533401        0.00045622
     153         -0.511512        1.000000        0.00022730        0.00010124        0.00042530        0.00011579
     154         -0.508757        1.000000        0.00018170        0.00069725        0.00149318        0.00049893
     155         -0.507727        1.000000        0.00022077        0.00045899        0.00045828        0.00007750
     156         -0.507161        1.000000        0.00027346        0.00050121        0.00131722        0.00036245
     157         -0.505814        1.000000        0.00006171        0.00005417        0.00011075        0.00002193
     158         -0.504112        1.000000        0.00034104        0.00287487        0.00107007        0.00015995
     159         -0.503855        1.000000        0.00028743        0.00244922        0.00058305        0.00013230
     160         -0.503394        1.000000        0.00019059        0.00023743        0.00018479        0.00002157
     161         -0.501694        1.000000        0.00028665        0.00006679        0.00049873        0.00009723
     162         -0.499003        1.000000        0.00006981        0.00010031        0.00048565        0.00031666
     163         -0.498244        1.000000        0.00012515        0.00127981        0.00181736        0.00033805
     164         -0.497022        1.000000        0.00003477        0.00137879        0.00067198        0.00017291
     165         -0.496098        1.000000        0.00004254        0.03424525        0.01717837        0.00053194
     166         -0.495604        1.000000        0.00001145        0.00031532        0.00045056        0.00013564
     167         -0.495101        1.000000        0.00011605        0.00201119        0.00034370        0.00007518
     168         -0.493210        1.000000        0.00011140        0.04073605        0.01196015        0.00131605
     169         -0.492680        1.000000        0.00002479        0.00151205        0.00015770        0.00003883
     170         -0.491147        1.000000        0.00007710        0.02569075        0.02396469        0.00360219
     171         -0.487650        1.000000        0.00000748        0.03067609        0.02357837        0.00107971
     172         -0.485806        1.000000        0.00002300        0.01015755        0.04447956        0.00116884
     173         -0.481492        1.000000        0.00006711        0.03157418        0.02906607        0.00216488
     174         -0.481054        1.000000        0.00026134        0.03583120        0.02432147        0.00036995
     175         -0.477652        1.000000        0.00010501        0.02222596        0.04832268        0.00164741
     176         -0.473200        1.000000        0.00000674        0.00002057        0.00015563        0.00000970
     177         -0.467152        1.000000        0.00000378        0.00015920        0.00031626        0.00006033
     178         -0.463718        1.000000        0.00001236        0.00000433        0.00000039        0.00006270
     179         -0.463005        1.000000        0.00000110        0.00003400        0.00004773        0.00000428
     180         -0.459206        1.000000        0.00001892        0.00002863        0.00000113        0.00010405
     181         -0.457178        1.000000        0.00000948        0.00207544        0.01388528        0.00000307
     182         -0.455756        1.000000        0.00000172        0.00264352        0.04100160        0.00002892
     183         -0.455208        1.000000        0.00002085        0.00346071        0.00348912        0.00002223
     184         -0.454588        1.000000        0.00000248        0.06089303        0.00747364        0.00034338
     185         -0.453938        1.000000        0.00000635        0.00003988        0.00002343        0.00002213
     186         -0.453391        1.000000        0.00000496        0.00007744        0.00001110        0.00000133
     187         -0.449521        1.000000        0.00002893        0.00024941        0.00001774        0.00000261
     188         -0.448629        1.000000        0.00000022        0.00000216        0.00000540        0.00002773
     189         -0.447978        1.000000        0.00000001        0.00000003        0.00000093        0.00000728
     190         -0.447118        1.000000        0.00003827        0.00082294        0.00004921        0.00000715
     191         -0.445553        1.000000        0.00007043        0.04328970        0.01446778        0.01895506
     192         -0.445088        1.000000        0.00000096        0.00062366        0.00009777        0.00001282
     193         -0.444305        1.000000        0.00000127        0.00001159        0.00007586        0.00004304
     194         -0.443597        1.000000        0.00000022        0.00000266        0.00000050        0.00000268
     195         -0.442642        1.000000        0.00000495        0.00023201        0.00001758        0.00003903
     196         -0.442061        1.000000        0.00003824        0.03724275        0.00066339        0.00032945
     197         -0.441329        1.000000        0.00026306        0.00130935        0.02652158        0.04115430
     198         -0.441151        1.000000        0.00000239        0.02113946        0.00117272        0.00011795
     199         -0.439664        1.000000        0.00001591        0.00165889        0.00033496        0.00003022
     200         -0.437050        1.000000        0.00015659        0.00086676        0.00013850        0.00053782
     201         -0.436756        1.000000        0.00002270        0.00021089        0.00004747        0.00015899
     202         -0.436288        1.000000        0.00000140        0.00016551        0.00000714        0.00000328
     203         -0.435394        1.000000        0.00000004        0.00000311        0.00000504        0.00001902
     204         -0.434698        1.000000        0.00047242        0.00071969        0.01293854        0.00123513
     205         -0.434611        1.000000        0.00000052        0.00001318        0.00001996        0.00004463
     206         -0.433995        1.000000        0.00000087        0.00001549        0.00002658        0.00003525
     207         -0.433757        1.000000        0.00000011        0.00000727        0.00000490        0.00000130
     208         -0.433227        1.000000        0.00000024        0.00000349        0.00001785        0.00000370
     209         -0.432153        1.000000        0.00002639        0.00064245        0.00004794        0.00009783
     210         -0.431495        1.000000        0.00002970        0.00094649        0.00000142        0.00012259
     211         -0.431366        1.000000        0.00030218        0.01002529        0.00000144        0.00127018
     212         -0.429670        1.000000        0.00000069        0.00001938        0.00002888        0.00011695
     213         -0.429402        1.000000        0.00041345        0.02658885        0.01673723        0.02661390
     214         -0.428960        1.000000        0.00000275        0.00020202        0.00011861        0.00018828
     215         -0.427470        1.000000        0.00000141        0.00005809        0.00017450        0.00074956
     216         -0.425749        1.000000        0.00000160        0.00000338        0.00009695        0.00057383
     217         -0.425687        1.000000        0.00000714        0.00000357        0.00006075        0.00029899
     218         -0.425489        1.000000        0.00000526        0.00000749        0.00002651        0.00008422
     219         -0.425151        1.000000        0.00000021        0.00006202        0.00001377        0.00000482
     220         -0.424805        1.000000        0.00000229        0.00001196        0.00000871        0.00001772
     221         -0.424746        1.000000        0.00003949        0.00022842        0.00060004        0.00042853
     222         -0.424128        1.000000        0.00007692        0.00074387        0.00018921        0.00032976
     223         -0.423373        1.000000        0.00001826        0.00001998        0.00004006        0.00028901
     224         -0.422999        1.000000        0.00000313        0.00002689        0.00000457        0.00004175
     225         -0.422340        1.000000        0.00011765        0.00002128        0.00088178        0.00648679
     226         -0.422076        1.000000        0.00000646        0.00006898        0.00003837        0.00004634
     227         -0.422010        1.000000        0.00000994        0.00017648        0.00027710        0.00170618
     228         -0.421744        1.000000        0.00000642        0.00025896        0.00012499        0.00017388
     229         -0.421359        1.000000        0.00000241        0.00000176        0.00002105        0.00001320
     230         -0.421028        1.000000        0.00001749        0.00006204        0.00004885        0.00024403
     231         -0.420893        1.000000        0.00026737        0.00412472        0.00066457        0.00121218
     232         -0.420674        1.000000        0.00000413        0.00087695        0.00044150        0.00048204
     233         -0.420559        1.000000        0.00000565        0.00062830        0.00031209        0.00051509
     234         -0.420485        1.000000        0.00000156        0.00011654        0.00014206        0.00020229
     235         -0.419925        1.000000        0.00003622        0.00046787        0.00001333        0.00019481
     236         -0.419644        1.000000        0.00001872        0.00002460        0.00000302        0.00015595
     237         -0.419238        1.000000        0.00000182        0.00076786        0.00050702        0.00033523
     238         -0.418736        1.000000        0.00000318        0.00042548        0.00032174        0.00014371
     239         -0.418013        1.000000        0.00004216        0.00000258        0.00045913        0.00015396
     240         -0.417471        1.000000        0.00000089        0.00003293        0.00019895        0.00022682
     241         -0.416909        1.000000        0.00003063        0.00006890        0.00003512        0.00044365
     242         -0.416747        1.000000        0.00003411        0.00055926        0.00038627        0.00478216
     243         -0.416342        1.000000        0.00000397        0.00014918        0.00055297        0.00077270
     244         -0.416219        1.000000        0.00000087        0.00000096        0.00000762        0.00000483
     245         -0.415944        1.000000        0.00000883        0.00029330        0.00006602        0.00016114
     246         -0.415575        1.000000        0.00000056        0.00000788        0.00000362        0.00000676
     247         -0.413727        1.000000        0.00003513        0.00007583        0.00005780        0.00186019
     248         -0.413577        1.000000        0.00006543        0.00246028        0.00087866        0.00247646
     249         -0.413383        1.000000        0.00001654        0.00017939        0.00008817        0.00012483
     250         -0.412975        1.000000        0.00000157        0.00000263        0.00000081        0.00003972
     251         -0.412631        1.000000        0.00005416        0.00020908        0.00016653        0.00131251
     252         -0.411706        1.000000        0.00016318        0.00114497        0.00045662        0.00376119
     253         -0.411677        1.000000        0.00001832        0.00003378        0.00055462        0.00035017
     254         -0.411224        1.000000        0.00002762        0.00001470        0.00011017        0.00028055
     255         -0.410796        1.000000        0.00006258        0.00001704        0.00003060        0.00348282
     256         -0.409686        1.000000        0.00002010        0.00000714        0.00013646        0.00067715
     257         -0.409330        1.000000        0.00027945        0.00308553        0.00402146        0.00182009
     258         -0.408826        1.000000        0.00000593        0.00005008        0.00004671        0.00026298
     259         -0.408644        1.000000        0.00000091        0.00000291        0.00000321        0.00000816