# Projected DOS for atomic kind Pb at iteration step i = 0, E(Fermi) =    -0.110130 a.u.
#     MO Eigenvalue [a.u.]      Occupation                 s                py                pz                px
       1         -0.913496        1.000000        0.00000020        0.00000000        0.00000000        0.00000139
       2         -0.907854        1.000000        0.00000010        0.00000081        0.00000000        0.00000009
       3         -0.905420        1.000000        0.00000003        0.00000023        0.00000001        0.00000000
       4         -0.905066        1.000000        0.00000011        0.00000093        0.00000012        0.00000066
       5         -0.900237        1.000000        0.00000004        0.00000022        0.00000003        0.00000002
       6         -0.895049        1.000000        0.00000006        0.00000005        0.00000051        0.00000038
       7         -0.894095        1.000000        0.00000010        0.00000065        0.00000026        0.00000010
       8         -0.892601        1.000000        0.00000011        0.00000002        0.00000043        0.00000000
       9         -0.888456        1.000000        0.00000019        0.00000004        0.00000000        0.00000069
      10         -0.888023        1.000000        0.00000025        0.00000000        0.00000000        0.00000105
      11         -0.887598        1.000000        0.00000029        0.00000458        0.00000310        0.00000108
      12         -0.886642        1.000000        0.00000017        0.00000191        0.00000036        0.00000022
      13         -0.883086        1.000000        0.00000013        0.00000062        0.00000077        0.00000035
      14         -0.882588        1.000000        0.00000027        0.00000396        0.00000010        0.00000269
      15         -0.875639        1.000000        0.00000036        0.00000389        0.00000375        0.00000188
      16         -0.874908        1.000000        0.00000048        0.00000787        0.00000772        0.00000253
      17         -0.874190        1.000000        0.00000013        0.00000000        0.00000006        0.00000098
      18         -0.873992        1.000000        0.00000033        0.00000001        0.00000326        0.00000166
      19         -0.873521        1.000000        0.00000111        0.00001041        0.00000056        0.00000438
      20         -0.871909        1.000000        0.00000030        0.00000189        0.00000165        0.00000345
      21         -0.871529        1.000000        0.00000002        0.00000000        0.00000007        0.00000000
      22         -0.870968        1.000000        0.00000024        0.00000004        0.00000001        0.00000173
      23         -0.870415        1.000000        0.00000012        0.00000211        0.00000125        0.00000486
      24         -0.870077        1.000000        0.00000021        0.00000340        0.00000000        0.00000141
      25         -0.868930        1.000000        0.00000155        0.00001521        0.00001319        0.00000353
      26         -0.868524        1.000000        0.00000032        0.00000013        0.00000003        0.00000166
      27         -0.868169        1.000000        0.00000244        0.00001408        0.00004804        0.00001369
      28         -0.866655        1.000000        0.00000014        0.00000033        0.00000040        0.00000087
      29         -0.865666        1.000000        0.00000001        0.00000006        0.00000014        0.00000097
      30         -0.865013        1.000000        0.00000019        0.00000001        0.00000090        0.00000001
      31         -0.863891        1.000000        0.00000025        0.00000012        0.00000305        0.00000225
      32         -0.863659        1.000000        0.00000075        0.00001108        0.00000697        0.00000286
      33         -0.861828        1.000000        0.00000044        0.00000085        0.00000191        0.00000245
      34         -0.861401        1.000000        0.00000021        0.00000073        0.00000025        0.00000189
      35         -0.860156        1.000000        0.00000004        0.00000096        0.00000026        0.00000003
      36         -0.859992        1.000000        0.00000016        0.00000018        0.00000048        0.00000177
      37         -0.859415        1.000000        0.00000020        0.00000140        0.00000181        0.00000016
      38         -0.857716        1.000000        0.00000007        0.00000026        0.00000021        0.00000125
      39         -0.856831        1.000000        0.00000006        0.00000007        0.00000041        0.00000015
      40         -0.855847        1.000000        0.00000026        0.00000260        0.00000234        0.00000121
      41         -0.855561        1.000000        0.00000008        0.00000005        0.00000047        0.00000003
      42         -0.855358        1.000000        0.00000003        0.00000028        0.00000017        0.00000012
      43         -0.855319        1.000000        0.00000075        0.00000449        0.00000766        0.00000174
      44         -0.854279        1.000000        0.00000004        0.00000033        0.00000004        0.00000016
      45         -0.854123        1.000000        0.00000009        0.00000093        0.00000051        0.00000174
      46         -0.851737        1.000000        0.00000026        0.00000107        0.00000142        0.00000050
      47         -0.851643        1.000000        0.00000031        0.00000131        0.00000086        0.00000074
      48         -0.851533        1.000000        0.00000047        0.00000142        0.00000831        0.00000223
      49         -0.851244        1.000000        0.00000006        0.00000080        0.00000033        0.00000026
      50         -0.850199        1.000000        0.00000007        0.00000044        0.00000022        0.00000032
      51         -0.847500        1.000000        0.00000006        0.00000011        0.00000078        0.00000100
      52         -0.847172        1.000000        0.00000036        0.00000020        0.00000173        0.00000004
      53         -0.846995        1.000000        0.00000045        0.00000490        0.00000232        0.00000116
      54         -0.845933        1.000000        0.00000038        0.00000188        0.00000352        0.00000142
      55         -0.845692        1.000000        0.00000045        0.00000299        0.00000401        0.00000192
      56         -0.844532        1.000000        0.00000006        0.00000038        0.00000021        0.00000009
      57         -0.844409        1.000000        0.00000125        0.00000097        0.00002151        0.00000701
      58         -0.843039        1.000000        0.00000059        0.00000181        0.00000292        0.00000067
      59         -0.842836        1.000000        0.00000002        0.00000112        0.00000027        0.00000100
      60         -0.842661        1.000000        0.00000031        0.00000280        0.00000173        0.00000203
      61         -0.841170        1.000000        0.00000009        0.00000022        0.00000084        0.00000161
      62         -0.841000        1.000000        0.00000006        0.00000223        0.00000165        0.00000150
      63         -0.840375        1.000000        0.00000004        0.00000032        0.00000033        0.00000081
      64         -0.839248        1.000000        0.00000015        0.00000035        0.00000121        0.00000043
      65         -0.838900        1.000000        0.00000565        0.00003974        0.00005623        0.00000250
      66         -0.838675        1.000000        0.00000012        0.00000092        0.00000069        0.00000014
      67         -0.837363        1.000000        0.00000008        0.00000032        0.00000040        0.00000151
      68         -0.836400        1.000000        0.00000015        0.00000229        0.00000027        0.00000046
      69         -0.836101        1.000000        0.00000060        0.00000094        0.00000220        0.00000019
      70         -0.835220        1.000000        0.00000001        0.00000043        0.00000013        0.00000053
      71         -0.834135        1.000000        0.00000008        0.00000316        0.00000074        0.00000190
      72         -0.833769        1.000000        0.00000008        0.00000019        0.00000013        0.00000032
      73         -0.832971        1.000000        0.00000033        0.00000061        0.00000085        0.00000237
      74         -0.832098        1.000000        0.00000001        0.00000015        0.00000000        0.00000017
      75         -0.831653        1.000000        0.00000003        0.00000002        0.00000036        0.00000034
      76         -0.830225        1.000000        0.00000007        0.00000028        0.00000008        0.00000032
      77         -0.829025        1.000000        0.00000006        0.00000036        0.00000070        0.00000056
      78         -0.827050        1.000000        0.00000007        0.00000020        0.00000007        0.00000017
      79         -0.826656        1.000000        0.00000009        0.00000025        0.00000041        0.00000023
      80         -0.826471        1.000000        0.00000044        0.00000080        0.00000183        0.00000005
      81         -0.826126        1.000000        0.00000005        0.00000029        0.00000011        0.00000026
      82         -0.825827        1.000000        0.00000000        0.00000002        0.00000000        0.00000001
      83         -0.824011        1.000000        0.00000017        0.00000009        0.00000133        0.00000041
      84         -0.823182        1.000000        0.00000020        0.00000029        0.00000073        0.00000031
      85         -0.822943        1.000000        0.00000018        0.00000041        0.00000033        0.00000058
      86         -0.822544        1.000000        0.00000007        0.00000068        0.00000004        0.00000066
      87         -0.820947        1.000000        0.00000007        0.00000043        0.00000152        0.00000086
      88         -0.820165        1.000000        0.00000026        0.00000131        0.00000201        0.00000083
      89         -0.818829        1.000000        0.00000022        0.00000038        0.00000101        0.00000143
      90         -0.818596        1.000000        0.00000003        0.00000003        0.00000002        0.00000009
      91         -0.818032        1.000000        0.00000041        0.00000135        0.00000123        0.00000062
      92         -0.817099        1.000000        0.00000072        0.00000085        0.00000288        0.00000032
      93         -0.816173        1.000000        0.00000053        0.00000636        0.00000127        0.00000120
      94         -0.815175        1.000000        0.00000038        0.00000111        0.00000084        0.00000039
      95         -0.814441        1.000000        0.00000014        0.00000044        0.00000121        0.00000144
      96         -0.814428        1.000000        0.00000003        0.00000074        0.00000096        0.00000026
      97         -0.813532        1.000000        0.00000006        0.00000101        0.00000024        0.00000032
      98         -0.812905        1.000000        0.00000012        0.00000213        0.00000058        0.00000034
      99         -0.812603        1.000000        0.00000005        0.00000051        0.00000038        0.00000059
     100         -0.809917        1.000000        0.00000007        0.00000025        0.00000026        0.00000048
     101         -0.807002        1.000000        0.00000095        0.00000111        0.00000377        0.00000043
     102         -0.805596        1.000000        0.00000004        0.00000004        0.00000003        0.00000008
     103         -0.805254        1.000000        0.00000010        0.00000049        0.00000097        0.00000037
     104         -0.804171        1.000000        0.00000005        0.00000014        0.00000086        0.00000110
     105         -0.804077        1.000000        0.00000027        0.00000069        0.00000153        0.00000067
     106         -0.802007        1.000000        0.00000003        0.00000019        0.00000018        0.00000023
     107         -0.801943        1.000000        0.00000006        0.00000059        0.00000028        0.00000024
     108         -0.798942        1.000000        0.00000087        0.00000024        0.00000480        0.00000130
     109         -0.798303        1.000000        0.00000093        0.00000477        0.00000031        0.00000009
     110         -0.797939        1.000000        0.00000021        0.00000041        0.00000138        0.00000147
     111         -0.796589        1.000000        0.00000007        0.00000001        0.00000018        0.00000011
     112         -0.793300        1.000000        0.00000006        0.00000036        0.00000003        0.00000002
     113         -0.792822        1.000000        0.00000011        0.00000039        0.00000084        0.00000018
     114         -0.792099        1.000000        0.00000002        0.00000050        0.00000026        0.00000037
     115         -0.791326        1.000000        0.00000005        0.00000003        0.00000100        0.00000004
     116         -0.790882        1.000000        0.00000003        0.00000015        0.00000017        0.00000002
     117         -0.787013        1.000000        0.00000000        0.00000008        0.00000008        0.00000001
     118         -0.786189        1.000000        0.00000704        0.00000002        0.00002866        0.00000098
     119         -0.786024        1.000000        0.00000022        0.00000001        0.00000063        0.00000029
     120         -0.785316        1.000000        0.00000002        0.00000002        0.00000014        0.00000003
     121         -0.780389        1.000000        0.00000006        0.00000141        0.00000002        0.00000002
     122         -0.769286        1.000000        0.00000097        0.00000101        0.00000203        0.00001152
     123         -0.762696        1.000000        0.00000007        0.00000005        0.00000001        0.00000029
     124         -0.756801        1.000000        0.00000743        0.00007193        0.00000065        0.00000143
     125         -0.622144        1.000000        0.00003081        0.00002923        0.00002386        0.00001039
     126         -0.617617        1.000000        0.00005161        0.00004470        0.00009278        0.00005291
     127         -0.617276        1.000000        0.00003743        0.00005562        0.00002054        0.00000298
     128         -0.616194        1.000000        0.00002181        0.00003742        0.00002305        0.00001067
     129         -0.584757        1.000000        0.00009703        0.00005494        0.00004407        0.00003915
     130         -0.583497        1.000000        0.00012779        0.00007129        0.00008053        0.00002928
     131         -0.575245        1.000000        0.00007801        0.00003321        0.00003978        0.00005547
     132         -0.561274        1.000000        0.00000255        0.00000285        0.00000019        0.00000009
     133         -0.557786        1.000000        0.00132564        0.00220503        0.00001587        0.00003632
     134         -0.551188        1.000000        0.00354730        0.00021101        0.00072449        0.00229714
     135         -0.538685        1.000000        0.04654624        0.00017134        0.00884497        0.00015786
     136         -0.532498        1.000000        0.09241551        0.00479131        0.00488600        0.00142884
     137         -0.532375        1.000000        0.04177524        0.00237372        0.00088327        0.00295691
     138         -0.529096        1.000000        0.04474583        0.00241760        0.02314666        0.00153260
     139         -0.524995        1.000000        0.04835364        0.00349702        0.01496973        0.00225195
     140         -0.524289        1.000000        0.07919082        0.00228053        0.00925794        0.00167760
     141         -0.522027        1.000000        0.03429140        0.00392543        0.00562103        0.00197060
     142         -0.520755        1.000000        0.03106092        0.00763798        0.00166217        0.01298766
     143         -0.518315        1.000000        0.03727794        0.01503188        0.00466410        0.00803867
     144         -0.517984        1.000000        0.03692042        0.01276770        0.00745714        0.00298984
     145         -0.516599        1.000000        0.03434399        0.00329881        0.00176847        0.00852434
     146         -0.516303        1.000000        0.02717874        0.00391317        0.00796042        0.00449729
     147         -0.516249        1.000000        0.02356800        0.00630627        0.00957870        0.00178177
     148         -0.514277        1.000000        0.01307695        0.01031176        0.00641537        0.00139578
     149         -0.513486        1.000000        0.01481811        0.00402755        0.00854045        0.01944176
     150         -0.513116        1.000000        0.02325585        0.00520812        0.00543344        0.01903488
     151         -0.511563        1.000000        0.01756034        0.00219248        0.01875542        0.00440341
     152         -0.511090        1.000000        0.04126586        0.00617230        0.00744475        0.00784242
     153         -0.509720        1.000000        0.05386985        0.00454442        0.01103246        0.00969042
     154         -0.507696        1.000000        0.02222400        0.00922568        0.01473361        0.00363170
     155         -0.506162        1.000000        0.01998730        0.01314355        0.00302592        0.00302004
     156         -0.505742        1.000000        0.00525952        0.01247480        0.00111658        0.00044346
     157         -0.505479        1.000000        0.01298644        0.00623138        0.00368242        0.00959411
     158         -0.504985        1.000000        0.00589019        0.00089271        0.00196852        0.01601294
     159         -0.501193        1.000000        0.01353855        0.00462662        0.00826558        0.01387664
     160         -0.500836        1.000000        0.01589535        0.00130576        0.00278686        0.03441577
     161         -0.500056        1.000000        0.00360488        0.00032459        0.01272464        0.02068185
     162         -0.498111        1.000000        0.01210203        0.00113452        0.00731574        0.02493626
     163         -0.496566        1.000000        0.00258358        0.00270890        0.00060975        0.00241760
     164         -0.496209        1.000000        0.00298221        0.02393899        0.00172269        0.00634930
     165         -0.493706        1.000000        0.00244614        0.02663691        0.00290341        0.00357911
     166         -0.493473        1.000000        0.01589693        0.00138542        0.01505027        0.00258777
     167         -0.493105        1.000000        0.00409615        0.00201295        0.00513983        0.00171774
     168         -0.492559        1.000000        0.00486964        0.00428590        0.01281975        0.00169308
     169         -0.490822        1.000000        0.00394545        0.00214415        0.00236132        0.00125845
     170         -0.490627        1.000000        0.00280031        0.00566175        0.00667768        0.00036822
     171         -0.487525        1.000000        0.00300547        0.00160355        0.00148910        0.00074459
     172         -0.485502        1.000000        0.00687342        0.00605390        0.00040625        0.00065960
     173         -0.481436        1.000000        0.00458137        0.00213517        0.00104071        0.00016842
     174         -0.480184        1.000000        0.00362389        0.00152426        0.00313176        0.00070782
     175         -0.477066        1.000000        0.00484972        0.00159926        0.00255203        0.00011875
     176         -0.473164        1.000000        0.00339206        0.00007898        0.00000318        0.00239891
     177         -0.467152        1.000000        0.00158879        0.00105558        0.00000124        0.00002009
     178         -0.463716        1.000000        0.00017794        0.00031221        0.00000390        0.00001787
     179         -0.463004        1.000000        0.00069158        0.00035147        0.00000032        0.00000849
     180         -0.459201        1.000000        0.00112477        0.00102216        0.00001093        0.00000253
     181         -0.457024        1.000000        0.00300640        0.00000978        0.00000525        0.00084756
     182         -0.455717        1.000000        0.00306251        0.00006180        0.00000344        0.00039819
     183         -0.455158        1.000000        0.00121528        0.00076564        0.00000897        0.00022878
     184         -0.454561        1.000000        0.00054491        0.00002807        0.00039182        0.00000100
     185         -0.454301        1.000000        0.00037550        0.00002404        0.00008164        0.00002482
     186         -0.453384        1.000000        0.00172238        0.00007232        0.00000739        0.00070157
     187         -0.449521        1.000000        0.00027196        0.00006752        0.00000146        0.00000216
     188         -0.448616        1.000000        0.00255409        0.00003343        0.00000178        0.00051433
     189         -0.447967        1.000000        0.00007140        0.00000038        0.00002902        0.00000012
     190         -0.447118        1.000000        0.00013209        0.00006338        0.00000042        0.00000292
     191         -0.445540        1.000000        0.00130266        0.00000615        0.00024699        0.00002301
     192         -0.445081        1.000000        0.00060946        0.00005582        0.00000410        0.00000334
     193         -0.444285        1.000000        0.00116411        0.00013207        0.00004236        0.00001645
     194         -0.443594        1.000000        0.00091834        0.00018805        0.00008057        0.00000248
     195         -0.442760        1.000000        0.00082767        0.00000909        0.00002821        0.00003365
     196         -0.442073        1.000000        0.00083956        0.00000487        0.00000992        0.00014151
     197         -0.441324        1.000000        0.00029236        0.00000907        0.00001476        0.00000398
     198         -0.441164        1.000000        0.00014634        0.00001538        0.00000470        0.00002135
     199         -0.439664        1.000000        0.00013876        0.00002519        0.00000060        0.00000462
     200         -0.437035        1.000000        0.00044823        0.00001024        0.00000084        0.00002264
     201         -0.436608        1.000000        0.00119237        0.00004196        0.00000745        0.00009010
     202         -0.436544        1.000000        0.00183818        0.00009622        0.00000376        0.00002501
     203         -0.435379        1.000000        0.00127939        0.00001929        0.00010417        0.00002250
     204         -0.434699        1.000000        0.00001658        0.00000152        0.00000161        0.00000332
     205         -0.434600        1.000000        0.00033818        0.00000150        0.00009480        0.00000983
     206         -0.433733        1.000000        0.00005233        0.00003716        0.00001151        0.00008891
     207         -0.433671        1.000000        0.00728853        0.00014490        0.00004360        0.00093783
     208         -0.433291        1.000000        0.00023907        0.00000105        0.00001449        0.00012737
     209         -0.432129        1.000000        0.00209805        0.00000551        0.00000082        0.00012706
     210         -0.431490        1.000000        0.00000575        0.00000027        0.00000033        0.00000198
     211         -0.431352        1.000000        0.00013954        0.00000348        0.00000171        0.00002550
     212         -0.429644        1.000000        0.00019076        0.00006476        0.00001322        0.00020793
     213         -0.429374        1.000000        0.00095219        0.00000168        0.00005579        0.00010956
     214         -0.428953        1.000000        0.00002743        0.00000249        0.00005886        0.00000504
     215         -0.427441        1.000000        0.00169698        0.00001335        0.00011943        0.00018602
     216         -0.426052        1.000000        0.00016681        0.00000206        0.00000458        0.00000420
     217         -0.425710        1.000000        0.00089873        0.00001068        0.00000384        0.00006938
     218         -0.425523        1.000000        0.00168334        0.00005886        0.00000821        0.00003633
     219         -0.425141        1.000000        0.00006680        0.00000363        0.00000057        0.00000192
     220         -0.424790        1.000000        0.00002622        0.00000091        0.00000221        0.00000642
     221         -0.424715        1.000000        0.01149750        0.00001585        0.00055063        0.00000832
     222         -0.424122        1.000000        0.00004530        0.00000154        0.00002987        0.00002918
     223         -0.423521        1.000000        0.00034707        0.00000593        0.00001609        0.00001744
     224         -0.422994        1.000000        0.00591865        0.00002837        0.00001723        0.00040954
     225         -0.422558        1.000000        0.00146230        0.00000567        0.00000691        0.00004813
     226         -0.422318        1.000000        0.00018130        0.00000160        0.00001199        0.00000521
     227         -0.422069        1.000000        0.00071089        0.00000408        0.00000446        0.00010531
     228         -0.421995        1.000000        0.00084683        0.00000728        0.00006404        0.00006535
     229         -0.421688        1.000000        0.00004876        0.00000910        0.00000987        0.00001377
     230         -0.421338        1.000000        0.00115854        0.00005724        0.00002411        0.00000411
     231         -0.421125        1.000000        0.00014230        0.00000646        0.00006081        0.00000172
     232         -0.420934        1.000000        0.00037681        0.00000148        0.00000225        0.00002852
     233         -0.420581        1.000000        0.00055222        0.00000233        0.00000429        0.00005148
     234         -0.420485        1.000000        0.00049296        0.00000380        0.00000675        0.00001841
     235         -0.419931        1.000000        0.00002662        0.00000098        0.00001099        0.00001154
     236         -0.419636        1.000000        0.00121684        0.00000167        0.00001494        0.00005903
     237         -0.419357        1.000000        0.00050301        0.00002813        0.00000826        0.00003053
     238         -0.418787        1.000000        0.00131567        0.00003941        0.00000558        0.00002265
     239         -0.418005        1.000000        0.00060831        0.00000696        0.00000329        0.00005262
     240         -0.417469        1.000000        0.00006865        0.00000253        0.00000913        0.00000185
     241         -0.417442        1.000000        0.00189874        0.00002436        0.00002560        0.00000439
     242         -0.416733        1.000000        0.00050252        0.00000695        0.00001984        0.00001081
     243         -0.416324        1.000000        0.00031191        0.00000157        0.00004241        0.00000053
     244         -0.416213        1.000000        0.00353615        0.00000642        0.00010018        0.00000401
     245         -0.415925        1.000000        0.00047208        0.00000393        0.00001018        0.00000737
     246         -0.415575        1.000000        0.00399272        0.00001027        0.00014787        0.00002175
     247         -0.413707        1.000000        0.00083985        0.00000118        0.00000761        0.00006812
     248         -0.413583        1.000000        0.00009597        0.00003483        0.00001021        0.00005305
     249         -0.413373        1.000000        0.00059561        0.00000654        0.00001956        0.00001065
     250         -0.412969        1.000000        0.00093313        0.00000397        0.00003908        0.00000241
     251         -0.412679        1.000000        0.00114316        0.00000480        0.00000590        0.00000487
     252         -0.411686        1.000000        0.00209580        0.00000521        0.00001150        0.00001190
     253         -0.411650        1.000000        0.00140554        0.00000063        0.00001682        0.00000599
     254         -0.411185        1.000000        0.00509318        0.00003498        0.00000263        0.00035088
     255         -0.410792        1.000000        0.00053657        0.00000813        0.00000519        0.00000735
     256         -0.409654        1.000000        0.00685470        0.00002319        0.00008638        0.00000685
     257         -0.409398        1.000000        0.00220958        0.00000420        0.00000382        0.00003315
     258         -0.409046        1.000000        0.01276026        0.00004241        0.00001710        0.00021822
     259         -0.408732        1.000000        0.00688694        0.00003291        0.00022354        0.00004770