# Projected DOS for atomic kind O at iteration step i = 0, E(Fermi) =    -0.110130 a.u.
#     MO Eigenvalue [a.u.]      Occupation                 s                py                pz                px
       1         -0.913496        1.000000        0.71183167        0.02143114        0.00813301        0.00579651
       2         -0.907854        1.000000        0.70264657        0.00156551        0.01936402        0.02067852
       3         -0.905420        1.000000        0.70990219        0.00366047        0.02130438        0.01339894
       4         -0.905066        1.000000        0.71516283        0.01686780        0.01043658        0.00452313
       5         -0.900237        1.000000        0.70694677        0.00213409        0.03097651        0.00138612
       6         -0.895049        1.000000        0.70821716        0.02114609        0.00741668        0.00234318
       7         -0.894095        1.000000        0.70511910        0.00372879        0.00111504        0.03445261
       8         -0.892601        1.000000        0.70283961        0.02222695        0.01842826        0.00070444
       9         -0.888456        1.000000        0.70904751        0.02672327        0.00740401        0.00106875
      10         -0.888023        1.000000        0.71112377        0.00816749        0.01954422        0.00418973
      11         -0.887598        1.000000        0.70829427        0.02311587        0.01273429        0.00401050
      12         -0.886642        1.000000        0.70631239        0.00219654        0.01754223        0.01244225
      13         -0.883086        1.000000        0.70956957        0.03095692        0.00553039        0.00028556
      14         -0.882588        1.000000        0.70192013        0.00450620        0.01112465        0.01109718
      15         -0.875639        1.000000        0.00146917        0.00001722        0.00001511        0.00000671
      16         -0.874908        1.000000        0.00000060        0.00000001        0.00000001        0.00000000
      17         -0.874190        1.000000        0.70069143        0.02693954        0.00967325        0.00699276
      18         -0.873992        1.000000        0.71278988        0.01561519        0.00966165        0.00517499
      19         -0.873521        1.000000        0.69488767        0.00575220        0.01976532        0.00658258
      20         -0.871909        1.000000        0.70341972        0.00659926        0.00430124        0.00487328
      21         -0.871529        1.000000        0.70136934        0.04011377        0.00359097        0.00001082
      22         -0.870968        1.000000        0.70503080        0.00557187        0.00505396        0.00606918
      23         -0.870415        1.000000        0.71348638        0.00325926        0.01435601        0.01843446
      24         -0.870077        1.000000        0.71093103        0.03037380        0.00343848        0.00284824
      25         -0.868930        1.000000        0.54268866        0.00603336        0.01301288        0.00496563
      26         -0.868524        1.000000        0.70498565        0.01451246        0.02269920        0.00113346
      27         -0.868169        1.000000        0.18281455        0.00238152        0.00417217        0.00212081
      28         -0.866655        1.000000        0.68231661        0.00613474        0.00821182        0.00279054
      29         -0.865666        1.000000        0.71156303        0.00359877        0.01975317        0.00937169
      30         -0.865013        1.000000        0.70031836        0.01828654        0.02146952        0.00026607
      31         -0.863891        1.000000        0.70092392        0.00760520        0.00561358        0.00706563
      32         -0.863659        1.000000        0.00455093        0.00005207        0.00003517        0.00006586
      33         -0.861828        1.000000        0.69844463        0.00554941        0.00813036        0.00424802
      34         -0.861401        1.000000        0.70632940        0.00624402        0.01213167        0.00431722
      35         -0.860156        1.000000        0.72039517        0.01197796        0.00835097        0.00671382
      36         -0.859992        1.000000        0.71407858        0.00739767        0.00686803        0.01070290
      37         -0.859415        1.000000        0.70615000        0.01899023        0.01015675        0.00301284
      38         -0.857716        1.000000        0.71116484        0.01014504        0.00868550        0.00632456
      39         -0.856831        1.000000        0.70654797        0.01673405        0.00426553        0.01908642
      40         -0.855847        1.000000        0.71037256        0.00682200        0.01011674        0.00836537
      41         -0.855561        1.000000        0.71308409        0.01500662        0.00850539        0.00557280
      42         -0.855358        1.000000        0.72594138        0.01342114        0.01271382        0.00469963
      43         -0.855319        1.000000        0.70396975        0.00565844        0.00568086        0.00739455
      44         -0.854279        1.000000        0.71590982        0.00982796        0.01167854        0.00812975
      45         -0.854123        1.000000        0.71691547        0.01340899        0.00790990        0.00497376
      46         -0.851737        1.000000        0.71505014        0.00934959        0.00590520        0.01093118
      47         -0.851643        1.000000        0.71439888        0.00910433        0.00553368        0.01044668
      48         -0.851533        1.000000        0.71413939        0.00260837        0.01927067        0.00472349
      49         -0.851244        1.000000        0.70882173        0.00850933        0.00395640        0.00871575
      50         -0.850199        1.000000        0.71534929        0.00637496        0.00665793        0.01100999
      51         -0.847500        1.000000        0.72175016        0.01019310        0.01001266        0.00419969
      52         -0.847172        1.000000        0.67982477        0.01025250        0.00640665        0.00388967
      53         -0.846995        1.000000        0.72344541        0.00771629        0.01108722        0.00721414
      54         -0.845933        1.000000        0.71127270        0.00602776        0.00483975        0.00762792
      55         -0.845692        1.000000        0.71616985        0.00710133        0.00670146        0.00820837
      56         -0.844532        1.000000        0.72287279        0.00990218        0.00786044        0.00859728
      57         -0.844409        1.000000        0.71071401        0.00909200        0.00452066        0.01011796
      58         -0.843039        1.000000        0.71533038        0.00970763        0.00774660        0.00559314
      59         -0.842836        1.000000        0.72900993        0.00893760        0.01025988        0.00913187
      60         -0.842661        1.000000        0.71742973        0.00997347        0.00740814        0.00657416
      61         -0.841170        1.000000        0.73186974        0.01154262        0.00713243        0.00919895
      62         -0.841000        1.000000        0.70872773        0.00634206        0.00874361        0.00674608
      63         -0.840375        1.000000        0.71911294        0.00549570        0.00979463        0.00847237
      64         -0.839248        1.000000        0.70856274        0.00810207        0.00786235        0.00513409
      65         -0.838900        1.000000        0.70391904        0.01555239        0.01067569        0.01713390
      66         -0.838675        1.000000        0.71130927        0.00605838        0.01159222        0.00502792
      67         -0.837363        1.000000        0.73860914        0.01027510        0.00870996        0.00657166
      68         -0.836400        1.000000        0.73691124        0.01637164        0.00566022        0.00856360
      69         -0.836101        1.000000        0.73000569        0.00727556        0.00825627        0.00869872
      70         -0.835220        1.000000        0.72028678        0.00715857        0.00929855        0.00665185
      71         -0.834135        1.000000        0.70888208        0.01133945        0.00823014        0.00777548
      72         -0.833769        1.000000        0.70636402        0.00669788        0.01233651        0.00582773
      73         -0.832971        1.000000        0.73999078        0.00623572        0.01018020        0.01786891
      74         -0.832098        1.000000        0.71505075        0.00626593        0.00970373        0.02177534
      75         -0.831653        1.000000        0.73898592        0.01132259        0.01075529        0.00971562
      76         -0.830225        1.000000        0.72360135        0.00856759        0.00683076        0.01010577
      77         -0.829025        1.000000        0.60132766        0.00906763        0.00834301        0.00414170
      78         -0.827050        1.000000        0.60766357        0.00920071        0.00518846        0.00902428
      79         -0.826656        1.000000        0.70366613        0.00651793        0.00835776        0.01152101
      80         -0.826471        1.000000        0.73598466        0.00960169        0.01222356        0.00914297
      81         -0.826126        1.000000        0.69442180        0.00569271        0.00798954        0.01091887
      82         -0.825827        1.000000        0.69496028        0.02572564        0.01229079        0.01130211
      83         -0.824011        1.000000        0.72029699        0.01411173        0.02024618        0.00481208
      84         -0.823182        1.000000        0.71529448        0.01156221        0.00875740        0.00760687
      85         -0.822943        1.000000        0.72956068        0.01340993        0.00823050        0.00914785
      86         -0.822544        1.000000        0.70026001        0.01168422        0.00519930        0.00938663
      87         -0.820947        1.000000        0.75290915        0.00953718        0.00843738        0.01388435
      88         -0.820165        1.000000        0.42195362        0.00283566        0.01067983        0.00573560
      89         -0.818829        1.000000        0.74204489        0.00657131        0.01226282        0.01357683
      90         -0.818596        1.000000        0.70001731        0.02125874        0.00610109        0.02028254
      91         -0.818032        1.000000        0.75793346        0.01088542        0.00959652        0.01488666
      92         -0.817099        1.000000        0.75109244        0.01264763        0.00670350        0.01488746
      93         -0.816173        1.000000        0.67793225        0.01330007        0.00582492        0.00983504
      94         -0.815175        1.000000        0.73172874        0.01419912        0.01020554        0.01014518
      95         -0.814441        1.000000        0.75923876        0.01296080        0.00593746        0.01384690
      96         -0.814428        1.000000        0.64022685        0.00931519        0.00907853        0.01169647
      97         -0.813532        1.000000        0.60466723        0.00929066        0.00797680        0.00825217
      98         -0.812905        1.000000        0.71749199        0.01644069        0.00803465        0.00922055
      99         -0.812603        1.000000        0.72860868        0.01222364        0.01286286        0.00941033
     100         -0.809917        1.000000        0.73205163        0.00992288        0.01426856        0.00829978
     101         -0.807002        1.000000        0.76484753        0.01424871        0.00903051        0.01231051
     102         -0.805596        1.000000        0.68517877        0.00696015        0.01217516        0.01322820
     103         -0.805254        1.000000        0.64156326        0.01077430        0.01668320        0.00327420
     104         -0.804171        1.000000        0.73281494        0.01266653        0.01044329        0.00879273
     105         -0.804077        1.000000        0.68599003        0.01120082        0.01254084        0.00655335
     106         -0.802007        1.000000        0.65858072        0.00887180        0.01018467        0.01156688
     107         -0.801943        1.000000        0.69203644        0.03524475        0.00804525        0.00671798
     108         -0.798942        1.000000        0.77884578        0.00745504        0.01197542        0.01761030
     109         -0.798303        1.000000        0.75293597        0.02460255        0.00509234        0.01733043
     110         -0.797939        1.000000        0.40164118        0.00491371        0.00733374        0.00775852
     111         -0.796589        1.000000        0.70212314        0.02536299        0.01118072        0.01131275
     112         -0.793300        1.000000        0.77565710        0.00787604        0.01649613        0.00949768
     113         -0.792822        1.000000        0.71071253        0.01269139        0.01114796        0.01007673
     114         -0.792099        1.000000        0.76952056        0.01570684        0.01170829        0.00767850
     115         -0.791326        1.000000        0.77729780        0.00876554        0.01593234        0.00731722
     116         -0.790882        1.000000        0.77694704        0.01075944        0.01373182        0.01180269
     117         -0.787013        1.000000        0.71313395        0.03957584        0.00600455        0.00288901
     118         -0.786189        1.000000        0.80451132        0.00482906        0.00598184        0.02684030
     119         -0.786024        1.000000        0.72461805        0.02008921        0.02624153        0.00200230
     120         -0.785316        1.000000        0.71056227        0.00410432        0.03499579        0.00929369
     121         -0.780389        1.000000        0.78781575        0.01787410        0.00758373        0.00841275
     122         -0.769286        1.000000        0.80880559        0.00806939        0.00197125        0.02245319
     123         -0.762696        1.000000        0.89653800        0.00964476        0.00984493        0.00178563
     124         -0.756801        1.000000        0.82683847        0.00660472        0.01136446        0.00264174
     125         -0.622144        1.000000        0.00005508        0.00001968        0.00007466        0.00005969
     126         -0.617617        1.000000        0.00002041        0.00009299        0.00000698        0.00007074
     127         -0.617276        1.000000        0.00037238        0.00012678        0.00014550        0.00044535
     128         -0.616194        1.000000        0.00000848        0.00000306        0.00000341        0.00001022
     129         -0.584757        1.000000        0.00068620        0.00207412        0.00199189        0.00023752
     130         -0.583497        1.000000        0.00056528        0.00036509        0.00045101        0.00095535
     131         -0.575245        1.000000        0.00074658        0.00106916        0.00072585        0.00052955
     132         -0.561274        1.000000        0.01295774        0.00244948        0.00921741        0.03543421
     133         -0.557786        1.000000        0.04792992        0.00678966        0.00357252        0.03208292
     134         -0.551188        1.000000        0.01368364        0.00909701        0.02285201        0.00323721
     135         -0.538685        1.000000        0.00281139        0.00053575        0.00974518        0.00119016
     136         -0.532498        1.000000        0.00049997        0.00057796        0.00109493        0.00175130
     137         -0.532375        1.000000        0.00101912        0.00125619        0.00220219        0.00473374
     138         -0.529096        1.000000        0.00049445        0.00053478        0.00122262        0.00187179
     139         -0.524995        1.000000        0.00050321        0.00202615        0.00178641        0.00193059
     140         -0.524289        1.000000        0.00047634        0.00124602        0.00098300        0.00160696
     141         -0.522027        1.000000        0.00116352        0.00158605        0.00236101        0.00213238
     142         -0.520755        1.000000        0.00080349        0.00307295        0.00142647        0.01166303
     143         -0.518315        1.000000        0.00060953        0.00263234        0.00119681        0.00758189
     144         -0.517984        1.000000        0.00042664        0.00120128        0.00094959        0.00207371
     145         -0.516599        1.000000        0.00106625        0.00189829        0.00209999        0.00521664
     146         -0.516303        1.000000        0.00095121        0.00242840        0.00228332        0.00457420
     147         -0.516249        1.000000        0.00089924        0.00394455        0.00284171        0.00521030
     148         -0.514277        1.000000        0.00104452        0.00767293        0.00440822        0.00624783
     149         -0.513486        1.000000        0.00083238        0.00211630        0.00143707        0.00522878
     150         -0.513116        1.000000        0.00117175        0.00258734        0.00191998        0.00452564
     151         -0.511563        1.000000        0.00080814        0.00281231        0.00238086        0.00426860
     152         -0.511090        1.000000        0.00084913        0.00370587        0.00276952        0.00583528
     153         -0.509720        1.000000        0.00108414        0.00255038        0.00201708        0.00342537
     154         -0.507696        1.000000        0.00091509        0.00150924        0.00109615        0.00302612
     155         -0.506162        1.000000        0.00145162        0.01494880        0.00453124        0.01783499
     156         -0.505742        1.000000        0.00157792        0.00129130        0.00182184        0.01456140
     157         -0.505479        1.000000        0.00142210        0.01427469        0.00488145        0.01546704
     158         -0.504985        1.000000        0.00248331        0.01109044        0.00376595        0.02541592
     159         -0.501193        1.000000        0.00038765        0.00126653        0.00070992        0.00125638
     160         -0.500836        1.000000        0.00043894        0.00207522        0.00104223        0.00152639
     161         -0.500056        1.000000        0.00084449        0.00295869        0.00122479        0.00135569
     162         -0.498111        1.000000        0.00024897        0.00063802        0.00073595        0.00103865
     163         -0.496566        1.000000        0.00020670        0.00080709        0.00091448        0.00180343
     164         -0.496209        1.000000        0.00141213        0.00318471        0.00189591        0.00473726
     165         -0.493706        1.000000        0.00116289        0.00213816        0.00251743        0.00313376
     166         -0.493473        1.000000        0.00029234        0.00229797        0.00155114        0.00243996
     167         -0.493105        1.000000        0.00014496        0.00081594        0.00071159        0.00096208
     168         -0.492559        1.000000        0.00167457        0.00250971        0.00246407        0.00384748
     169         -0.490822        1.000000        0.00005793        0.00048298        0.00034869        0.00061191
     170         -0.490627        1.000000        0.00114555        0.00218989        0.00128169        0.00277559
     171         -0.487525        1.000000        0.00021836        0.00728920        0.00348631        0.00456569
     172         -0.485502        1.000000        0.00007904        0.00060541        0.00097718        0.00254112
     173         -0.481436        1.000000        0.00022041        0.00658031        0.00413666        0.00135441
     174         -0.480184        1.000000        0.00011473        0.00025839        0.00043361        0.00032667
     175         -0.477066        1.000000        0.00008193        0.00031778        0.00028706        0.00072430
     176         -0.473164        1.000000        0.00183942        0.07006328        0.01037798        0.51542901
     177         -0.467152        1.000000        0.00074236        0.23210780        0.17200149        0.20066942
     178         -0.463716        1.000000        0.00194687        0.37170408        0.01724841        0.23620700
     179         -0.463004        1.000000        0.00332305        0.31525323        0.07452070        0.24480897
     180         -0.459201        1.000000        0.00188230        0.48001089        0.02286097        0.10203609
     181         -0.457024        1.000000        0.00182184        0.11337511        0.07841952        0.25567197
     182         -0.455717        1.000000        0.00093845        0.09478453        0.08284798        0.12790487
     183         -0.455158        1.000000        0.00115372        0.31381870        0.19736310        0.04894950
     184         -0.454561        1.000000        0.00024306        0.02720365        0.01929154        0.00623443
     185         -0.454301        1.000000        0.00259498        0.07789970        0.20595225        0.34582419
     186         -0.453384        1.000000        0.00157317        0.02672627        0.17024474        0.42441181
     187         -0.449521        1.000000        0.00192706        0.11834078        0.24816723        0.27915646
     188         -0.448616        1.000000        0.00178791        0.34812909        0.04190757        0.24723962
     189         -0.447967        1.000000        0.00006190        0.01456085        0.00243356        0.62343171
     190         -0.447118        1.000000        0.00090887        0.14442881        0.24366051        0.25393439
     191         -0.445540        1.000000        0.00015480        0.00394383        0.00247541        0.00749984
     192         -0.445081        1.000000        0.00147646        0.18603366        0.33615851        0.12041665
     193         -0.444285        1.000000        0.00091412        0.04762858        0.12798286        0.46045312
     194         -0.443594        1.000000        0.00092112        0.29992883        0.28225844        0.03943615
     195         -0.442760        1.000000        0.00110062        0.30871210        0.15195534        0.18150546
     196         -0.442073        1.000000        0.00160019        0.13005517        0.14475398        0.09099596
     197         -0.441324        1.000000        0.00006793        0.06231359        0.05682836        0.06458653
     198         -0.441164        1.000000        0.00226110        0.27543186        0.15218031        0.07774035
     199         -0.439664        1.000000        0.00279951        0.22793131        0.15929099        0.24979385
     200         -0.437035        1.000000        0.00233193        0.25484284        0.15582062        0.22930035
     201         -0.436608        1.000000        0.00061202        0.21644120        0.03637262        0.37229808
     202         -0.436544        1.000000        0.00267402        0.11174645        0.11688627        0.40594511
     203         -0.435379        1.000000        0.00234139        0.27036053        0.19120718        0.18617844
     204         -0.434699        1.000000        0.00256589        0.15292669        0.16315959        0.24613996
     205         -0.434600        1.000000        0.00225961        0.31227586        0.21505414        0.12139505
     206         -0.433733        1.000000        0.00100823        0.23702498        0.24994692        0.15829746
     207         -0.433671        1.000000        0.00132666        0.07964694        0.06836038        0.46444917
     208         -0.433291        1.000000        0.00043534        0.42683539        0.03610959        0.17878429
     209         -0.432129        1.000000        0.00153109        0.12068901        0.27312170        0.24375004
     210         -0.431490        1.000000        0.00015094        0.03503426        0.31588817        0.28096902
     211         -0.431352        1.000000        0.00170266        0.12352027        0.26334783        0.19854085
     212         -0.429644        1.000000        0.00173566        0.25158192        0.26821418        0.12021501
     213         -0.429374        1.000000        0.00047499        0.02659944        0.02939618        0.19310527
     214         -0.428953        1.000000        0.00207102        0.18274222        0.34885062        0.10893335
     215         -0.427441        1.000000        0.00386342        0.27738566        0.24500043        0.12345241
     216         -0.426052        1.000000        0.00107284        0.46899083        0.09712920        0.08800457
     217         -0.425710        1.000000        0.00277483        0.41008803        0.14595665        0.09256339
     218         -0.425523        1.000000        0.00317576        0.38111431        0.17585682        0.08247579
     219         -0.425141        1.000000        0.00118883        0.42187435        0.07371616        0.16400792
     220         -0.424790        1.000000        0.00124551        0.26456569        0.13636764        0.25229427
     221         -0.424715        1.000000        0.00013413        0.08241935        0.07592515        0.45619131
     222         -0.424122        1.000000        0.00198614        0.23295671        0.17818622        0.24365807
     223         -0.423521        1.000000        0.00220292        0.26356880        0.24253650        0.14538039
     224         -0.422994        1.000000        0.00295574        0.25601953        0.16818335        0.21248985
     225         -0.422558        1.000000        0.00142633        0.07591155        0.46869130        0.09373783
     226         -0.422318        1.000000        0.00151475        0.30587200        0.28636613        0.04445926
     227         -0.422069        1.000000        0.00439566        0.17554387        0.25721284        0.21505190
     228         -0.421995        1.000000        0.00370336        0.29433895        0.13927831        0.20865343
     229         -0.421688        1.000000        0.00305856        0.10248855        0.19246576        0.35365675
     230         -0.421338        1.000000        0.00150922        0.53650786        0.04695615        0.06181396
     231         -0.421125        1.000000        0.00320175        0.19671921        0.23798841        0.21142534
     232         -0.420934        1.000000        0.00149210        0.16639819        0.28764639        0.17334845
     233         -0.420581        1.000000        0.00257240        0.31924788        0.09429632        0.23690968
     234         -0.420485        1.000000        0.00170628        0.28865530        0.17205994        0.19396736
     235         -0.419931        1.000000        0.00184257        0.22078987        0.16710701        0.25776138
     236         -0.419636        1.000000        0.00206953        0.15322436        0.35258441        0.15154720
     237         -0.419357        1.000000        0.00191392        0.10125902        0.27964964        0.25634280
     238         -0.418787        1.000000        0.00190320        0.13643668        0.31511702        0.19773533
     239         -0.418005        1.000000        0.00361910        0.14142431        0.34932361        0.15555579
     240         -0.417469        1.000000        0.00237081        0.23232757        0.11055945        0.31140090
     241         -0.417442        1.000000        0.00280676        0.37848917        0.06474528        0.19995070
     242         -0.416733        1.000000        0.00233216        0.17582238        0.26717668        0.19734247
     243         -0.416324        1.000000        0.00120285        0.33772696        0.16362176        0.13987054
     244         -0.416213        1.000000        0.00022799        0.19253042        0.39164303        0.05068922
     245         -0.415925        1.000000        0.00222605        0.21121171        0.21554491        0.21990074
     246         -0.415575        1.000000        0.00034381        0.17209682        0.39467967        0.06659701
     247         -0.413707        1.000000        0.00165627        0.37222642        0.14629989        0.12547785
     248         -0.413583        1.000000        0.00217863        0.13914615        0.26027342        0.20928708
     249         -0.413373        1.000000        0.00267409        0.12853861        0.21820212        0.30656107
     250         -0.412969        1.000000        0.00186687        0.10382808        0.28538737        0.25929522
     251         -0.412679        1.000000        0.00420420        0.10577216        0.24940088        0.29181755
     252         -0.411686        1.000000        0.00330104        0.25353989        0.16165893        0.20779251
     253         -0.411650        1.000000        0.00162218        0.39037890        0.21775385        0.04117601
     254         -0.411185        1.000000        0.00490217        0.40757298        0.10817770        0.11911610
     255         -0.410792        1.000000        0.00277048        0.07866371        0.46739154        0.10017595
     256         -0.409654        1.000000        0.00242730        0.20067333        0.05326973        0.38493400
     257         -0.409398        1.000000        0.00241492        0.23839936        0.11735202        0.26827829
     258         -0.409046        1.000000        0.00193457        0.30191190        0.17973692        0.15619367
     259         -0.408732        1.000000        0.00320874        0.31409865        0.17159204        0.15382307