# Projected DOS for atomic kind H at iteration step i = 0, E(Fermi) =    -0.110416 a.u.
#     MO Eigenvalue [a.u.]      Occupation                 s
       1         -0.913496        1.000000        0.25232372
       2         -0.907853        1.000000        0.25540023
       3         -0.905423        1.000000        0.25139803
       4         -0.905068        1.000000        0.25247756
       5         -0.900237        1.000000        0.25838087
       6         -0.895034        1.000000        0.26044959
       7         -0.894120        1.000000        0.25521678
       8         -0.892637        1.000000        0.25553550
       9         -0.888455        1.000000        0.25540635
      10         -0.888165        1.000000        0.25630790
      11         -0.887598        1.000000        0.25157465
      12         -0.886643        1.000000        0.25756764
      13         -0.883095        1.000000        0.25349332
      14         -0.882592        1.000000        0.26889501
      15         -0.875608        1.000000        0.28075432
      16         -0.874925        1.000000        0.28284687
      17         -0.874036        1.000000        0.25540551
      18         -0.873992        1.000000        0.25642457
      19         -0.873530        1.000000        0.27232329
      20         -0.871901        1.000000        0.27840258
      21         -0.871531        1.000000        0.25490970
      22         -0.870981        1.000000        0.27747533
      23         -0.870401        1.000000        0.25017530
      24         -0.870394        1.000000        0.25214631
      25         -0.868933        1.000000        0.25769885
      26         -0.868761        1.000000        0.25591215
      27         -0.868170        1.000000        0.27210837
      28         -0.866629        1.000000        0.27957257
      29         -0.865684        1.000000        0.25547503
      30         -0.865021        1.000000        0.25732649
      31         -0.863901        1.000000        0.27585925
      32         -0.863679        1.000000        0.27842200
      33         -0.861830        1.000000        0.28085628
      34         -0.861403        1.000000        0.26270600
      35         -0.860408        1.000000        0.25226296
      36         -0.860012        1.000000        0.25863539
      37         -0.859448        1.000000        0.26112677
      38         -0.857742        1.000000        0.26352397
      39         -0.856838        1.000000        0.25318936
      40         -0.855826        1.000000        0.25974104
      41         -0.855623        1.000000        0.25759247
      42         -0.855360        1.000000        0.24265942
      43         -0.855083        1.000000        0.28048395
      44         -0.854286        1.000000        0.25413729
      45         -0.854126        1.000000        0.25615514
      46         -0.851648        1.000000        0.26670771
      47         -0.851561        1.000000        0.25871190
      48         -0.851052        1.000000        0.24123298
      49         -0.850380        1.000000        0.27147616
      50         -0.850084        1.000000        0.26154763
      51         -0.847499        1.000000        0.25284462
      52         -0.847252        1.000000        0.27605671
      53         -0.846823        1.000000        0.24590302
      54         -0.845588        1.000000        0.27661918
      55         -0.845193        1.000000        0.26058148
      56         -0.844544        1.000000        0.24676678
      57         -0.844415        1.000000        0.26248140
      58         -0.842997        1.000000        0.25853294
      59         -0.842837        1.000000        0.24232045
      60         -0.842672        1.000000        0.25731847
      61         -0.841181        1.000000        0.23764276
      62         -0.840906        1.000000        0.26523607
      63         -0.840229        1.000000        0.24649658
      64         -0.840118        1.000000        0.22748343
      65         -0.839171        1.000000        0.26232284
      66         -0.838851        1.000000        0.25229031
      67         -0.838507        1.000000        0.26124808
      68         -0.837346        1.000000        0.23342887
      69         -0.835449        1.000000        0.24871088
      70         -0.834766        1.000000        0.25325347
      71         -0.834227        1.000000        0.25465407
      72         -0.833803        1.000000        0.25293782
      73         -0.832988        1.000000        0.22384483
      74         -0.832129        1.000000        0.24725423
      75         -0.831658        1.000000        0.22580660
      76         -0.830219        1.000000        0.23443517
      77         -0.828893        1.000000        0.25140205
      78         -0.827008        1.000000        0.23518225
      79         -0.826474        1.000000        0.22487072
      80         -0.826140        1.000000        0.23783922
      81         -0.825867        1.000000        0.22893238
      82         -0.825826        1.000000        0.25536319
      83         -0.824975        1.000000        0.24159385
      84         -0.823050        1.000000        0.21147456
      85         -0.822646        1.000000        0.23462446
      86         -0.822161        1.000000        0.23288663
      87         -0.820953        1.000000        0.21349212
      88         -0.820191        1.000000        0.24997160
      89         -0.818528        1.000000        0.21698215
      90         -0.818490        1.000000        0.25169550
      91         -0.818045        1.000000        0.20120243
      92         -0.816121        1.000000        0.23439040
      93         -0.815830        1.000000        0.21472149
      94         -0.814646        1.000000        0.20309675
      95         -0.814483        1.000000        0.20306537
      96         -0.814352        1.000000        0.20926695
      97         -0.814060        1.000000        0.20033755
      98         -0.813315        1.000000        0.21272107
      99         -0.812875        1.000000        0.23064180
     100         -0.812250        1.000000        0.21742347
     101         -0.810024        1.000000        0.19772339
     102         -0.805573        1.000000        0.19328416
     103         -0.805292        1.000000        0.21211728
     104         -0.805225        1.000000        0.19901025
     105         -0.804152        1.000000        0.21176165
     106         -0.804001        1.000000        0.20554330
     107         -0.801953        1.000000        0.17892330
     108         -0.801951        1.000000        0.25780798
     109         -0.797995        1.000000        0.21754431
     110         -0.797542        1.000000        0.18342912
     111         -0.797454        1.000000        0.24917254
     112         -0.793686        1.000000        0.21986797
     113         -0.793325        1.000000        0.18427888
     114         -0.792839        1.000000        0.18649999
     115         -0.792300        1.000000        0.23494587
     116         -0.792128        1.000000        0.18557129
     117         -0.791217        1.000000        0.19006742
     118         -0.790948        1.000000        0.18630027
     119         -0.786133        1.000000        0.24019538
     120         -0.780412        1.000000        0.17149374
     121         -0.769396        1.000000        0.11762597
     122         -0.765263        1.000000        0.16159871
     123         -0.757220        1.000000        0.06471210
     124         -0.716407        1.000000        0.10044822
     125         -0.622125        1.000000        0.34504028
     126         -0.617622        1.000000        0.35017835
     127         -0.617289        1.000000        0.35414231
     128         -0.616205        1.000000        0.34235455
     129         -0.584755        1.000000        0.36587646
     130         -0.583506        1.000000        0.36503796
     131         -0.575260        1.000000        0.36642736
     132         -0.559155        1.000000        0.00868011
     133         -0.558148        1.000000        0.01337627
     134         -0.551610        1.000000        0.01118948
     135         -0.536056        1.000000        0.01694756
     136         -0.534725        1.000000        0.01966560
     137         -0.529716        1.000000        0.03146478
     138         -0.526273        1.000000        0.04700916
     139         -0.525800        1.000000        0.04454602
     140         -0.524414        1.000000        0.05435751
     141         -0.522750        1.000000        0.03324361
     142         -0.520662        1.000000        0.02958772
     143         -0.519315        1.000000        0.01424936
     144         -0.519086        1.000000        0.03571004
     145         -0.518365        1.000000        0.03110756
     146         -0.517899        1.000000        0.02004495
     147         -0.517729        1.000000        0.01898674
     148         -0.516884        1.000000        0.04168209
     149         -0.515901        1.000000        0.00905566
     150         -0.514574        1.000000        0.03619035
     151         -0.514062        1.000000        0.03316952
     152         -0.512702        1.000000        0.05170463
     153         -0.511512        1.000000        0.01889839
     154         -0.508757        1.000000        0.02420766
     155         -0.507727        1.000000        0.03046828
     156         -0.507161        1.000000        0.03600293
     157         -0.505814        1.000000        0.05120935
     158         -0.504112        1.000000        0.02999689
     159         -0.503855        1.000000        0.02515981
     160         -0.503394        1.000000        0.00916345
     161         -0.501694        1.000000        0.00922241
     162         -0.499003        1.000000        0.00775005
     163         -0.498244        1.000000        0.01897571
     164         -0.497022        1.000000        0.01805202
     165         -0.496098        1.000000        0.26254673
     166         -0.495604        1.000000        0.00960441
     167         -0.495101        1.000000        0.01528428
     168         -0.493210        1.000000        0.27457509
     169         -0.492680        1.000000        0.01925204
     170         -0.491147        1.000000        0.26951609
     171         -0.487650        1.000000        0.27235606
     172         -0.485806        1.000000        0.23900962
     173         -0.481492        1.000000        0.25841980
     174         -0.481054        1.000000        0.24171085
     175         -0.477652        1.000000        0.27145733
     176         -0.473200        1.000000        0.32814543
     177         -0.467152        1.000000        0.34449908
     178         -0.463718        1.000000        0.34502935
     179         -0.463005        1.000000        0.34605288
     180         -0.459206        1.000000        0.32678604
     181         -0.457178        1.000000        0.33930641
     182         -0.455756        1.000000        0.33826082
     183         -0.455208        1.000000        0.34617228
     184         -0.454588        1.000000        0.33667168
     185         -0.453938        1.000000        0.33944088
     186         -0.453391        1.000000        0.34915765
     187         -0.449521        1.000000        0.34772447
     188         -0.448629        1.000000        0.33720455
     189         -0.447978        1.000000        0.35819451
     190         -0.447118        1.000000        0.34896822
     191         -0.445553        1.000000        0.33841145
     192         -0.445088        1.000000        0.34419479
     193         -0.444305        1.000000        0.35532423
     194         -0.443597        1.000000        0.34130563
     195         -0.442642        1.000000        0.34163166
     196         -0.442061        1.000000        0.33256507
     197         -0.441329        1.000000        0.32569873
     198         -0.441151        1.000000        0.33982835
     199         -0.439664        1.000000        0.34502788
     200         -0.437050        1.000000        0.34447272
     201         -0.436756        1.000000        0.34468367
     202         -0.436288        1.000000        0.35438881
     203         -0.435394        1.000000        0.34213422
     204         -0.434698        1.000000        0.34764877
     205         -0.434611        1.000000        0.34424355
     206         -0.433995        1.000000        0.35010274
     207         -0.433757        1.000000        0.34860447
     208         -0.433227        1.000000        0.35508272
     209         -0.432153        1.000000        0.34617775
     210         -0.431495        1.000000        0.36213032
     211         -0.431366        1.000000        0.34412148
     212         -0.429670        1.000000        0.34745217
     213         -0.429402        1.000000        0.32268523
     214         -0.428960        1.000000        0.35066575
     215         -0.427470        1.000000        0.33703322
     216         -0.425749        1.000000        0.34418226
     217         -0.425687        1.000000        0.34483086
     218         -0.425489        1.000000        0.34900488
     219         -0.425151        1.000000        0.33782260
     220         -0.424805        1.000000        0.34427259
     221         -0.424746        1.000000        0.35100105
     222         -0.424128        1.000000        0.33504794
     223         -0.423373        1.000000        0.34233324
     224         -0.422999        1.000000        0.33700077
     225         -0.422340        1.000000        0.34468067
     226         -0.422076        1.000000        0.34132107
     227         -0.422010        1.000000        0.34503243
     228         -0.421744        1.000000        0.34441025
     229         -0.421359        1.000000        0.34641250
     230         -0.421028        1.000000        0.34598442
     231         -0.420893        1.000000        0.34011660
     232         -0.420674        1.000000        0.34299332
     233         -0.420559        1.000000        0.34336261
     234         -0.420485        1.000000        0.34003714
     235         -0.419925        1.000000        0.34648895
     236         -0.419644        1.000000        0.33554758
     237         -0.419238        1.000000        0.34018443
     238         -0.418736        1.000000        0.34027727
     239         -0.418013        1.000000        0.34469675
     240         -0.417471        1.000000        0.34585372
     241         -0.416909        1.000000        0.34231233
     242         -0.416747        1.000000        0.34234764
     243         -0.416342        1.000000        0.34616486
     244         -0.416219        1.000000        0.35522377
     245         -0.415944        1.000000        0.34464273
     246         -0.415575        1.000000        0.35377721
     247         -0.413727        1.000000        0.34622781
     248         -0.413577        1.000000        0.34091792
     249         -0.413383        1.000000        0.33907611
     250         -0.412975        1.000000        0.34611857
     251         -0.412631        1.000000        0.34100322
     252         -0.411706        1.000000        0.34157301
     253         -0.411677        1.000000        0.34245127
     254         -0.411224        1.000000        0.33716915
     255         -0.410796        1.000000        0.34114147
     256         -0.409686        1.000000        0.33683093
     257         -0.409330        1.000000        0.33796221
     258         -0.408826        1.000000        0.33705241
     259         -0.408644        1.000000        0.35583542
     260         -0.408439        1.000000        0.33183207
     261         -0.407083        1.000000        0.33964444
     262         -0.406299        1.000000        0.34525282
     263         -0.405602        1.000000        0.33913671
     264         -0.405523        1.000000        0.34010940
     265         -0.404961        1.000000        0.33955594
     266         -0.404376        1.000000        0.34329554
     267         -0.404246        1.000000        0.32210965
     268         -0.403941        1.000000        0.34512950
     269         -0.403590        1.000000        0.34295276
     270         -0.402613        1.000000        0.32808311
     271         -0.402161        1.000000        0.18859074
     272         -0.401565        1.000000        0.34089361
     273         -0.401128        1.000000        0.34681994
     274         -0.400694        1.000000        0.32401366
     275         -0.399419        1.000000        0.32846648
     276         -0.399388        1.000000        0.33738580
     277         -0.399173        1.000000        0.33795236
     278         -0.399092        1.000000        0.34214284
     279         -0.398899        1.000000        0.33823531
     280         -0.398498        1.000000        0.31866623
     281         -0.398001        1.000000        0.34247061
     282         -0.397596        1.000000        0.18341427
     283         -0.397305        1.000000        0.24321496
     284         -0.397042        1.000000        0.15104143
     285         -0.396876        1.000000        0.15629594
     286         -0.395848        1.000000        0.15660257
     287         -0.395293        1.000000        0.31371976
     288         -0.394965        1.000000        0.26498056
     289         -0.394251        1.000000        0.08466265
     290         -0.393995        1.000000        0.18636014
     291         -0.392895        1.000000        0.17686796
     292         -0.392658        1.000000        0.17525111
     293         -0.391462        1.000000        0.31847539
     294         -0.391058        1.000000        0.32205067
     295         -0.390228        1.000000        0.32816416
     296         -0.389794        1.000000        0.16032292
     297         -0.389429        1.000000        0.36517836
     298         -0.388608        1.000000        0.24925470
     299         -0.386107        1.000000        0.11407853
     300         -0.384980        1.000000        0.18596393
     301         -0.383677        1.000000        0.00924671
     302         -0.382972        1.000000        0.34495128
     303         -0.382078        1.000000        0.36343938
     304         -0.377678        1.000000        0.01605008
     305         -0.373060        1.000000        0.35091545
     306         -0.372846        1.000000        0.32892624
     307         -0.369286        1.000000        0.27132487
     308         -0.366253        1.000000        0.25450330
     309         -0.364681        1.000000        0.35582369
     310         -0.363535        1.000000        0.17894530
     311         -0.363148        1.000000        0.32771732
     312         -0.361498        1.000000        0.35138034
     313         -0.359461        1.000000        0.36790757
     314         -0.359367        1.000000        0.18315927
     315         -0.351996        1.000000        0.17353868
     316         -0.345105        1.000000        0.20820181
     317         -0.339050        1.000000        0.42475791
     318         -0.337546        1.000000        0.41282219
     319         -0.337380        1.000000        0.42255201
     320         -0.336564        1.000000        0.42024352
     321         -0.334899        1.000000        0.41090102
     322         -0.333310        1.000000        0.42078888
     323         -0.333111        1.000000        0.29507683
     324         -0.332457        1.000000        0.24416776
     325         -0.331234        1.000000        0.21709073
     326         -0.331105        1.000000        0.17124293
     327         -0.330708        1.000000        0.41893739
     328         -0.324935        1.000000        0.17484697
     329         -0.323409        1.000000        0.16213475
     330         -0.320829        1.000000        0.28295431
     331         -0.317487        1.000000        0.19931176
     332         -0.316800        1.000000        0.13817878
     333         -0.315448        1.000000        0.16038208
     334         -0.311727        1.000000        0.33434804
     335         -0.310736        1.000000        0.18584420
     336         -0.310606        1.000000        0.14466209
     337         -0.310170        1.000000        0.17782394
     338         -0.306918        1.000000        0.16267231
     339         -0.306861        1.000000        0.19693528
     340         -0.306646        1.000000        0.28789188
     341         -0.305528        1.000000        0.42294811
     342         -0.303504        1.000000        0.20630657
     343         -0.302858        1.000000        0.13065655
     344         -0.302384        1.000000        0.20715530
     345         -0.301952        1.000000        0.14947181
     346         -0.301502        1.000000        0.17249591
     347         -0.299859        1.000000        0.13964174
     348         -0.298155        1.000000        0.33952246
     349         -0.297459        1.000000        0.21300185
     350         -0.297338        1.000000        0.19086478
     351         -0.297163        1.000000        0.12308821
     352         -0.295724        1.000000        0.13401058
     353         -0.294954        1.000000        0.14932891
     354         -0.293538        1.000000        0.19003743
     355         -0.291538        1.000000        0.15039954
     356         -0.290617        1.000000        0.12978804
     357         -0.289356        1.000000        0.12636190
     358         -0.285399        1.000000        0.12714377
     359         -0.284704        1.000000        0.12839924
     360         -0.283959        1.000000        0.12557518
     361         -0.283043        1.000000        0.12772301
     362         -0.281120        1.000000        0.09817187
     363         -0.279866        1.000000        0.11584627
     364         -0.278446        1.000000        0.11257143
     365         -0.276783        1.000000        0.12994343
     366         -0.273614        1.000000        0.11136812
     367         -0.273195        1.000000        0.11480466
     368         -0.273005        1.000000        0.10768374
     369         -0.271848        1.000000        0.11240786
     370         -0.271035        1.000000        0.10000965
     371         -0.270975        1.000000        0.09998924
     372         -0.270144        1.000000        0.08820532
     373         -0.268817        1.000000        0.11182730
     374         -0.267451        1.000000        0.08845302
     375         -0.266456        1.000000        0.10267050
     376         -0.265868        1.000000        0.08933852
     377         -0.264406        1.000000        0.08904412
     378         -0.264183        1.000000        0.08640764
     379         -0.261768        1.000000        0.09530736
     380         -0.260883        1.000000        0.09637943
     381         -0.260088        1.000000        0.09100515
     382         -0.259468        1.000000        0.08946212
     383         -0.257497        1.000000        0.09603068
     384         -0.254473        1.000000        0.09248195
     385         -0.252498        1.000000        0.07970400
     386         -0.252220        1.000000        0.08419092
     387         -0.251290        1.000000        0.07908125
     388         -0.251095        1.000000        0.08894022
     389         -0.250852        1.000000        0.06485380
     390         -0.249759        1.000000        0.08790913
     391         -0.248539        1.000000        0.03226179
     392         -0.247231        1.000000        0.08496105
     393         -0.246747        1.000000        0.09002743
     394         -0.243967        1.000000        0.07785495
     395         -0.243729        1.000000        0.08590434
     396         -0.242004        1.000000        0.09068496
     397         -0.237770        1.000000        0.05941803
     398         -0.237478        1.000000        0.05691380
     399         -0.237083        1.000000        0.08875733
     400         -0.236353        1.000000        0.08015011
     401         -0.235921        1.000000        0.05648403
     402         -0.233386        1.000000        0.05892923
     403         -0.232033        1.000000        0.02029673
     404         -0.230959        1.000000        0.04468826
     405         -0.229112        1.000000        0.06276358
     406         -0.228848        1.000000        0.02926769
     407         -0.226867        1.000000        0.03487668
     408         -0.226427        1.000000        0.06303946
     409         -0.225649        1.000000        0.05773271
     410         -0.225509        1.000000        0.06089199
     411         -0.224370        1.000000        0.06022271
     412         -0.223983        1.000000        0.03690116
     413         -0.223488        1.000000        0.03290281
     414         -0.222193        1.000000        0.05643294
     415         -0.221350        1.000000        0.06558819
     416         -0.220920        1.000000        0.04368596
     417         -0.220562        1.000000        0.03071508
     418         -0.220304        1.000000        0.05379323
     419         -0.219130        1.000000        0.03706475
     420         -0.218319        1.000000        0.03670592
     421         -0.217685        1.000000        0.03602332
     422         -0.217453        1.000000        0.04296757
     423         -0.216116        1.000000        0.05280775
     424         -0.214869        1.000000        0.02331105
     425         -0.213971        1.000000        0.01722798
     426         -0.211978        1.000000        0.02368838
     427         -0.211813        1.000000        0.00561255
     428         -0.211555        1.000000        0.02100719
     429         -0.211247        1.000000        0.02022059
     430         -0.210978        1.000000        0.02256741
     431         -0.210328        1.000000        0.02547293
     432         -0.209756        1.000000        0.02656311
     433         -0.208813        1.000000        0.02220968
     434         -0.208378        1.000000        0.03247720
     435         -0.208086        1.000000        0.01561232
     436         -0.207298        1.000000        0.02161977
     437         -0.207251        1.000000        0.01372631
     438         -0.206671        1.000000        0.03199644
     439         -0.206290        1.000000        0.02758299
     440         -0.204680        1.000000        0.01765358
     441         -0.204169        1.000000        0.02714343
     442         -0.204035        1.000000        0.00782850
     443         -0.203263        1.000000        0.02310755
     444         -0.202854        1.000000        0.02447152
     445         -0.202495        1.000000        0.01487090
     446         -0.201683        1.000000        0.01143634
     447         -0.201332        1.000000        0.02330514
     448         -0.201024        1.000000        0.01096362
     449         -0.200152        1.000000        0.00640548
     450         -0.199371        1.000000        0.01000088
     451         -0.199040        1.000000        0.01427326
     452         -0.198631        1.000000        0.01137399
     453         -0.198303        1.000000        0.01003009
     454         -0.197749        1.000000        0.00595589
     455         -0.197245        1.000000        0.02666655
     456         -0.197077        1.000000        0.00853216
     457         -0.196642        1.000000        0.01377621
     458         -0.195975        1.000000        0.01168562
     459         -0.195312        1.000000        0.01369516
     460         -0.194926        1.000000        0.02510832
     461         -0.194817        1.000000        0.01156919
     462         -0.194619        1.000000        0.01732843
     463         -0.194320        1.000000        0.01619629
     464         -0.193673        1.000000        0.01053034
     465         -0.193167        1.000000        0.00692742
     466         -0.192369        1.000000        0.01041014
     467         -0.192160        1.000000        0.00935984
     468         -0.191508        1.000000        0.00988944
     469         -0.191174        1.000000        0.01035692
     470         -0.190996        1.000000        0.01928115
     471         -0.190655        1.000000        0.01406852
     472         -0.190494        1.000000        0.00876084
     473         -0.190287        1.000000        0.01047186
     474         -0.189619        1.000000        0.01915220
     475         -0.188672        1.000000        0.00451060
     476         -0.188147        1.000000        0.00883836
     477         -0.187913        1.000000        0.00654974
     478         -0.187261        1.000000        0.00574976
     479         -0.187100        1.000000        0.00944288
     480         -0.186857        1.000000        0.00843620
     481         -0.186287        1.000000        0.00896298
     482         -0.185976        1.000000        0.00704689
     483         -0.185491        1.000000        0.00888341
     484         -0.185150        1.000000        0.01148172
     485         -0.184644        1.000000        0.00907537
     486         -0.184258        1.000000        0.01264968
     487         -0.183735        1.000000        0.01321747
     488         -0.183339        1.000000        0.00917359
     489         -0.183215        1.000000        0.00865681