# Projected DOS for atomic kind Pb at iteration step i = 0, E(Fermi) =    -0.110416 a.u.
#     MO Eigenvalue [a.u.]      Occupation                 s                py                pz                px
       1         -0.913496        1.000000        0.00000020        0.00000000        0.00000000        0.00000139
       2         -0.907853        1.000000        0.00000010        0.00000081        0.00000000        0.00000009
       3         -0.905423        1.000000        0.00000003        0.00000023        0.00000001        0.00000000
       4         -0.905068        1.000000        0.00000011        0.00000093        0.00000012        0.00000066
       5         -0.900237        1.000000        0.00000004        0.00000022        0.00000003        0.00000002
       6         -0.895034        1.000000        0.00000006        0.00000005        0.00000050        0.00000038
       7         -0.894120        1.000000        0.00000010        0.00000065        0.00000026        0.00000010
       8         -0.892637        1.000000        0.00000011        0.00000002        0.00000043        0.00000000
       9         -0.888455        1.000000        0.00000019        0.00000004        0.00000000        0.00000069
      10         -0.888165        1.000000        0.00000025        0.00000000        0.00000000        0.00000107
      11         -0.887598        1.000000        0.00000029        0.00000458        0.00000310        0.00000108
      12         -0.886643        1.000000        0.00000017        0.00000191        0.00000036        0.00000023
      13         -0.883095        1.000000        0.00000013        0.00000062        0.00000077        0.00000035
      14         -0.882592        1.000000        0.00000027        0.00000396        0.00000010        0.00000270
      15         -0.875608        1.000000        0.00000034        0.00000390        0.00000363        0.00000188
      16         -0.874925        1.000000        0.00000049        0.00000788        0.00000775        0.00000254
      17         -0.874036        1.000000        0.00000013        0.00000000        0.00000011        0.00000101
      18         -0.873992        1.000000        0.00000031        0.00000001        0.00000300        0.00000174
      19         -0.873530        1.000000        0.00000111        0.00001044        0.00000056        0.00000438
      20         -0.871901        1.000000        0.00000030        0.00000189        0.00000167        0.00000343
      21         -0.871531        1.000000        0.00000002        0.00000000        0.00000007        0.00000000
      22         -0.870981        1.000000        0.00000024        0.00000004        0.00000001        0.00000173
      23         -0.870401        1.000000        0.00000013        0.00000218        0.00000120        0.00000473
      24         -0.870394        1.000000        0.00000024        0.00000398        0.00000005        0.00000144
      25         -0.868933        1.000000        0.00000155        0.00001513        0.00001304        0.00000351
      26         -0.868761        1.000000        0.00000033        0.00000014        0.00000003        0.00000170
      27         -0.868170        1.000000        0.00000245        0.00001415        0.00004821        0.00001372
      28         -0.866629        1.000000        0.00000014        0.00000033        0.00000039        0.00000088
      29         -0.865684        1.000000        0.00000001        0.00000006        0.00000015        0.00000098
      30         -0.865021        1.000000        0.00000019        0.00000001        0.00000090        0.00000001
      31         -0.863901        1.000000        0.00000026        0.00000013        0.00000304        0.00000225
      32         -0.863679        1.000000        0.00000076        0.00001115        0.00000704        0.00000287
      33         -0.861830        1.000000        0.00000044        0.00000086        0.00000192        0.00000244
      34         -0.861403        1.000000        0.00000021        0.00000073        0.00000025        0.00000189
      35         -0.860408        1.000000        0.00000000        0.00000126        0.00000011        0.00000001
      36         -0.860012        1.000000        0.00000016        0.00000018        0.00000049        0.00000177
      37         -0.859448        1.000000        0.00000020        0.00000139        0.00000177        0.00000015
      38         -0.857742        1.000000        0.00000007        0.00000027        0.00000023        0.00000125
      39         -0.856838        1.000000        0.00000006        0.00000007        0.00000041        0.00000016
      40         -0.855826        1.000000        0.00000019        0.00000296        0.00000134        0.00000100
      41         -0.855623        1.000000        0.00000007        0.00000009        0.00000038        0.00000003
      42         -0.855360        1.000000        0.00000002        0.00000022        0.00000022        0.00000015
      43         -0.855083        1.000000        0.00000089        0.00000461        0.00000932        0.00000217
      44         -0.854286        1.000000        0.00000005        0.00000039        0.00000009        0.00000016
      45         -0.854126        1.000000        0.00000009        0.00000094        0.00000051        0.00000176
      46         -0.851648        1.000000        0.00000007        0.00000163        0.00000090        0.00000025
      47         -0.851561        1.000000        0.00000048        0.00000142        0.00000833        0.00000223
      48         -0.851052        1.000000        0.00000029        0.00000092        0.00000059        0.00000084
      49         -0.850380        1.000000        0.00000007        0.00000033        0.00000005        0.00000008
      50         -0.850084        1.000000        0.00000007        0.00000033        0.00000047        0.00000028
      51         -0.847499        1.000000        0.00000006        0.00000011        0.00000079        0.00000101
      52         -0.847252        1.000000        0.00000037        0.00000020        0.00000176        0.00000005
      53         -0.846823        1.000000        0.00000037        0.00000477        0.00000071        0.00000109
      54         -0.845588        1.000000        0.00000026        0.00000070        0.00000096        0.00000140
      55         -0.845193        1.000000        0.00000071        0.00000516        0.00000826        0.00000191
      56         -0.844544        1.000000        0.00000006        0.00000037        0.00000018        0.00000008
      57         -0.844415        1.000000        0.00000132        0.00000098        0.00002188        0.00000732
      58         -0.842997        1.000000        0.00000057        0.00000201        0.00000294        0.00000090
      59         -0.842837        1.000000        0.00000003        0.00000110        0.00000033        0.00000097
      60         -0.842672        1.000000        0.00000033        0.00000270        0.00000191        0.00000193
      61         -0.841181        1.000000        0.00000012        0.00000027        0.00000083        0.00000159
      62         -0.840906        1.000000        0.00000005        0.00000232        0.00000114        0.00000158
      63         -0.840229        1.000000        0.00000006        0.00000023        0.00000024        0.00000064
      64         -0.840118        1.000000        0.00000060        0.00000357        0.00000053        0.00000033
      65         -0.839171        1.000000        0.00000014        0.00000015        0.00000126        0.00000030
      66         -0.838851        1.000000        0.00000553        0.00003863        0.00005546        0.00000243
      67         -0.838507        1.000000        0.00000010        0.00000122        0.00000067        0.00000011
      68         -0.837346        1.000000        0.00000007        0.00000029        0.00000040        0.00000150
      69         -0.835449        1.000000        0.00000023        0.00000102        0.00000080        0.00000017
      70         -0.834766        1.000000        0.00000002        0.00000073        0.00000027        0.00000069
      71         -0.834227        1.000000        0.00000007        0.00000287        0.00000067        0.00000182
      72         -0.833803        1.000000        0.00000008        0.00000018        0.00000014        0.00000031
      73         -0.832988        1.000000        0.00000034        0.00000060        0.00000085        0.00000239
      74         -0.832129        1.000000        0.00000001        0.00000015        0.00000000        0.00000017
      75         -0.831658        1.000000        0.00000003        0.00000002        0.00000037        0.00000034
      76         -0.830219        1.000000        0.00000007        0.00000028        0.00000008        0.00000034
      77         -0.828893        1.000000        0.00000006        0.00000038        0.00000073        0.00000064
      78         -0.827008        1.000000        0.00000006        0.00000024        0.00000004        0.00000015
      79         -0.826474        1.000000        0.00000007        0.00000015        0.00000048        0.00000024
      80         -0.826140        1.000000        0.00000003        0.00000033        0.00000025        0.00000023
      81         -0.825867        1.000000        0.00000025        0.00000069        0.00000083        0.00000003
      82         -0.825826        1.000000        0.00000000        0.00000002        0.00000000        0.00000001
      83         -0.824975        1.000000        0.00000019        0.00000009        0.00000144        0.00000026
      84         -0.823050        1.000000        0.00000011        0.00000034        0.00000012        0.00000088
      85         -0.822646        1.000000        0.00000005        0.00000058        0.00000007        0.00000069
      86         -0.822161        1.000000        0.00000041        0.00000037        0.00000106        0.00000012
      87         -0.820953        1.000000        0.00000007        0.00000042        0.00000154        0.00000094
      88         -0.820191        1.000000        0.00000028        0.00000136        0.00000210        0.00000082
      89         -0.818528        1.000000        0.00000023        0.00000033        0.00000077        0.00000166
      90         -0.818490        1.000000        0.00000003        0.00000004        0.00000003        0.00000009
      91         -0.818045        1.000000        0.00000041        0.00000135        0.00000123        0.00000061
      92         -0.816121        1.000000        0.00000059        0.00000720        0.00000154        0.00000107
      93         -0.815830        1.000000        0.00000031        0.00000111        0.00000099        0.00000028
      94         -0.814646        1.000000        0.00000017        0.00000025        0.00000113        0.00000107
      95         -0.814483        1.000000        0.00000011        0.00000081        0.00000089        0.00000011
      96         -0.814352        1.000000        0.00000012        0.00000062        0.00000058        0.00000064
      97         -0.814060        1.000000        0.00000029        0.00000193        0.00000032        0.00000029
      98         -0.813315        1.000000        0.00000015        0.00000126        0.00000077        0.00000028
      99         -0.812875        1.000000        0.00000020        0.00000249        0.00000045        0.00000032
     100         -0.812250        1.000000        0.00000007        0.00000010        0.00000046        0.00000065
     101         -0.810024        1.000000        0.00000007        0.00000024        0.00000025        0.00000047
     102         -0.805573        1.000000        0.00000004        0.00000007        0.00000003        0.00000009
     103         -0.805292        1.000000        0.00000010        0.00000050        0.00000098        0.00000038
     104         -0.805225        1.000000        0.00000033        0.00000098        0.00000134        0.00000067
     105         -0.804152        1.000000        0.00000017        0.00000047        0.00000237        0.00000139
     106         -0.804001        1.000000        0.00000017        0.00000037        0.00000003        0.00000043
     107         -0.801953        1.000000        0.00000003        0.00000019        0.00000017        0.00000023
     108         -0.801951        1.000000        0.00000007        0.00000059        0.00000028        0.00000024
     109         -0.797995        1.000000        0.00000021        0.00000041        0.00000146        0.00000149
     110         -0.797542        1.000000        0.00000037        0.00000015        0.00000266        0.00000094
     111         -0.797454        1.000000        0.00000007        0.00000001        0.00000018        0.00000011
     112         -0.793686        1.000000        0.00000017        0.00000002        0.00000044        0.00000035
     113         -0.793325        1.000000        0.00000006        0.00000036        0.00000003        0.00000001
     114         -0.792839        1.000000        0.00000011        0.00000039        0.00000083        0.00000018
     115         -0.792300        1.000000        0.00000000        0.00000007        0.00000009        0.00000001
     116         -0.792128        1.000000        0.00000002        0.00000052        0.00000023        0.00000038
     117         -0.791217        1.000000        0.00000007        0.00000001        0.00000109        0.00000006
     118         -0.790948        1.000000        0.00000001        0.00000017        0.00000006        0.00000001
     119         -0.786133        1.000000        0.00000001        0.00000002        0.00000012        0.00000003
     120         -0.780412        1.000000        0.00000007        0.00000143        0.00000003        0.00000003
     121         -0.769396        1.000000        0.00000098        0.00000101        0.00000205        0.00001151
     122         -0.765263        1.000000        0.00001110        0.00000001        0.00004470        0.00000153
     123         -0.757220        1.000000        0.00000740        0.00007171        0.00000065        0.00000143
     124         -0.716407        1.000000        0.00000010        0.00000004        0.00000001        0.00000035
     125         -0.622125        1.000000        0.00002984        0.00002982        0.00002210        0.00001041
     126         -0.617622        1.000000        0.00005241        0.00004500        0.00009357        0.00005350
     127         -0.617289        1.000000        0.00004072        0.00005835        0.00002179        0.00000298
     128         -0.616205        1.000000        0.00002226        0.00003766        0.00002359        0.00001138
     129         -0.584755        1.000000        0.00009748        0.00005502        0.00004474        0.00003897
     130         -0.583506        1.000000        0.00014039        0.00007338        0.00008374        0.00002994
     131         -0.575260        1.000000        0.00008699        0.00003448        0.00004238        0.00005950
     132         -0.559155        1.000000        0.00000999        0.00001160        0.00000041        0.00000033
     133         -0.558148        1.000000        0.00132219        0.00219477        0.00001731        0.00003914
     134         -0.551610        1.000000        0.00418155        0.00021831        0.00084419        0.00239651
     135         -0.536056        1.000000        0.10595403        0.00273791        0.00151680        0.00130480
     136         -0.534725        1.000000        0.08915916        0.00267319        0.00372718        0.00031567
     137         -0.529716        1.000000        0.01151298        0.00221043        0.02993393        0.00241401
     138         -0.526273        1.000000        0.06727155        0.00217401        0.01269846        0.00049299
     139         -0.525800        1.000000        0.07429267        0.00367581        0.00462620        0.00178523
     140         -0.524414        1.000000        0.04337807        0.00463589        0.00542063        0.00104956
     141         -0.522750        1.000000        0.02284891        0.00676552        0.00398049        0.01443546
     142         -0.520662        1.000000        0.03936383        0.00693877        0.00672410        0.00527450
     143         -0.519315        1.000000        0.04082513        0.00781807        0.00367280        0.01028891
     144         -0.519086        1.000000        0.02534347        0.01445776        0.00341387        0.00604109
     145         -0.518365        1.000000        0.01553790        0.00665373        0.00781803        0.00495553
     146         -0.517899        1.000000        0.02044560        0.00386183        0.00174098        0.02088281
     147         -0.517729        1.000000        0.01112438        0.01853051        0.00225318        0.00377605
     148         -0.516884        1.000000        0.02144588        0.00523275        0.01793827        0.00263767
     149         -0.515901        1.000000        0.01282200        0.00171168        0.02672384        0.00507345
     150         -0.514574        1.000000        0.01103560        0.01340412        0.00343073        0.00150399
     151         -0.514062        1.000000        0.03355028        0.00221362        0.01135999        0.00869094
     152         -0.512702        1.000000        0.03095760        0.00580478        0.00800502        0.00637846
     153         -0.511512        1.000000        0.06198326        0.00259063        0.00529653        0.00980009
     154         -0.508757        1.000000        0.03142551        0.00717775        0.00992309        0.00956973
     155         -0.507727        1.000000        0.01719561        0.00455399        0.00484060        0.01309343
     156         -0.507161        1.000000        0.01473738        0.00599442        0.00650282        0.01141992
     157         -0.505814        1.000000        0.00105346        0.00970475        0.00124496        0.00301725
     158         -0.504112        1.000000        0.00411465        0.00319211        0.00597397        0.00750800
     159         -0.503855        1.000000        0.00663504        0.00349020        0.00408149        0.01097405
     160         -0.503394        1.000000        0.00180664        0.00033178        0.01157994        0.01900893
     161         -0.501694        1.000000        0.01477685        0.00149285        0.00145826        0.03303411
     162         -0.499003        1.000000        0.00287678        0.03946947        0.00216251        0.00269922
     163         -0.498244        1.000000        0.01247837        0.00107990        0.00764477        0.02540884
     164         -0.497022        1.000000        0.00196690        0.01781562        0.00153198        0.00480057
     165         -0.496098        1.000000        0.00304736        0.00166950        0.00037846        0.00156028
     166         -0.495604        1.000000        0.00565404        0.00183902        0.00531498        0.00401434
     167         -0.495101        1.000000        0.01844500        0.00171372        0.01946281        0.00358563
     168         -0.493210        1.000000        0.00044058        0.00142331        0.00198073        0.00105676
     169         -0.492680        1.000000        0.00236749        0.00136009        0.01507587        0.00018453
     170         -0.491147        1.000000        0.00367079        0.00246245        0.00108556        0.00084799
     171         -0.487650        1.000000        0.00244870        0.00168097        0.00135669        0.00044954
     172         -0.485806        1.000000        0.00541839        0.00529102        0.00051267        0.00055487
     173         -0.481492        1.000000        0.00469042        0.00206971        0.00104635        0.00015665
     174         -0.481054        1.000000        0.00373221        0.00118412        0.00310885        0.00067183
     175         -0.477652        1.000000        0.00442016        0.00149608        0.00188119        0.00007442
     176         -0.473200        1.000000        0.00366939        0.00005920        0.00000331        0.00238798
     177         -0.467152        1.000000        0.00157343        0.00106036        0.00000124        0.00001633
     178         -0.463718        1.000000        0.00018112        0.00031091        0.00000374        0.00001795
     179         -0.463005        1.000000        0.00069360        0.00035193        0.00000033        0.00000767
     180         -0.459206        1.000000        0.00114646        0.00101264        0.00001041        0.00000231
     181         -0.457178        1.000000        0.00334263        0.00000986        0.00000675        0.00090961
     182         -0.455756        1.000000        0.00250918        0.00004724        0.00000306        0.00031186
     183         -0.455208        1.000000        0.00154522        0.00077341        0.00000748        0.00017979
     184         -0.454588        1.000000        0.00055127        0.00002698        0.00037151        0.00000188
     185         -0.453938        1.000000        0.00045586        0.00003255        0.00011477        0.00002549
     186         -0.453391        1.000000        0.00177206        0.00007452        0.00000641        0.00069378
     187         -0.449521        1.000000        0.00027533        0.00006747        0.00000156        0.00000216
     188         -0.448629        1.000000        0.00260278        0.00003193        0.00000154        0.00050272
     189         -0.447978        1.000000        0.00007408        0.00000035        0.00002812        0.00000013
     190         -0.447118        1.000000        0.00013126        0.00006360        0.00000043        0.00000258
     191         -0.445553        1.000000        0.00122011        0.00000471        0.00023705        0.00002099
     192         -0.445088        1.000000        0.00061908        0.00005538        0.00000430        0.00000278
     193         -0.444305        1.000000        0.00124489        0.00012336        0.00003929        0.00001638
     194         -0.443597        1.000000        0.00092335        0.00018586        0.00008059        0.00000229
     195         -0.442642        1.000000        0.00084163        0.00001119        0.00004051        0.00003396
     196         -0.442061        1.000000        0.00083809        0.00000499        0.00001039        0.00013461
     197         -0.441329        1.000000        0.00029325        0.00000905        0.00001350        0.00000418
     198         -0.441151        1.000000        0.00013962        0.00001547        0.00000498        0.00002142
     199         -0.439664        1.000000        0.00013977        0.00002510        0.00000059        0.00000453
     200         -0.437050        1.000000        0.00059234        0.00001857        0.00000136        0.00001944
     201         -0.436756        1.000000        0.00154651        0.00005887        0.00000377        0.00002066
     202         -0.436288        1.000000        0.00106672        0.00003371        0.00000638        0.00012222
     203         -0.435394        1.000000        0.00131366        0.00001857        0.00009711        0.00002143
     204         -0.434698        1.000000        0.00001467        0.00000132        0.00000159        0.00000334
     205         -0.434611        1.000000        0.00035846        0.00000135        0.00009047        0.00000955
     206         -0.433995        1.000000        0.00831429        0.00014304        0.00004937        0.00090437
     207         -0.433757        1.000000        0.00003132        0.00003477        0.00001092        0.00008269
     208         -0.433227        1.000000        0.00027023        0.00000078        0.00001449        0.00013483
     209         -0.432153        1.000000        0.00215575        0.00000556        0.00000099        0.00011952
     210         -0.431495        1.000000        0.00000719        0.00000031        0.00000033        0.00000230
     211         -0.431366        1.000000        0.00014064        0.00000342        0.00000172        0.00002479
     212         -0.429670        1.000000        0.00019272        0.00006205        0.00001209        0.00020030
     213         -0.429402        1.000000        0.00112773        0.00000206        0.00005453        0.00009610
     214         -0.428960        1.000000        0.00003085        0.00000225        0.00005671        0.00000449
     215         -0.427470        1.000000        0.00182665        0.00001259        0.00010845        0.00017794
     216         -0.425749        1.000000        0.00094273        0.00001656        0.00000253        0.00006154
     217         -0.425687        1.000000        0.00060200        0.00000903        0.00000525        0.00001884
     218         -0.425489        1.000000        0.00125278        0.00004328        0.00000792        0.00002716
     219         -0.425151        1.000000        0.00006196        0.00000323        0.00000055        0.00000190
     220         -0.424805        1.000000        0.00004616        0.00000118        0.00000272        0.00000554
     221         -0.424746        1.000000        0.01222760        0.00001630        0.00052665        0.00000853
     222         -0.424128        1.000000        0.00005137        0.00000156        0.00002854        0.00002858
     223         -0.423373        1.000000        0.00058101        0.00000642        0.00001591        0.00003389
     224         -0.422999        1.000000        0.00576492        0.00002811        0.00001909        0.00038373
     225         -0.422340        1.000000        0.00017158        0.00000129        0.00001230        0.00000408
     226         -0.422076        1.000000        0.00075239        0.00000398        0.00000449        0.00010198
     227         -0.422010        1.000000        0.00090819        0.00000708        0.00005822        0.00006336
     228         -0.421744        1.000000        0.00007217        0.00000885        0.00000779        0.00001260
     229         -0.421359        1.000000        0.00120425        0.00005689        0.00002181        0.00000440
     230         -0.421028        1.000000        0.00017230        0.00000544        0.00006093        0.00000131
     231         -0.420893        1.000000        0.00043042        0.00000161        0.00000251        0.00003237
     232         -0.420674        1.000000        0.00141349        0.00000757        0.00001133        0.00003521
     233         -0.420559        1.000000        0.00107676        0.00000200        0.00000427        0.00005172
     234         -0.420485        1.000000        0.00032693        0.00000306        0.00000517        0.00000918
     235         -0.419925        1.000000        0.00004405        0.00000024        0.00001087        0.00001170
     236         -0.419644        1.000000        0.00127832        0.00000171        0.00001566        0.00005624
     237         -0.419238        1.000000        0.00067217        0.00002141        0.00000363        0.00002899
     238         -0.418736        1.000000        0.00096348        0.00003198        0.00000672        0.00003557
     239         -0.418013        1.000000        0.00065598        0.00000599        0.00000335        0.00005255
     240         -0.417471        1.000000        0.00249653        0.00002493        0.00002845        0.00000449
     241         -0.416909        1.000000        0.00010508        0.00000244        0.00000938        0.00000142
     242         -0.416747        1.000000        0.00056696        0.00000733        0.00001813        0.00001025
     243         -0.416342        1.000000        0.00036802        0.00000157        0.00004217        0.00000041
     244         -0.416219        1.000000        0.00419563        0.00000632        0.00009330        0.00000327
     245         -0.415944        1.000000        0.00044438        0.00000340        0.00000874        0.00000701
     246         -0.415575        1.000000        0.00441967        0.00001050        0.00014621        0.00002233
     247         -0.413727        1.000000        0.00089746        0.00000150        0.00000701        0.00006563
     248         -0.413577        1.000000        0.00012602        0.00002941        0.00001046        0.00004492
     249         -0.413383        1.000000        0.00058389        0.00000581        0.00001924        0.00001083
     250         -0.412975        1.000000        0.00102990        0.00000382        0.00003824        0.00000258
     251         -0.412631        1.000000        0.00132542        0.00000500        0.00000545        0.00000250
     252         -0.411706        1.000000        0.00242968        0.00000494        0.00001019        0.00001313
     253         -0.411677        1.000000        0.00170720        0.00000076        0.00001565        0.00000631
     254         -0.411224        1.000000        0.00547395        0.00003466        0.00000290        0.00033645
     255         -0.410796        1.000000        0.00047266        0.00000623        0.00000500        0.00000885
     256         -0.409686        1.000000        0.00737410        0.00001931        0.00008567        0.00000814
     257         -0.409330        1.000000        0.00185596        0.00000214        0.00000364        0.00002493
     258         -0.408826        1.000000        0.01190218        0.00003636        0.00018125        0.00004884
     259         -0.408644        1.000000        0.00007865        0.00000008        0.00000076        0.00000197