# Projected DOS for atomic kind O at iteration step i = 0, E(Fermi) =    -0.110416 a.u.
#     MO Eigenvalue [a.u.]      Occupation                 s                py                pz                px
       1         -0.913496        1.000000        0.71181343        0.02142810        0.00813483        0.00579399
       2         -0.907853        1.000000        0.70264622        0.00156558        0.01936439        0.02067851
       3         -0.905423        1.000000        0.70990067        0.00366029        0.02130357        0.01339897
       4         -0.905068        1.000000        0.71516250        0.01686744        0.01043653        0.00452329
       5         -0.900237        1.000000        0.70694699        0.00213405        0.03097611        0.00138638
       6         -0.895034        1.000000        0.70820527        0.02114639        0.00741579        0.00234307
       7         -0.894120        1.000000        0.70512622        0.00372779        0.00111450        0.03445927
       8         -0.892637        1.000000        0.70285988        0.02222604        0.01843258        0.00070427
       9         -0.888455        1.000000        0.70904813        0.02672293        0.00740385        0.00106865
      10         -0.888165        1.000000        0.71115592        0.00817001        0.01956304        0.00420902
      11         -0.887598        1.000000        0.70829311        0.02311415        0.01273453        0.00401061
      12         -0.886643        1.000000        0.70630806        0.00219670        0.01754001        0.01244048
      13         -0.883095        1.000000        0.70956851        0.03095708        0.00553095        0.00028557
      14         -0.882592        1.000000        0.70191827        0.00450343        0.01112678        0.01110086
      15         -0.875608        1.000000        0.00125459        0.00001536        0.00001553        0.00000607
      16         -0.874925        1.000000        0.00000063        0.00000001        0.00000001        0.00000000
      17         -0.874036        1.000000        0.70084309        0.02670350        0.00968441        0.00695755
      18         -0.873992        1.000000        0.71260566        0.01581435        0.00968109        0.00514298
      19         -0.873530        1.000000        0.69488972        0.00574703        0.01976336        0.00658493
      20         -0.871901        1.000000        0.70347068        0.00663292        0.00429971        0.00487341
      21         -0.871531        1.000000        0.70134903        0.04011519        0.00359132        0.00001117
      22         -0.870981        1.000000        0.70501521        0.00557611        0.00505163        0.00607011
      23         -0.870401        1.000000        0.71334858        0.00419887        0.01398121        0.01790579
      24         -0.870394        1.000000        0.71032681        0.02920770        0.00387324        0.00363685
      25         -0.868933        1.000000        0.54425953        0.00604363        0.01305782        0.00498525
      26         -0.868761        1.000000        0.70505855        0.01451207        0.02275025        0.00112965
      27         -0.868170        1.000000        0.18125602        0.00235999        0.00414094        0.00210736
      28         -0.866629        1.000000        0.68232839        0.00611668        0.00820302        0.00279244
      29         -0.865684        1.000000        0.71156378        0.00360440        0.01972387        0.00936465
      30         -0.865021        1.000000        0.70032014        0.01828654        0.02146994        0.00026628
      31         -0.863901        1.000000        0.70073043        0.00760052        0.00561512        0.00706272
      32         -0.863679        1.000000        0.00474615        0.00005420        0.00003672        0.00006761
      33         -0.861830        1.000000        0.69843449        0.00557121        0.00815117        0.00423525
      34         -0.861403        1.000000        0.70628887        0.00623375        0.01213500        0.00431556
      35         -0.860408        1.000000        0.72044869        0.01254082        0.00806928        0.00634193
      36         -0.860012        1.000000        0.71410347        0.00740153        0.00687135        0.01069431
      37         -0.859448        1.000000        0.70600415        0.01914657        0.01014189        0.00303658
      38         -0.857742        1.000000        0.71107154        0.00990954        0.00854529        0.00653759
      39         -0.856838        1.000000        0.70663696        0.01680626        0.00439968        0.01879735
      40         -0.855826        1.000000        0.71225472        0.00720943        0.01117354        0.00867570
      41         -0.855623        1.000000        0.71315151        0.01484839        0.00856200        0.00567471
      42         -0.855360        1.000000        0.72598100        0.01356513        0.01273331        0.00463458
      43         -0.855083        1.000000        0.70109191        0.00562478        0.00476603        0.00718770
      44         -0.854286        1.000000        0.71586779        0.00979947        0.01164529        0.00813317
      45         -0.854126        1.000000        0.71673583        0.01325347        0.00790620        0.00503154
      46         -0.851648        1.000000        0.70421329        0.01217592        0.00646090        0.00556109
      47         -0.851561        1.000000        0.71412210        0.00261100        0.01925770        0.00471115
      48         -0.851052        1.000000        0.72649339        0.00802469        0.00606862        0.01732760
      49         -0.850380        1.000000        0.70950083        0.00642529        0.00218620        0.00995236
      50         -0.850084        1.000000        0.71435974        0.00654515        0.00660689        0.01044398
      51         -0.847499        1.000000        0.72184414        0.01020766        0.01000853        0.00422556
      52         -0.847252        1.000000        0.68036993        0.01017613        0.00638866        0.00402167
      53         -0.846823        1.000000        0.72615115        0.00795895        0.01238478        0.00652230
      54         -0.845588        1.000000        0.70779840        0.00472787        0.00295741        0.00715889
      55         -0.845193        1.000000        0.71522704        0.00721179        0.00756778        0.00858176
      56         -0.844544        1.000000        0.72301765        0.00989560        0.00792979        0.00865322
      57         -0.844415        1.000000        0.71068907        0.00919220        0.00444711        0.01024182
      58         -0.842997        1.000000        0.71553444        0.00986849        0.00749447        0.00597313
      59         -0.842837        1.000000        0.72878923        0.00893863        0.01019973        0.00902858
      60         -0.842672        1.000000        0.71761884        0.00998823        0.00749316        0.00669278
      61         -0.841181        1.000000        0.73167580        0.01155238        0.00712184        0.00909446
      62         -0.840906        1.000000        0.70175436        0.00573576        0.00852961        0.00644106
      63         -0.840229        1.000000        0.72603410        0.00576444        0.01062263        0.00934542
      64         -0.840118        1.000000        0.73739780        0.01841135        0.00546847        0.00963433
      65         -0.839171        1.000000        0.70572985        0.00877517        0.00668085        0.00500440
      66         -0.838851        1.000000        0.70442898        0.01512975        0.01078222        0.01706723
      67         -0.838507        1.000000        0.71285776        0.00546419        0.01247855        0.00480952
      68         -0.837346        1.000000        0.73880462        0.01026488        0.00874618        0.00654092
      69         -0.835449        1.000000        0.72820616        0.00574922        0.00873947        0.00810587
      70         -0.834766        1.000000        0.71929882        0.00722035        0.00896748        0.00760394
      71         -0.834227        1.000000        0.70953145        0.01092439        0.00819180        0.00784706
      72         -0.833803        1.000000        0.70407530        0.00681768        0.01280140        0.00549274
      73         -0.832988        1.000000        0.74002438        0.00624023        0.01020031        0.01782316
      74         -0.832129        1.000000        0.71500349        0.00625699        0.00973609        0.02173130
      75         -0.831658        1.000000        0.73905988        0.01133593        0.01076106        0.00970934
      76         -0.830219        1.000000        0.72444738        0.00859375        0.00686652        0.01013131
      77         -0.828893        1.000000        0.59856279        0.00900188        0.00943293        0.00364280
      78         -0.827008        1.000000        0.59733146        0.00963071        0.00462920        0.00899935
      79         -0.826474        1.000000        0.72513230        0.00558707        0.00862974        0.01285301
      80         -0.826140        1.000000        0.67949729        0.00586356        0.00760583        0.01011140
      81         -0.825867        1.000000        0.73883391        0.00980586        0.01278341        0.00900972
      82         -0.825826        1.000000        0.69496366        0.02572860        0.01229176        0.01130245
      83         -0.824975        1.000000        0.71842077        0.01475641        0.02003306        0.00471169
      84         -0.823050        1.000000        0.72638628        0.01363507        0.00713288        0.00995939
      85         -0.822646        1.000000        0.69677127        0.01167772        0.00535263        0.00928828
      86         -0.822161        1.000000        0.72866536        0.01213136        0.00820380        0.00766461
      87         -0.820953        1.000000        0.75401661        0.00940281        0.00841192        0.01430980
      88         -0.820191        1.000000        0.41291657        0.00277319        0.01049289        0.00559267
      89         -0.818528        1.000000        0.74746552        0.00610045        0.01276884        0.01309038
      90         -0.818490        1.000000        0.70064362        0.02109075        0.00617283        0.02019561
      91         -0.818045        1.000000        0.75760930        0.01097375        0.00957810        0.01491049
      92         -0.816121        1.000000        0.67172506        0.01374641        0.00504433        0.01001043
      93         -0.815830        1.000000        0.75051153        0.01269321        0.00797995        0.01335268
      94         -0.814646        1.000000        0.75382254        0.01371240        0.00662296        0.01338310
      95         -0.814483        1.000000        0.67741161        0.01063789        0.00925977        0.01216403
      96         -0.814352        1.000000        0.74076409        0.01328995        0.00990574        0.01250505
      97         -0.814060        1.000000        0.66312690        0.01713824        0.00651909        0.01185484
      98         -0.813315        1.000000        0.67406385        0.01457398        0.00693409        0.00990197
      99         -0.812875        1.000000        0.70933798        0.01797540        0.00657828        0.00856100
     100         -0.812250        1.000000        0.74088874        0.01371859        0.01347159        0.00680137
     101         -0.810024        1.000000        0.73206924        0.00996722        0.01430386        0.00825880
     102         -0.805573        1.000000        0.68697142        0.00701487        0.01215409        0.01325064
     103         -0.805292        1.000000        0.64092311        0.01078478        0.01665753        0.00324592
     104         -0.805225        1.000000        0.76466100        0.01180940        0.00998003        0.01379179
     105         -0.804152        1.000000        0.66204646        0.01023769        0.01404446        0.00509454
     106         -0.804001        1.000000        0.75784789        0.01342979        0.00910755        0.01034304
     107         -0.801953        1.000000        0.65735994        0.00886727        0.01015364        0.01154570
     108         -0.801951        1.000000        0.69203715        0.03524247        0.00804510        0.00671908
     109         -0.797995        1.000000        0.39924855        0.00485239        0.00729761        0.00775589
     110         -0.797542        1.000000        0.77925439        0.00754021        0.01131843        0.01785363
     111         -0.797454        1.000000        0.70294825        0.02530365        0.01115381        0.01128158
     112         -0.793686        1.000000        0.73233637        0.01915815        0.02637024        0.00197995
     113         -0.793325        1.000000        0.77566871        0.00774294        0.01658184        0.00948047
     114         -0.792839        1.000000        0.71043803        0.01270774        0.01112187        0.01008102
     115         -0.792300        1.000000        0.71684871        0.03909954        0.00594072        0.00289219
     116         -0.792128        1.000000        0.76933288        0.01577354        0.01168264        0.00767865
     117         -0.791217        1.000000        0.77746304        0.00863706        0.01619878        0.00690056
     118         -0.790948        1.000000        0.77685219        0.01075995        0.01348316        0.01242772
     119         -0.786133        1.000000        0.71115849        0.00410484        0.03491362        0.00931397
     120         -0.780412        1.000000        0.78781442        0.01788155        0.00758519        0.00841292
     121         -0.769396        1.000000        0.80888563        0.00807035        0.00197179        0.02244988
     122         -0.765263        1.000000        0.78631584        0.00882116        0.00348371        0.02846320
     123         -0.757220        1.000000        0.82715149        0.00661137        0.01133889        0.00264052
     124         -0.716407        1.000000        0.87145306        0.00893970        0.01561480        0.00171320
     125         -0.622125        1.000000        0.00005634        0.00001975        0.00007276        0.00005970
     126         -0.617622        1.000000        0.00002059        0.00009302        0.00000704        0.00007088
     127         -0.617289        1.000000        0.00037184        0.00012664        0.00014529        0.00044473
     128         -0.616205        1.000000        0.00000876        0.00000316        0.00000351        0.00001056
     129         -0.584755        1.000000        0.00068795        0.00207205        0.00198746        0.00023701
     130         -0.583506        1.000000        0.00056515        0.00036495        0.00045094        0.00095531
     131         -0.575260        1.000000        0.00075732        0.00107040        0.00072659        0.00053140
     132         -0.559155        1.000000        0.01333694        0.00247055        0.00915170        0.03536774
     133         -0.558148        1.000000        0.04769356        0.00675559        0.00355796        0.03208418
     134         -0.551610        1.000000        0.01339663        0.00886184        0.02228951        0.00317268
     135         -0.536056        1.000000        0.00073913        0.00045344        0.00158326        0.00117943
     136         -0.534725        1.000000        0.00173626        0.00067531        0.00421063        0.00178043
     137         -0.529716        1.000000        0.00126601        0.00030000        0.00317665        0.00069353
     138         -0.526273        1.000000        0.00035396        0.00104829        0.00106364        0.00138932
     139         -0.525800        1.000000        0.00075447        0.00190445        0.00163073        0.00172404
     140         -0.524414        1.000000        0.00124300        0.00161115        0.00240389        0.00163822
     141         -0.522750        1.000000        0.00074313        0.00160288        0.00139591        0.00502472
     142         -0.520662        1.000000        0.00095282        0.00195262        0.00144337        0.00436676
     143         -0.519315        1.000000        0.00092507        0.00190455        0.00201339        0.00475094
     144         -0.519086        1.000000        0.00096589        0.00213663        0.00177302        0.00580153
     145         -0.518365        1.000000        0.00092455        0.00162760        0.00255223        0.00566516
     146         -0.517899        1.000000        0.00148548        0.00319140        0.00210373        0.00887178
     147         -0.517729        1.000000        0.00118306        0.00193484        0.00173047        0.01191269
     148         -0.516884        1.000000        0.00073838        0.00306103        0.00219276        0.00417035
     149         -0.515901        1.000000        0.00057905        0.00160298        0.00133414        0.00302490
     150         -0.514574        1.000000        0.00109057        0.00895307        0.00508528        0.00735479
     151         -0.514062        1.000000        0.00067287        0.00151482        0.00158990        0.00247710
     152         -0.512702        1.000000        0.00048220        0.00159567        0.00094037        0.00429861
     153         -0.511512        1.000000        0.00143992        0.00562737        0.00428836        0.00861910
     154         -0.508757        1.000000        0.00103031        0.00301190        0.00176562        0.00445801
     155         -0.507727        1.000000        0.00205127        0.00763890        0.00277407        0.01623939
     156         -0.507161        1.000000        0.00172912        0.00656625        0.00236514        0.01319285
     157         -0.505814        1.000000        0.00154244        0.02428202        0.00734847        0.02610750
     158         -0.504112        1.000000        0.00075367        0.00175748        0.00223830        0.00576928
     159         -0.503855        1.000000        0.00086495        0.00194674        0.00205310        0.00531334
     160         -0.503394        1.000000        0.00087432        0.00259903        0.00141890        0.00209232
     161         -0.501694        1.000000        0.00044518        0.00229786        0.00139658        0.00226841
     162         -0.499003        1.000000        0.00113758        0.00164050        0.00125979        0.00326909
     163         -0.498244        1.000000        0.00025763        0.00064250        0.00075252        0.00107575
     164         -0.497022        1.000000        0.00136429        0.00237092        0.00279077        0.00374947
     165         -0.496098        1.000000        0.00017373        0.00072192        0.00113495        0.00295686
     166         -0.495604        1.000000        0.00089600        0.00236019        0.00183216        0.00235336
     167         -0.495101        1.000000        0.00039915        0.00304873        0.00205511        0.00321567
     168         -0.493210        1.000000        0.00009933        0.00029766        0.00039753        0.00055933
     169         -0.492680        1.000000        0.00200463        0.00308063        0.00180665        0.00462158
     170         -0.491147        1.000000        0.00003853        0.00026522        0.00022127        0.00052441
     171         -0.487650        1.000000        0.00022126        0.00740495        0.00355220        0.00460913
     172         -0.485806        1.000000        0.00009637        0.00051520        0.00098165        0.00203290
     173         -0.481492        1.000000        0.00021565        0.00644901        0.00404597        0.00133240
     174         -0.481054        1.000000        0.00010180        0.00024521        0.00037285        0.00025996
     175         -0.477652        1.000000        0.00007368        0.00028641        0.00026307        0.00067132
     176         -0.473200        1.000000        0.00182684        0.06987448        0.01044972        0.51704857
     177         -0.467152        1.000000        0.00074406        0.23201092        0.17201556        0.20074766
     178         -0.463718        1.000000        0.00194781        0.37154414        0.01725296        0.23637114
     179         -0.463005        1.000000        0.00332301        0.31526022        0.07452742        0.24481678
     180         -0.459206        1.000000        0.00187924        0.48022633        0.02284343        0.10196599
     181         -0.457178        1.000000        0.00191268        0.11404754        0.08379364        0.28759673
     182         -0.455756        1.000000        0.00084032        0.08813147        0.07409962        0.10821138
     183         -0.455208        1.000000        0.00111577        0.31983692        0.19953226        0.04095930
     184         -0.454588        1.000000        0.00023671        0.02674372        0.01883909        0.00548223
     185         -0.453938        1.000000        0.00273897        0.08376139        0.20281964        0.33787178
     186         -0.453391        1.000000        0.00157311        0.02662394        0.17033051        0.42465188
     187         -0.449521        1.000000        0.00192727        0.11826692        0.24823619        0.27916663
     188         -0.448629        1.000000        0.00178541        0.34837963        0.04193402        0.24717927
     189         -0.447978        1.000000        0.00006177        0.01456389        0.00242585        0.62347384
     190         -0.447118        1.000000        0.00090873        0.14453003        0.24369136        0.25388651
     191         -0.445553        1.000000        0.00015512        0.00392503        0.00247706        0.00754573
     192         -0.445088        1.000000        0.00147904        0.18661614        0.33587744        0.12043892
     193         -0.444305        1.000000        0.00091168        0.04762640        0.12800628        0.46048978
     194         -0.443597        1.000000        0.00092044        0.29995847        0.28234703        0.03937258
     195         -0.442642        1.000000        0.00103455        0.30260181        0.15313822        0.18456885
     196         -0.442061        1.000000        0.00168374        0.13753566        0.14755365        0.09255986
     197         -0.441329        1.000000        0.00006775        0.06232199        0.05682633        0.06456339
     198         -0.441151        1.000000        0.00217696        0.26773349        0.14993603        0.07624052
     199         -0.439664        1.000000        0.00279227        0.22806881        0.15908390        0.24945800
     200         -0.437050        1.000000        0.00241959        0.23393539        0.15613357        0.25003609
     201         -0.436756        1.000000        0.00289218        0.11308943        0.12828110        0.39585168
     202         -0.436288        1.000000        0.00029146        0.24904063        0.02392098        0.34881582
     203         -0.435394        1.000000        0.00235368        0.27092526        0.19089268        0.18605636
     204         -0.434698        1.000000        0.00256399        0.15307415        0.16325965        0.24584250
     205         -0.434611        1.000000        0.00224690        0.31195293        0.21530816        0.12151886
     206         -0.433995        1.000000        0.00128220        0.07810190        0.06842723        0.46565286
     207         -0.433757        1.000000        0.00100441        0.23755361        0.25043160        0.15753101
     208         -0.433227        1.000000        0.00044546        0.41371206        0.03516825        0.19243352
     209         -0.432153        1.000000        0.00153031        0.12134635        0.27265140        0.24350134
     210         -0.431495        1.000000        0.00017534        0.03625555        0.31531017        0.27964786
     211         -0.431366        1.000000        0.00169161        0.12203974        0.26532347        0.19886474
     212         -0.429670        1.000000        0.00173034        0.25095006        0.26891461        0.12036042
     213         -0.429402        1.000000        0.00046625        0.02634313        0.02788893        0.19274222
     214         -0.428960        1.000000        0.00207437        0.18291224        0.34952183        0.10874032
     215         -0.427470        1.000000        0.00385274        0.27788222        0.24475809        0.12335275
     216         -0.425749        1.000000        0.00257925        0.41205355        0.14974665        0.08612285
     217         -0.425687        1.000000        0.00198407        0.42590965        0.13705748        0.08704729
     218         -0.425489        1.000000        0.00263015        0.40028371        0.15242681        0.09049505
     219         -0.425151        1.000000        0.00118658        0.42138509        0.07426344        0.16397196
     220         -0.424805        1.000000        0.00120991        0.27078108        0.13458575        0.24786570
     221         -0.424746        1.000000        0.00013219        0.08219608        0.07578496        0.45602810
     222         -0.424128        1.000000        0.00199522        0.23223070        0.17902809        0.24383515
     223         -0.423373        1.000000        0.00207056        0.28133988        0.22242061        0.14740380
     224         -0.422999        1.000000        0.00291375        0.25917877        0.17058164        0.20759222
     225         -0.422340        1.000000        0.00152058        0.31136057        0.28068923        0.04472678
     226         -0.422076        1.000000        0.00440150        0.17576908        0.25754431        0.21467034
     227         -0.422010        1.000000        0.00371880        0.29364506        0.13913884        0.20949343
     228         -0.421744        1.000000        0.00301512        0.09777349        0.20153970        0.34847547
     229         -0.421359        1.000000        0.00151252        0.53644111        0.04702517        0.06185910
     230         -0.421028        1.000000        0.00315773        0.19136518        0.25424692        0.20060313
     231         -0.420893        1.000000        0.00149776        0.16730701        0.28740651        0.17307403
     232         -0.420674        1.000000        0.00186346        0.17535444        0.28803886        0.17654818
     233         -0.420559        1.000000        0.00242605        0.23778324        0.18285004        0.22169052
     234         -0.420485        1.000000        0.00136885        0.26972017        0.20510010        0.17957478
     235         -0.419925        1.000000        0.00186100        0.22128772        0.16886195        0.25664863
     236         -0.419644        1.000000        0.00207252        0.15339802        0.35247718        0.15148841
     237         -0.419238        1.000000        0.00153346        0.08932355        0.32531348        0.22957065
     238         -0.418736        1.000000        0.00209865        0.14137709        0.32584489        0.18101611
     239         -0.418013        1.000000        0.00361900        0.14208587        0.34908339        0.15517161
     240         -0.417471        1.000000        0.00279898        0.37913231        0.06408133        0.19955134
     241         -0.416909        1.000000        0.00250136        0.23251780        0.09206617        0.32710044
     242         -0.416747        1.000000        0.00233371        0.17575628        0.26603221        0.19864191
     243         -0.416342        1.000000        0.00120500        0.33678900        0.16412616        0.14037963
     244         -0.416219        1.000000        0.00022110        0.19241432        0.39186871        0.05006798
     245         -0.415944        1.000000        0.00222596        0.21226155        0.21479381        0.21963907
     246         -0.415575        1.000000        0.00033377        0.17119705        0.39553298        0.06621602
     247         -0.413727        1.000000        0.00166572        0.37001712        0.14809375        0.12572584
     248         -0.413577        1.000000        0.00212336        0.14172848        0.26464380        0.20306834
     249         -0.413383        1.000000        0.00268857        0.12899886        0.21701593        0.30719701
     250         -0.412975        1.000000        0.00186519        0.10382269        0.28540481        0.25920665
     251         -0.412631        1.000000        0.00416063        0.11385534        0.25448405        0.27871965
     252         -0.411706        1.000000        0.00327089        0.24075189        0.16286834        0.21900366
     253         -0.411677        1.000000        0.00164226        0.38930699        0.21655001        0.04298658
     254         -0.411224        1.000000        0.00491295        0.40709097        0.10852885        0.11925931
     255         -0.410796        1.000000        0.00277597        0.07277280        0.47203709        0.10159644
     256         -0.409686        1.000000        0.00243890        0.20061443        0.05332651        0.38474565
     257         -0.409330        1.000000        0.00241615        0.23492784        0.11569005        0.27255410
     258         -0.408826        1.000000        0.00310990        0.30550445        0.17376981        0.15720371
     259         -0.408644        1.000000        0.00203293        0.00962415        0.48779653        0.14437906