# Projected DOS for atomic kind I at iteration step i = 0, E(Fermi) =    -0.110416 a.u.
#     MO Eigenvalue [a.u.]      Occupation                 s                py                pz                px
       1         -0.913496        1.000000        0.00008692        0.00015531        0.00003012        0.00023189
       2         -0.907853        1.000000        0.00005601        0.00010874        0.00002090        0.00015777
       3         -0.905423        1.000000        0.00003657        0.00006074        0.00006770        0.00007538
       4         -0.905068        1.000000        0.00009395        0.00001355        0.00010679        0.00031653
       5         -0.900237        1.000000        0.00001558        0.00004520        0.00006943        0.00001937
       6         -0.895034        1.000000        0.00007069        0.00007030        0.00005702        0.00024089
       7         -0.894120        1.000000        0.00005932        0.00012461        0.00006487        0.00010549
       8         -0.892637        1.000000        0.00002755        0.00000932        0.00019552        0.00000645
       9         -0.888455        1.000000        0.00005477        0.00002283        0.00004801        0.00022013
      10         -0.888165        1.000000        0.00010378        0.00001111        0.00000317        0.00044077
      11         -0.887598        1.000000        0.00004243        0.00000274        0.00018683        0.00003191
      12         -0.886643        1.000000        0.00002256        0.00003575        0.00003330        0.00005501
      13         -0.883095        1.000000        0.00001609        0.00002438        0.00006927        0.00005275
      14         -0.882592        1.000000        0.00004158        0.00009561        0.00003925        0.00016636
      15         -0.875608        1.000000        0.00013635        0.00022520        0.00025948        0.00017725
      16         -0.874925        1.000000        0.00013626        0.00026251        0.00042719        0.00015110
      17         -0.874036        1.000000        0.00006831        0.00004628        0.00000259        0.00025839
      18         -0.873992        1.000000        0.00004554        0.00000977        0.00012327        0.00011673
      19         -0.873530        1.000000        0.00012121        0.00025280        0.00007241        0.00022801
      20         -0.871901        1.000000        0.00002193        0.00006182        0.00005520        0.00002256
      21         -0.871531        1.000000        0.00000182        0.00000352        0.00001396        0.00000416
      22         -0.870981        1.000000        0.00007899        0.00007239        0.00007017        0.00020142
      23         -0.870401        1.000000        0.00001204        0.00008196        0.00000995        0.00003054
      24         -0.870394        1.000000        0.00017848        0.00003155        0.00000688        0.00057391
      25         -0.868933        1.000000        0.00011994        0.00013545        0.00007541        0.00006193
      26         -0.868761        1.000000        0.00013629        0.00000169        0.00019937        0.00029772
      27         -0.868170        1.000000        0.00015687        0.00026241        0.00048102        0.00016039
      28         -0.866629        1.000000        0.00002863        0.00004167        0.00007100        0.00007951
      29         -0.865684        1.000000        0.00003472        0.00020020        0.00001407        0.00001365
      30         -0.865021        1.000000        0.00006637        0.00000131        0.00014963        0.00013477
      31         -0.863901        1.000000        0.00017819        0.00013774        0.00019777        0.00022618
      32         -0.863679        1.000000        0.00038302        0.00074701        0.00041731        0.00027420
      33         -0.861830        1.000000        0.00009617        0.00003781        0.00010332        0.00015626
      34         -0.861403        1.000000        0.00003219        0.00004491        0.00005094        0.00007824
      35         -0.860408        1.000000        0.00005973        0.00002367        0.00015331        0.00007518
      36         -0.860012        1.000000        0.00013337        0.00012714        0.00008174        0.00026640
      37         -0.859448        1.000000        0.00012778        0.00017512        0.00003065        0.00009524
      38         -0.857742        1.000000        0.00007936        0.00006979        0.00004437        0.00014983
      39         -0.856838        1.000000        0.00002874        0.00011211        0.00000647        0.00001776
      40         -0.855826        1.000000        0.00019433        0.00013027        0.00025053        0.00014172
      41         -0.855623        1.000000        0.00001295        0.00002054        0.00005889        0.00001983
      42         -0.855360        1.000000        0.00001357        0.00000945        0.00001289        0.00003193
      43         -0.855083        1.000000        0.00009019        0.00008529        0.00015299        0.00007778
      44         -0.854286        1.000000        0.00001477        0.00001143        0.00001477        0.00001970
      45         -0.854126        1.000000        0.00002663        0.00007702        0.00001870        0.00003564
      46         -0.851648        1.000000        0.00092549        0.00019697        0.00036098        0.00090283
      47         -0.851561        1.000000        0.00003574        0.00013219        0.00005525        0.00000929
      48         -0.851052        1.000000        0.00016558        0.00002679        0.00037649        0.00007475
      49         -0.850380        1.000000        0.00016794        0.00005829        0.00004877        0.00006839
      50         -0.850084        1.000000        0.00006251        0.00005644        0.00008672        0.00011247
      51         -0.847499        1.000000        0.00008940        0.00004487        0.00007015        0.00014161
      52         -0.847252        1.000000        0.00002832        0.00002310        0.00015207        0.00000521
      53         -0.846823        1.000000        0.00028289        0.00010583        0.00038904        0.00015043
      54         -0.845588        1.000000        0.00008306        0.00010032        0.00009650        0.00016562
      55         -0.845193        1.000000        0.00007977        0.00005283        0.00016107        0.00005372
      56         -0.844544        1.000000        0.00002700        0.00001879        0.00006010        0.00007112
      57         -0.844415        1.000000        0.00003918        0.00000954        0.00006078        0.00010179
      58         -0.842997        1.000000        0.00008790        0.00005761        0.00010196        0.00013666
      59         -0.842837        1.000000        0.00010542        0.00008145        0.00009658        0.00011158
      60         -0.842672        1.000000        0.00004831        0.00005703        0.00008455        0.00010182
      61         -0.841181        1.000000        0.00023155        0.00010362        0.00003205        0.00024280
      62         -0.840906        1.000000        0.00008974        0.00004586        0.00024417        0.00013449
      63         -0.840229        1.000000        0.00004214        0.00008702        0.00007458        0.00009308
      64         -0.840118        1.000000        0.00033867        0.00023041        0.00039551        0.00040990
      65         -0.839171        1.000000        0.00011772        0.00002334        0.00022674        0.00037119
      66         -0.838851        1.000000        0.00003160        0.00001372        0.00011093        0.00002060
      67         -0.838507        1.000000        0.00040682        0.00003104        0.00020499        0.00037267
      68         -0.837346        1.000000        0.00031875        0.00015411        0.00004009        0.00030145
      69         -0.835449        1.000000        0.00007305        0.00002465        0.00020385        0.00003219
      70         -0.834766        1.000000        0.00004722        0.00008158        0.00011839        0.00023621
      71         -0.834227        1.000000        0.00027749        0.00005410        0.00014982        0.00006639
      72         -0.833803        1.000000        0.00013781        0.00003422        0.00022624        0.00024439
      73         -0.832988        1.000000        0.00068112        0.00028303        0.00065373        0.00024173
      74         -0.832129        1.000000        0.00000199        0.00000662        0.00000528        0.00000340
      75         -0.831658        1.000000        0.00015865        0.00007065        0.00001939        0.00018022
      76         -0.830219        1.000000        0.00009673        0.00003945        0.00007248        0.00008504
      77         -0.828893        1.000000        0.00016303        0.00006727        0.00007167        0.00022589
      78         -0.827008        1.000000        0.00004551        0.00002548        0.00003876        0.00006374
      79         -0.826474        1.000000        0.00014237        0.00011239        0.00011170        0.00015651
      80         -0.826140        1.000000        0.00015432        0.00008445        0.00009838        0.00019247
      81         -0.825867        1.000000        0.00006472        0.00002878        0.00014926        0.00004964
      82         -0.825826        1.000000        0.00000105        0.00000151        0.00000372        0.00000076
      83         -0.824975        1.000000        0.00003103        0.00000524        0.00006986        0.00009758
      84         -0.823050        1.000000        0.00010330        0.00003787        0.00004114        0.00011509
      85         -0.822646        1.000000        0.00010155        0.00004037        0.00011584        0.00019514
      86         -0.822161        1.000000        0.00086171        0.00003231        0.00023891        0.00064378
      87         -0.820953        1.000000        0.00007674        0.00005752        0.00006394        0.00010998
      88         -0.820191        1.000000        0.00004919        0.00010178        0.00003049        0.00005615
      89         -0.818528        1.000000        0.00028041        0.00007091        0.00010121        0.00012357
      90         -0.818490        1.000000        0.00002138        0.00002270        0.00000216        0.00006305
      91         -0.818045        1.000000        0.00055684        0.00011761        0.00001007        0.00052070
      92         -0.816121        1.000000        0.00011665        0.00006769        0.00007214        0.00012906
      93         -0.815830        1.000000        0.00010374        0.00004268        0.00022766        0.00002885
      94         -0.814646        1.000000        0.00181290        0.00035241        0.00101673        0.00068306
      95         -0.814483        1.000000        0.00009634        0.00008071        0.00006370        0.00011420
      96         -0.814352        1.000000        0.00136252        0.00019993        0.00058328        0.00063311
      97         -0.814060        1.000000        0.00038697        0.00039185        0.00017829        0.00041970
      98         -0.813315        1.000000        0.00027243        0.00018628        0.00013001        0.00029349
      99         -0.812875        1.000000        0.00049556        0.00007645        0.00017602        0.00017928
     100         -0.812250        1.000000        0.00115348        0.00003618        0.00017229        0.00061093
     101         -0.810024        1.000000        0.00778983        0.00003408        0.00458800        0.00682776
     102         -0.805573        1.000000        0.00009265        0.00002258        0.00002536        0.00008170
     103         -0.805292        1.000000        0.00001803        0.00002608        0.00000643        0.00001916
     104         -0.805225        1.000000        0.00017980        0.00006383        0.00031181        0.00009645
     105         -0.804152        1.000000        0.00238773        0.00004836        0.00104015        0.00151607
     106         -0.804001        1.000000        0.00005825        0.00005710        0.00013049        0.00012023
     107         -0.801953        1.000000        0.00002929        0.00002915        0.00004410        0.00002197
     108         -0.801951        1.000000        0.00002247        0.00002253        0.00006223        0.00003222
     109         -0.797995        1.000000        0.00324815        0.00017968        0.00129357        0.00203432
     110         -0.797542        1.000000        0.00015245        0.00003339        0.00026881        0.00006152
     111         -0.797454        1.000000        0.00001640        0.00000476        0.00008617        0.00002902
     112         -0.793686        1.000000        0.00005128        0.00000525        0.00016929        0.00005511
     113         -0.793325        1.000000        0.00029104        0.00003792        0.00005841        0.00018493
     114         -0.792839        1.000000        0.00002039        0.00002065        0.00002045        0.00001428
     115         -0.792300        1.000000        0.00006192        0.00006546        0.00013370        0.00000965
     116         -0.792128        1.000000        0.00267144        0.00002893        0.00098898        0.00164418
     117         -0.791217        1.000000        0.00004498        0.00000339        0.00001585        0.00005978
     118         -0.790948        1.000000        0.00002530        0.00003463        0.00002850        0.00005940
     119         -0.786133        1.000000        0.00006522        0.00011465        0.00010101        0.00003263
     120         -0.780412        1.000000        0.00061266        0.00002141        0.00019226        0.00035436
     121         -0.769396        1.000000        0.02194144        0.00280626        0.01125892        0.00497369
     122         -0.765263        1.000000        0.00451833        0.00001061        0.00672518        0.00000243
     123         -0.757220        1.000000        0.05360568        0.00675683        0.00158396        0.02543310
     124         -0.716407        1.000000        0.00043643        0.00002471        0.00049583        0.00087353
     125         -0.622125        1.000000        0.00153830        0.00026905        0.00030851        0.00018796
     126         -0.617622        1.000000        0.00266736        0.00037937        0.00060137        0.00038018
     127         -0.617289        1.000000        0.00274091        0.00041006        0.00041166        0.00017780
     128         -0.616205        1.000000        0.00157767        0.00037212        0.00034371        0.00034791
     129         -0.584755        1.000000        0.00167372        0.00026502        0.00023918        0.00022107
     130         -0.583506        1.000000        0.00346606        0.00045439        0.00015767        0.00044299
     131         -0.575260        1.000000        0.00763857        0.00039891        0.00025552        0.00022596
     132         -0.559155        1.000000        0.93089737        0.00001261        0.00000368        0.00001580
     133         -0.558148        1.000000        0.88730963        0.00131334        0.00011574        0.00082947
     134         -0.551610        1.000000        0.91981461        0.00231436        0.00465218        0.00228944
     135         -0.536056        1.000000        0.83454236        0.00500915        0.00420354        0.00265129
     136         -0.534725        1.000000        0.83893792        0.00490108        0.00508959        0.00282247
     137         -0.529716        1.000000        0.86874206        0.00156276        0.00117863        0.00190955
     138         -0.526273        1.000000        0.79214885        0.00269826        0.00350415        0.00353806
     139         -0.525800        1.000000        0.79868666        0.00234822        0.00310289        0.00202139
     140         -0.524414        1.000000        0.79871632        0.00359176        0.00255449        0.00422331
     141         -0.522750        1.000000        0.86262392        0.00224229        0.00197135        0.00172465
     142         -0.520662        1.000000        0.86648709        0.00147625        0.00179489        0.00259584
     143         -0.519315        1.000000        0.89501276        0.00143553        0.00254172        0.00317727
     144         -0.519086        1.000000        0.85304684        0.00171592        0.00187676        0.00204811
     145         -0.518365        1.000000        0.88186329        0.00108713        0.00159537        0.00251468
     146         -0.517899        1.000000        0.90175466        0.00144381        0.00164061        0.00155323
     147         -0.517729        1.000000        0.91079044        0.00149529        0.00082904        0.00090914
     148         -0.516884        1.000000        0.84351661        0.00095502        0.00194263        0.00147359
     149         -0.515901        1.000000        0.92736681        0.00070930        0.00162957        0.00101314
     150         -0.514574        1.000000        0.88452460        0.00031051        0.00055397        0.00079372
     151         -0.514062        1.000000        0.85096307        0.00225266        0.00283005        0.00209572
     152         -0.512702        1.000000        0.80451180        0.00223134        0.00233338        0.00223798
     153         -0.511512        1.000000        0.87134985        0.00268068        0.00333696        0.00151097
     154         -0.508757        1.000000        0.87477245        0.00170762        0.00279833        0.00186453
     155         -0.507727        1.000000        0.88618074        0.00254575        0.00134627        0.00113402
     156         -0.507161        1.000000        0.86884903        0.00236848        0.00155395        0.00157388
     157         -0.505814        1.000000        0.87117213        0.00021759        0.00041881        0.00113163
     158         -0.504112        1.000000        0.89245287        0.00126634        0.00220569        0.00180140
     159         -0.503855        1.000000        0.90215135        0.00131352        0.00185517        0.00211511
     160         -0.503394        1.000000        0.94340683        0.00046247        0.00125890        0.00060680
     161         -0.501694        1.000000        0.92185992        0.00101702        0.00065542        0.00198361
     162         -0.499003        1.000000        0.93255883        0.00054843        0.00067464        0.00028157
     163         -0.498244        1.000000        0.89485345        0.00046126        0.00041115        0.00222463
     164         -0.497022        1.000000        0.92565789        0.00083622        0.00061016        0.00038621
     165         -0.496098        1.000000        0.18418869        0.00121164        0.00179744        0.00137405
     166         -0.495604        1.000000        0.95861245        0.00049349        0.00063289        0.00045891
     167         -0.495101        1.000000        0.90831360        0.00078461        0.00201121        0.00164480
     168         -0.493210        1.000000        0.14822705        0.00233204        0.00167465        0.00066293
     169         -0.492680        1.000000        0.92831312        0.00081226        0.00019339        0.00048141
     170         -0.491147        1.000000        0.14956534        0.00288059        0.00221515        0.00087783
     171         -0.487650        1.000000        0.15027506        0.00080771        0.00365128        0.00163853
     172         -0.485806        1.000000        0.21729845        0.00189368        0.00093128        0.00163394
     173         -0.481492        1.000000        0.16363839        0.00148525        0.00535665        0.00131829
     174         -0.481054        1.000000        0.22073985        0.00493281        0.00321834        0.00172457
     175         -0.477652        1.000000        0.12409021        0.00240869        0.00279751        0.00272083
     176         -0.473200        1.000000        0.05828622        0.00099964        0.00033188        0.00558423
     177         -0.467152        1.000000        0.03842730        0.00218340        0.00060724        0.00158723
     178         -0.463718        1.000000        0.02097344        0.00016141        0.00036640        0.00518928
     179         -0.463005        1.000000        0.01198926        0.00090769        0.00085561        0.00057003
     180         -0.459206        1.000000        0.05892747        0.00067177        0.00330544        0.00020726
     181         -0.457178        1.000000        0.02742134        0.00027141        0.00034932        0.00489650
     182         -0.455756        1.000000        0.01117466        0.00071046        0.00032939        0.00211266
     183         -0.455208        1.000000        0.02599266        0.00291817        0.00052493        0.00218664
     184         -0.454588        1.000000        0.01665277        0.00209371        0.00015431        0.00127405
     185         -0.453938        1.000000        0.02789011        0.00085816        0.00017225        0.00328594
     186         -0.453391        1.000000        0.01829775        0.00055577        0.00140599        0.00393903
     187         -0.449521        1.000000        0.00217369        0.00044362        0.00028076        0.00012634
     188         -0.448629        1.000000        0.01624457        0.00052295        0.00133573        0.00206920
     189         -0.447978        1.000000        0.00074937        0.00000364        0.00028991        0.00011706
     190         -0.447118        1.000000        0.00128385        0.00046214        0.00020213        0.00014518
     191         -0.445553        1.000000        0.00851459        0.00277537        0.00041603        0.00171525
     192         -0.445088        1.000000        0.00419060        0.00054066        0.00032505        0.00020934
     193         -0.444305        1.000000        0.00293476        0.00086907        0.00098849        0.00066345
     194         -0.443597        1.000000        0.03195475        0.00002675        0.00214687        0.00074919
     195         -0.442642        1.000000        0.01105043        0.00030340        0.00051104        0.00226754
     196         -0.442061        1.000000        0.00586560        0.00048122        0.00034952        0.00052136
     197         -0.441329        1.000000        0.00197732        0.00089042        0.00027551        0.00021133
     198         -0.441151        1.000000        0.00153565        0.00056181        0.00028866        0.00010132
     199         -0.439664        1.000000        0.00074279        0.00020930        0.00014228        0.00033231
     200         -0.437050        1.000000        0.00218688        0.00008383        0.00007435        0.00103351
     201         -0.436756        1.000000        0.00714116        0.00025065        0.00021146        0.00359565
     202         -0.436288        1.000000        0.01560641        0.00225575        0.00018088        0.00315158
     203         -0.435394        1.000000        0.00432323        0.00028143        0.00035534        0.00115456
     204         -0.434698        1.000000        0.00014235        0.00007934        0.00008081        0.00008590
     205         -0.434611        1.000000        0.00242953        0.00091517        0.00028474        0.00045463
     206         -0.433995        1.000000        0.01406810        0.00026413        0.00313559        0.00910779
     207         -0.433757        1.000000        0.00372096        0.00048159        0.00010368        0.00036715
     208         -0.433227        1.000000        0.00085491        0.00029546        0.00005143        0.00138211
     209         -0.432153        1.000000        0.00595075        0.00109524        0.00052447        0.00052836
     210         -0.431495        1.000000        0.00005490        0.00001411        0.00003228        0.00003984
     211         -0.431366        1.000000        0.00044222        0.00007757        0.00030922        0.00037132
     212         -0.429670        1.000000        0.00683407        0.00205119        0.00027237        0.00057528
     213         -0.429402        1.000000        0.00198041        0.00123508        0.00083845        0.00047617
     214         -0.428960        1.000000        0.00165113        0.00007586        0.00098413        0.00017001
     215         -0.427470        1.000000        0.00587678        0.00057731        0.00076249        0.00156533
     216         -0.425749        1.000000        0.00162742        0.00039087        0.00015012        0.00063029
     217         -0.425687        1.000000        0.00066471        0.00030259        0.00030467        0.00037360
     218         -0.425489        1.000000        0.00164231        0.00115620        0.00030263        0.00041031
     219         -0.425151        1.000000        0.00010646        0.00008839        0.00060107        0.00003669
     220         -0.424805        1.000000        0.00045898        0.00017676        0.00023852        0.00019927
     221         -0.424746        1.000000        0.00564606        0.00046699        0.00712052        0.00270900
     222         -0.424128        1.000000        0.00151826        0.00011485        0.00019564        0.00026528
     223         -0.423373        1.000000        0.00167258        0.00028351        0.00029483        0.00035729
     224         -0.422999        1.000000        0.01004421        0.00248299        0.00137712        0.00241741
     225         -0.422340        1.000000        0.00054243        0.00013534        0.00018805        0.00006535
     226         -0.422076        1.000000        0.00287185        0.00010948        0.00114818        0.00050288
     227         -0.422010        1.000000        0.00172435        0.00048533        0.00037347        0.00066856
     228         -0.421744        1.000000        0.00076360        0.00011962        0.00030082        0.00048006
     229         -0.421359        1.000000        0.00317580        0.00118012        0.00030800        0.00067985
     230         -0.421028        1.000000        0.00211627        0.00027361        0.00033652        0.00029158
     231         -0.420893        1.000000        0.00141592        0.00047353        0.00040480        0.00026419
     232         -0.420674        1.000000        0.00117601        0.00039870        0.00024994        0.00140250
     233         -0.420559        1.000000        0.00145638        0.00019701        0.00026876        0.00116289
     234         -0.420485        1.000000        0.00038384        0.00029327        0.00012435        0.00056527
     235         -0.419925        1.000000        0.00029991        0.00010375        0.00105355        0.00021458
     236         -0.419644        1.000000        0.00210822        0.00065320        0.00018729        0.00019851
     237         -0.419238        1.000000        0.00191779        0.00019935        0.00101293        0.00141651
     238         -0.418736        1.000000        0.00247070        0.00030222        0.00080452        0.00070510
     239         -0.418013        1.000000        0.00148003        0.00022559        0.00019853        0.00059409
     240         -0.417471        1.000000        0.00066211        0.00037759        0.00089197        0.00096005
     241         -0.416909        1.000000        0.00098155        0.00013952        0.00050813        0.00007116
     242         -0.416747        1.000000        0.00106532        0.00029713        0.00022379        0.00024511
     243         -0.416342        1.000000        0.00043126        0.00033897        0.00017268        0.00023484
     244         -0.416219        1.000000        0.00261243        0.00225443        0.00036143        0.00056414
     245         -0.415944        1.000000        0.00069784        0.00024023        0.00091980        0.00029670
     246         -0.415575        1.000000        0.00390381        0.00321780        0.00062374        0.00048292
     247         -0.413727        1.000000        0.00129201        0.00034703        0.00028034        0.00075841
     248         -0.413577        1.000000        0.00185829        0.00051095        0.00054214        0.00037287
     249         -0.413383        1.000000        0.00098926        0.00020991        0.00069247        0.00059411
     250         -0.412975        1.000000        0.00115889        0.00044023        0.00037867        0.00040182
     251         -0.412631        1.000000        0.00026272        0.00032255        0.00057181        0.00016780
     252         -0.411706        1.000000        0.00056638        0.00033725        0.00092075        0.00030838
     253         -0.411677        1.000000        0.00024994        0.00016181        0.00046885        0.00017386
     254         -0.411224        1.000000        0.01022615        0.00387564        0.00072036        0.00125760
     255         -0.410796        1.000000        0.00051057        0.00032297        0.00031618        0.00040001
     256         -0.409686        1.000000        0.00607617        0.00148628        0.00172218        0.00342740
     257         -0.409330        1.000000        0.00101203        0.00043048        0.00061373        0.00042931
     258         -0.408826        1.000000        0.00366835        0.00256146        0.00133365        0.00275484
     259         -0.408644        1.000000        0.00006416        0.00005930        0.00006225        0.00002289