# Projected DOS for atomic kind I at iteration step i = 0, E(Fermi) =    -0.110130 a.u.
#     MO Eigenvalue [a.u.]      Occupation                 s                py                pz                px
       1         -0.913496        1.000000        0.00008664        0.00015527        0.00003012        0.00023132
       2         -0.907854        1.000000        0.00005601        0.00010874        0.00002091        0.00015776
       3         -0.905420        1.000000        0.00003656        0.00006072        0.00006771        0.00007537
       4         -0.905066        1.000000        0.00009392        0.00001354        0.00010678        0.00031653
       5         -0.900237        1.000000        0.00001558        0.00004520        0.00006942        0.00001937
       6         -0.895049        1.000000        0.00007509        0.00007059        0.00005738        0.00024267
       7         -0.894095        1.000000        0.00005910        0.00012447        0.00006483        0.00010538
       8         -0.892601        1.000000        0.00002734        0.00000932        0.00019523        0.00000644
       9         -0.888456        1.000000        0.00005472        0.00002283        0.00004801        0.00022011
      10         -0.888023        1.000000        0.00010170        0.00001115        0.00000313        0.00043780
      11         -0.887598        1.000000        0.00004242        0.00000273        0.00018682        0.00003191
      12         -0.886642        1.000000        0.00002245        0.00003566        0.00003332        0.00005498
      13         -0.883086        1.000000        0.00001591        0.00002436        0.00006919        0.00005270
      14         -0.882588        1.000000        0.00004139        0.00009549        0.00003923        0.00016631
      15         -0.875639        1.000000        0.00014046        0.00022571        0.00025928        0.00017810
      16         -0.874908        1.000000        0.00013527        0.00026211        0.00042722        0.00015092
      17         -0.874190        1.000000        0.00007143        0.00004883        0.00000049        0.00026247
      18         -0.873992        1.000000        0.00005177        0.00000650        0.00013606        0.00011268
      19         -0.873521        1.000000        0.00012017        0.00025245        0.00007230        0.00022791
      20         -0.871909        1.000000        0.00002191        0.00006138        0.00005538        0.00002278
      21         -0.871529        1.000000        0.00000181        0.00000353        0.00001392        0.00000414
      22         -0.870968        1.000000        0.00007854        0.00007240        0.00007020        0.00020086
      23         -0.870415        1.000000        0.00000640        0.00008459        0.00001009        0.00001084
      24         -0.870077        1.000000        0.00014136        0.00002126        0.00000343        0.00051128
      25         -0.868930        1.000000        0.00012028        0.00013613        0.00007646        0.00006216
      26         -0.868524        1.000000        0.00013140        0.00000172        0.00019849        0.00029445
      27         -0.868169        1.000000        0.00015608        0.00026192        0.00047984        0.00016021
      28         -0.866655        1.000000        0.00002905        0.00004180        0.00007159        0.00007964
      29         -0.865666        1.000000        0.00003436        0.00019952        0.00001414        0.00001348
      30         -0.865013        1.000000        0.00006597        0.00000131        0.00014943        0.00013478
      31         -0.863891        1.000000        0.00017710        0.00013694        0.00019700        0.00022614
      32         -0.863659        1.000000        0.00037660        0.00074603        0.00041660        0.00027322
      33         -0.861828        1.000000        0.00009467        0.00003705        0.00010311        0.00015508
      34         -0.861401        1.000000        0.00003163        0.00004491        0.00005092        0.00007773
      35         -0.860156        1.000000        0.00006153        0.00001248        0.00016942        0.00005630
      36         -0.859992        1.000000        0.00013297        0.00012728        0.00008177        0.00026620
      37         -0.859415        1.000000        0.00012893        0.00017457        0.00002964        0.00009870
      38         -0.857716        1.000000        0.00007690        0.00007103        0.00004430        0.00014455
      39         -0.856831        1.000000        0.00002827        0.00011174        0.00000635        0.00001802
      40         -0.855847        1.000000        0.00017067        0.00010577        0.00023346        0.00014904
      41         -0.855561        1.000000        0.00001106        0.00002632        0.00005510        0.00001579
      42         -0.855358        1.000000        0.00001419        0.00000968        0.00001356        0.00003246
      43         -0.855319        1.000000        0.00012708        0.00009704        0.00021520        0.00007069
      44         -0.854279        1.000000        0.00001388        0.00001040        0.00001389        0.00001981
      45         -0.854123        1.000000        0.00002640        0.00007728        0.00001845        0.00003450
      46         -0.851737        1.000000        0.00047490        0.00008676        0.00047885        0.00035141
      47         -0.851643        1.000000        0.00045974        0.00009110        0.00036985        0.00029901
      48         -0.851533        1.000000        0.00003537        0.00013183        0.00005497        0.00000936
      49         -0.851244        1.000000        0.00050508        0.00011660        0.00013329        0.00047610
      50         -0.850199        1.000000        0.00006160        0.00005406        0.00009597        0.00010728
      51         -0.847500        1.000000        0.00008847        0.00004536        0.00006997        0.00014184
      52         -0.847172        1.000000        0.00002761        0.00002369        0.00014853        0.00000710
      53         -0.846995        1.000000        0.00025042        0.00009508        0.00037159        0.00015703
      54         -0.845933        1.000000        0.00005675        0.00008985        0.00013886        0.00015822
      55         -0.845692        1.000000        0.00014380        0.00008552        0.00016051        0.00015232
      56         -0.844532        1.000000        0.00002690        0.00001915        0.00006050        0.00007274
      57         -0.844409        1.000000        0.00004437        0.00000978        0.00006528        0.00011287
      58         -0.843039        1.000000        0.00009287        0.00005522        0.00011264        0.00018888
      59         -0.842836        1.000000        0.00009413        0.00007293        0.00008365        0.00010732
      60         -0.842661        1.000000        0.00004852        0.00005874        0.00008573        0.00011256
      61         -0.841170        1.000000        0.00021518        0.00009839        0.00003382        0.00023380
      62         -0.841000        1.000000        0.00014797        0.00005983        0.00023425        0.00034896
      63         -0.840375        1.000000        0.00003291        0.00005997        0.00012131        0.00009898
      64         -0.839248        1.000000        0.00004872        0.00003933        0.00025221        0.00046984
      65         -0.838900        1.000000        0.00003628        0.00001185        0.00012443        0.00001925
      66         -0.838675        1.000000        0.00054200        0.00003222        0.00014541        0.00026331
      67         -0.837363        1.000000        0.00032470        0.00015263        0.00003637        0.00031274
      68         -0.836400        1.000000        0.00015995        0.00007993        0.00030926        0.00022967
      69         -0.836101        1.000000        0.00014168        0.00002888        0.00030403        0.00005763
      70         -0.835220        1.000000        0.00009933        0.00006769        0.00009688        0.00025742
      71         -0.834135        1.000000        0.00027678        0.00004632        0.00016045        0.00007266
      72         -0.833769        1.000000        0.00012356        0.00003913        0.00021879        0.00024305
      73         -0.832971        1.000000        0.00068170        0.00028307        0.00065619        0.00024098
      74         -0.832098        1.000000        0.00000206        0.00000652        0.00000522        0.00000337
      75         -0.831653        1.000000        0.00015602        0.00007034        0.00001945        0.00017953
      76         -0.830225        1.000000        0.00008746        0.00004041        0.00007354        0.00009515
      77         -0.829025        1.000000        0.00021698        0.00006782        0.00006997        0.00028319
      78         -0.827050        1.000000        0.00003626        0.00003036        0.00004417        0.00008216
      79         -0.826656        1.000000        0.00012337        0.00008886        0.00010244        0.00017935
      80         -0.826471        1.000000        0.00014501        0.00002512        0.00032192        0.00006002
      81         -0.826126        1.000000        0.00014729        0.00009720        0.00010462        0.00019056
      82         -0.825827        1.000000        0.00000119        0.00000153        0.00000370        0.00000076
      83         -0.824011        1.000000        0.00003157        0.00000637        0.00006209        0.00008960
      84         -0.823182        1.000000        0.00064086        0.00004052        0.00018340        0.00066169
      85         -0.822943        1.000000        0.00046249        0.00004070        0.00004554        0.00023931
      86         -0.822544        1.000000        0.00026172        0.00003409        0.00008438        0.00008728
      87         -0.820947        1.000000        0.00009651        0.00005545        0.00008229        0.00013762
      88         -0.820165        1.000000        0.00004572        0.00010013        0.00002798        0.00005068
      89         -0.818829        1.000000        0.00023512        0.00005552        0.00010239        0.00010050
      90         -0.818596        1.000000        0.00001609        0.00002157        0.00000138        0.00005910
      91         -0.818032        1.000000        0.00055334        0.00011694        0.00000960        0.00051911
      92         -0.817099        1.000000        0.00027354        0.00004569        0.00055969        0.00002548
      93         -0.816173        1.000000        0.00026716        0.00007748        0.00008197        0.00016890
      94         -0.815175        1.000000        0.00153565        0.00011613        0.00031453        0.00074387
      95         -0.814441        1.000000        0.00168949        0.00044322        0.00121086        0.00057126
      96         -0.814428        1.000000        0.00008568        0.00002481        0.00005132        0.00005210
      97         -0.813532        1.000000        0.00012543        0.00002399        0.00006661        0.00011957
      98         -0.812905        1.000000        0.00050312        0.00005511        0.00016049        0.00015187
      99         -0.812603        1.000000        0.00018836        0.00003338        0.00012120        0.00036239
     100         -0.809917        1.000000        0.00791694        0.00003437        0.00454662        0.00672448
     101         -0.807002        1.000000        0.00041673        0.00005005        0.00074344        0.00008834
     102         -0.805596        1.000000        0.00009335        0.00002271        0.00002575        0.00008339
     103         -0.805254        1.000000        0.00001777        0.00002594        0.00000652        0.00001904
     104         -0.804171        1.000000        0.00117109        0.00005283        0.00024294        0.00037605
     105         -0.804077        1.000000        0.00141005        0.00004993        0.00094250        0.00127178
     106         -0.802007        1.000000        0.00003128        0.00002899        0.00004441        0.00002216
     107         -0.801943        1.000000        0.00002209        0.00002253        0.00006219        0.00003220
     108         -0.798942        1.000000        0.00034984        0.00004313        0.00057484        0.00006306
     109         -0.798303        1.000000        0.00085967        0.00080233        0.00046964        0.00098103
     110         -0.797939        1.000000        0.00335447        0.00017863        0.00129631        0.00205116
     111         -0.796589        1.000000        0.00001647        0.00000473        0.00008662        0.00002955
     112         -0.793300        1.000000        0.00029680        0.00004356        0.00005948        0.00018937
     113         -0.792822        1.000000        0.00002042        0.00002036        0.00002060        0.00001408
     114         -0.792099        1.000000        0.00277084        0.00002935        0.00097229        0.00168184
     115         -0.791326        1.000000        0.00006597        0.00000417        0.00000457        0.00002893
     116         -0.790882        1.000000        0.00002467        0.00003124        0.00004444        0.00007040
     117         -0.787013        1.000000        0.00006485        0.00006646        0.00013690        0.00000680
     118         -0.786189        1.000000        0.00290601        0.00001735        0.00463618        0.00000978
     119         -0.786024        1.000000        0.00006084        0.00000662        0.00018448        0.00007070
     120         -0.785316        1.000000        0.00007121        0.00011653        0.00010211        0.00003355
     121         -0.780389        1.000000        0.00062995        0.00002103        0.00018329        0.00035982
     122         -0.769286        1.000000        0.02196546        0.00280900        0.01127211        0.00498305
     123         -0.762696        1.000000        0.00003919        0.00003346        0.00070743        0.00021175
     124         -0.756801        1.000000        0.05374048        0.00677135        0.00158822        0.02549544
     125         -0.622144        1.000000        0.00164806        0.00027208        0.00030813        0.00018991
     126         -0.617617        1.000000        0.00262420        0.00037970        0.00060010        0.00037924
     127         -0.617276        1.000000        0.00257139        0.00040518        0.00040944        0.00017607
     128         -0.616194        1.000000        0.00151988        0.00037027        0.00034322        0.00034470
     129         -0.584757        1.000000        0.00166939        0.00026483        0.00023919        0.00022103
     130         -0.583497        1.000000        0.00327330        0.00045187        0.00015763        0.00044225
     131         -0.575245        1.000000        0.00719889        0.00039706        0.00025458        0.00022075
     132         -0.561274        1.000000        0.93103446        0.00000790        0.00000139        0.00000756
     133         -0.557786        1.000000        0.88723951        0.00132150        0.00011578        0.00083947
     134         -0.551188        1.000000        0.92066109        0.00214411        0.00451131        0.00227409
     135         -0.538685        1.000000        0.87906865        0.00320621        0.00271319        0.00111188
     136         -0.532498        1.000000        0.84310775        0.00409755        0.00432322        0.00299307
     137         -0.532375        1.000000        0.91223039        0.00153630        0.00294964        0.00311791
     138         -0.529096        1.000000        0.84351809        0.00311418        0.00233504        0.00282875
     139         -0.524995        1.000000        0.77757688        0.00193091        0.00370914        0.00224682
     140         -0.524289        1.000000        0.82189502        0.00230106        0.00251667        0.00315407
     141         -0.522027        1.000000        0.76079644        0.00454060        0.00256149        0.00395847
     142         -0.520755        1.000000        0.83554594        0.00294079        0.00183656        0.00172955
     143         -0.518315        1.000000        0.80760747        0.00235627        0.00245340        0.00179824
     144         -0.517984        1.000000        0.85006697        0.00105453        0.00263512        0.00270041
     145         -0.516599        1.000000        0.91617691        0.00147169        0.00298528        0.00284466
     146         -0.516303        1.000000        0.89953655        0.00125083        0.00270809        0.00250814
     147         -0.516249        1.000000        0.85498569        0.00104273        0.00185486        0.00186437
     148         -0.514277        1.000000        0.88507297        0.00038830        0.00086378        0.00099718
     149         -0.513486        1.000000        0.86825101        0.00137105        0.00149699        0.00157452
     150         -0.513116        1.000000        0.85082993        0.00118746        0.00215515        0.00134310
     151         -0.511563        1.000000        0.90250030        0.00099168        0.00163774        0.00100518
     152         -0.511090        1.000000        0.82974714        0.00174368        0.00242239        0.00186821
     153         -0.509720        1.000000        0.87051856        0.00344672        0.00336415        0.00265949
     154         -0.507696        1.000000        0.85866292        0.00108569        0.00314929        0.00197469
     155         -0.506162        1.000000        0.86617228        0.00121455        0.00170286        0.00126014
     156         -0.505742        1.000000        0.93623507        0.00199812        0.00052531        0.00094779
     157         -0.505479        1.000000        0.88389095        0.00112954        0.00119296        0.00102146
     158         -0.504985        1.000000        0.87699882        0.00337890        0.00040413        0.00105775
     159         -0.501193        1.000000        0.90204598        0.00183705        0.00140282        0.00230525
     160         -0.500836        1.000000        0.90581576        0.00102193        0.00052812        0.00226132
     161         -0.500056        1.000000        0.93996501        0.00046759        0.00112829        0.00059491
     162         -0.498111        1.000000        0.88115577        0.00045704        0.00043987        0.00218267
     163         -0.496566        1.000000        0.17731846        0.00127670        0.00116452        0.00139729
     164         -0.496209        1.000000        0.88819360        0.00039930        0.00095548        0.00035590
     165         -0.493706        1.000000        0.93261926        0.00084668        0.00046293        0.00036298
     166         -0.493473        1.000000        0.68864773        0.00153899        0.00188555        0.00156362
     167         -0.493105        1.000000        0.31297577        0.00162590        0.00231961        0.00084226
     168         -0.492559        1.000000        0.93115776        0.00086995        0.00055648        0.00041977
     169         -0.490822        1.000000        0.20557358        0.00283134        0.00195016        0.00087047
     170         -0.490627        1.000000        0.96392533        0.00063674        0.00031245        0.00036282
     171         -0.487525        1.000000        0.16132352        0.00077992        0.00359368        0.00162580
     172         -0.485502        1.000000        0.23956327        0.00200892        0.00090168        0.00165808
     173         -0.481436        1.000000        0.16651825        0.00148011        0.00533356        0.00129818
     174         -0.480184        1.000000        0.24429592        0.00433876        0.00332398        0.00166972
     175         -0.477066        1.000000        0.15547799        0.00248626        0.00259324        0.00264352
     176         -0.473164        1.000000        0.06082773        0.00099099        0.00032637        0.00551089
     177         -0.467152        1.000000        0.03838374        0.00218598        0.00060708        0.00158378
     178         -0.463716        1.000000        0.02098746        0.00016181        0.00036480        0.00518827
     179         -0.463004        1.000000        0.01202146        0.00090721        0.00085569        0.00056957
     180         -0.459201        1.000000        0.05915527        0.00066916        0.00330485        0.00020596
     181         -0.457024        1.000000        0.02613501        0.00027422        0.00034813        0.00417782
     182         -0.455717        1.000000        0.01416586        0.00082269        0.00035905        0.00253765
     183         -0.455158        1.000000        0.02765217        0.00277249        0.00050416        0.00219960
     184         -0.454561        1.000000        0.01744076        0.00208065        0.00015588        0.00126536
     185         -0.454301        1.000000        0.01806615        0.00093153        0.00018546        0.00357972
     186         -0.453384        1.000000        0.01859069        0.00055663        0.00140693        0.00391471
     187         -0.449521        1.000000        0.00219253        0.00044291        0.00028066        0.00012560
     188         -0.448616        1.000000        0.01662643        0.00051942        0.00133054        0.00206001
     189         -0.447967        1.000000        0.00078369        0.00000348        0.00028655        0.00011731
     190         -0.447118        1.000000        0.00128545        0.00046134        0.00020246        0.00014493
     191         -0.445540        1.000000        0.00881063        0.00276487        0.00040612        0.00167542
     192         -0.445081        1.000000        0.00431356        0.00053416        0.00032361        0.00020836
     193         -0.444285        1.000000        0.00318313        0.00084107        0.00097455        0.00064564
     194         -0.443594        1.000000        0.03205669        0.00002677        0.00214419        0.00074915
     195         -0.442760        1.000000        0.00792048        0.00030443        0.00053713        0.00229820
     196         -0.442073        1.000000        0.00611565        0.00047172        0.00036775        0.00053910
     197         -0.441324        1.000000        0.00203652        0.00088876        0.00027452        0.00020999
     198         -0.441164        1.000000        0.00157170        0.00054932        0.00029173        0.00009687
     199         -0.439664        1.000000        0.00075216        0.00020923        0.00014260        0.00033210
     200         -0.437035        1.000000        0.00184402        0.00014927        0.00005188        0.00068110
     201         -0.436608        1.000000        0.01175247        0.00205829        0.00018881        0.00367414
     202         -0.436544        1.000000        0.01016974        0.00048780        0.00023409        0.00362870
     203         -0.435379        1.000000        0.00456857        0.00027385        0.00034898        0.00114222
     204         -0.434699        1.000000        0.00015943        0.00008056        0.00008124        0.00008511
     205         -0.434600        1.000000        0.00254429        0.00091138        0.00028184        0.00044973
     206         -0.433733        1.000000        0.00399172        0.00047694        0.00011082        0.00038493
     207         -0.433671        1.000000        0.01559383        0.00024337        0.00306340        0.00840993
     208         -0.433291        1.000000        0.00075930        0.00034830        0.00005515        0.00134529
     209         -0.432129        1.000000        0.00640720        0.00107370        0.00052321        0.00051570
     210         -0.431490        1.000000        0.00004830        0.00001283        0.00002770        0.00003462
     211         -0.431352        1.000000        0.00045225        0.00007841        0.00031015        0.00037088
     212         -0.429644        1.000000        0.00721271        0.00204150        0.00026791        0.00057114
     213         -0.429374        1.000000        0.00224186        0.00119907        0.00079435        0.00044991
     214         -0.428953        1.000000        0.00155192        0.00007844        0.00100337        0.00017214
     215         -0.427441        1.000000        0.00631455        0.00055656        0.00074608        0.00153535
     216         -0.426052        1.000000        0.00056188        0.00008384        0.00041065        0.00030658
     217         -0.425710        1.000000        0.00157173        0.00019415        0.00015689        0.00066651
     218         -0.425523        1.000000        0.00190705        0.00150343        0.00028938        0.00045767
     219         -0.425141        1.000000        0.00012827        0.00008876        0.00058899        0.00003629
     220         -0.424790        1.000000        0.00036602        0.00018206        0.00022196        0.00023709
     221         -0.424715        1.000000        0.00584236        0.00044320        0.00695516        0.00266503
     222         -0.424122        1.000000        0.00158493        0.00011491        0.00020645        0.00026318
     223         -0.423521        1.000000        0.00121908        0.00019924        0.00023267        0.00024869
     224         -0.422994        1.000000        0.01068547        0.00256909        0.00142312        0.00250849
     225         -0.422558        1.000000        0.00178762        0.00068175        0.00032918        0.00247553
     226         -0.422318        1.000000        0.00057033        0.00015127        0.00017813        0.00010917
     227         -0.422069        1.000000        0.00303619        0.00010354        0.00115204        0.00048602
     228         -0.421995        1.000000        0.00188384        0.00047516        0.00036699        0.00065749
     229         -0.421688        1.000000        0.00082170        0.00013802        0.00028101        0.00050083
     230         -0.421338        1.000000        0.00330641        0.00115826        0.00030422        0.00067606
     231         -0.421125        1.000000        0.00210008        0.00026144        0.00032701        0.00029481
     232         -0.420934        1.000000        0.00114084        0.00048241        0.00042447        0.00027330
     233         -0.420581        1.000000        0.00128051        0.00007911        0.00008661        0.00057094
     234         -0.420485        1.000000        0.00047007        0.00019684        0.00009688        0.00045924
     235         -0.419931        1.000000        0.00032343        0.00009757        0.00097619        0.00020757
     236         -0.419636        1.000000        0.00226183        0.00064109        0.00018766        0.00019245
     237         -0.419357        1.000000        0.00217959        0.00019032        0.00098161        0.00108378
     238         -0.418787        1.000000        0.00281874        0.00021698        0.00102714        0.00063853
     239         -0.418005        1.000000        0.00153248        0.00021985        0.00019914        0.00057991
     240         -0.417469        1.000000        0.00087236        0.00015955        0.00051694        0.00008633
     241         -0.417442        1.000000        0.00074198        0.00037132        0.00081657        0.00091238
     242         -0.416733        1.000000        0.00112158        0.00029843        0.00021683        0.00024087
     243         -0.416324        1.000000        0.00042816        0.00032257        0.00016219        0.00021760
     244         -0.416213        1.000000        0.00268176        0.00221813        0.00034043        0.00049058
     245         -0.415925        1.000000        0.00077794        0.00025688        0.00089663        0.00029314
     246         -0.415575        1.000000        0.00383401        0.00314513        0.00060949        0.00044074
     247         -0.413707        1.000000        0.00137201        0.00033997        0.00027668        0.00074701
     248         -0.413583        1.000000        0.00214606        0.00053687        0.00052218        0.00035554
     249         -0.413373        1.000000        0.00101356        0.00021141        0.00069845        0.00059057
     250         -0.412969        1.000000        0.00118234        0.00042417        0.00037012        0.00039764
     251         -0.412679        1.000000        0.00029993        0.00032567        0.00054037        0.00022250
     252         -0.411686        1.000000        0.00057699        0.00032140        0.00088090        0.00028908
     253         -0.411650        1.000000        0.00021290        0.00014096        0.00042532        0.00014983
     254         -0.411185        1.000000        0.01083445        0.00383586        0.00070008        0.00122080
     255         -0.410792        1.000000        0.00055908        0.00029761        0.00037326        0.00046031
     256         -0.409654        1.000000        0.00648148        0.00142253        0.00168034        0.00338184
     257         -0.409398        1.000000        0.00105552        0.00055798        0.00069532        0.00050647
     258         -0.409046        1.000000        0.00445847        0.00321196        0.00179430        0.00210442
     259         -0.408732        1.000000        0.00465573        0.00222647        0.00094277        0.00237302