# Projected DOS for atomic kind H at iteration step i = 0, E(Fermi) =    -0.110130 a.u.
#     MO Eigenvalue [a.u.]      Occupation                 s
       1         -0.913496        1.000000        0.25230265
       2         -0.907854        1.000000        0.25540032
       3         -0.905420        1.000000        0.25139556
       4         -0.905066        1.000000        0.25247702
       5         -0.900237        1.000000        0.25838094
       6         -0.895049        1.000000        0.26043016
       7         -0.894095        1.000000        0.25522952
       8         -0.892601        1.000000        0.25555952
       9         -0.888456        1.000000        0.25540644
      10         -0.888023        1.000000        0.25638469
      11         -0.887598        1.000000        0.25157215
      12         -0.886642        1.000000        0.25755827
      13         -0.883086        1.000000        0.25349335
      14         -0.882588        1.000000        0.26889690
      15         -0.875639        1.000000        0.28075047
      16         -0.874908        1.000000        0.28285547
      17         -0.874190        1.000000        0.25529217
      18         -0.873992        1.000000        0.25636976
      19         -0.873521        1.000000        0.27232220
      20         -0.871909        1.000000        0.27846000
      21         -0.871529        1.000000        0.25489157
      22         -0.870968        1.000000        0.27746465
      23         -0.870415        1.000000        0.25009285
      24         -0.870077        1.000000        0.25171819
      25         -0.868930        1.000000        0.25777744
      26         -0.868524        1.000000        0.25604095
      27         -0.868169        1.000000        0.27204666
      28         -0.866655        1.000000        0.27949755
      29         -0.865666        1.000000        0.25544630
      30         -0.865013        1.000000        0.25732902
      31         -0.863891        1.000000        0.27586871
      32         -0.863659        1.000000        0.27843181
      33         -0.861828        1.000000        0.28089588
      34         -0.861401        1.000000        0.26267204
      35         -0.860156        1.000000        0.25223442
      36         -0.859992        1.000000        0.25865204
      37         -0.859415        1.000000        0.26114375
      38         -0.857716        1.000000        0.26327614
      39         -0.856831        1.000000        0.25319670
      40         -0.855847        1.000000        0.26337541
      41         -0.855561        1.000000        0.25767484
      42         -0.855358        1.000000        0.24278631
      43         -0.855319        1.000000        0.27622681
      44         -0.854279        1.000000        0.25403711
      45         -0.854123        1.000000        0.25589433
      46         -0.851737        1.000000        0.25617201
      47         -0.851643        1.000000        0.25806994
      48         -0.851533        1.000000        0.25867395
      49         -0.851244        1.000000        0.26840612
      50         -0.850199        1.000000        0.26009405
      51         -0.847500        1.000000        0.25294140
      52         -0.847172        1.000000        0.27608664
      53         -0.846995        1.000000        0.24941057
      54         -0.845933        1.000000        0.26934257
      55         -0.845692        1.000000        0.26086201
      56         -0.844532        1.000000        0.24700723
      57         -0.844409        1.000000        0.26265171
      58         -0.843039        1.000000        0.25909830
      59         -0.842836        1.000000        0.24176532
      60         -0.842661        1.000000        0.25768040
      61         -0.841170        1.000000        0.23737556
      62         -0.841000        1.000000        0.26122366
      63         -0.840375        1.000000        0.25218297
      64         -0.839248        1.000000        0.26068210
      65         -0.838900        1.000000        0.25239953
      66         -0.838675        1.000000        0.26059107
      67         -0.837363        1.000000        0.23361901
      68         -0.836400        1.000000        0.23169112
      69         -0.836101        1.000000        0.24512865
      70         -0.835220        1.000000        0.25318685
      71         -0.834135        1.000000        0.25510910
      72         -0.833769        1.000000        0.25266233
      73         -0.832971        1.000000        0.22385420
      74         -0.832098        1.000000        0.24718643
      75         -0.831653        1.000000        0.22584324
      76         -0.830225        1.000000        0.23460260
      77         -0.829025        1.000000        0.25114776
      78         -0.827050        1.000000        0.23569819
      79         -0.826656        1.000000        0.22815135
      80         -0.826471        1.000000        0.22941707
      81         -0.826126        1.000000        0.23381439
      82         -0.825827        1.000000        0.25536200
      83         -0.824011        1.000000        0.23891495
      84         -0.823182        1.000000        0.22819743
      85         -0.822943        1.000000        0.21404295
      86         -0.822544        1.000000        0.23680277
      87         -0.820947        1.000000        0.21479009
      88         -0.820165        1.000000        0.24926057
      89         -0.818829        1.000000        0.21611526
      90         -0.818596        1.000000        0.25219500
      91         -0.818032        1.000000        0.20082733
      92         -0.817099        1.000000        0.21367091
      93         -0.816173        1.000000        0.23266235
      94         -0.815175        1.000000        0.21476944
      95         -0.814441        1.000000        0.19915960
      96         -0.814428        1.000000        0.20553892
      97         -0.813532        1.000000        0.22172209
      98         -0.812905        1.000000        0.23067165
      99         -0.812603        1.000000        0.22309210
     100         -0.809917        1.000000        0.19792167
     101         -0.807002        1.000000        0.19823128
     102         -0.805596        1.000000        0.19351012
     103         -0.805254        1.000000        0.21207289
     104         -0.804171        1.000000        0.20680489
     105         -0.804077        1.000000        0.21033679
     106         -0.802007        1.000000        0.17879191
     107         -0.801943        1.000000        0.25781525
     108         -0.798942        1.000000        0.18303316
     109         -0.798303        1.000000        0.19668749
     110         -0.797939        1.000000        0.21729212
     111         -0.796589        1.000000        0.24988020
     112         -0.793300        1.000000        0.18424601
     113         -0.792822        1.000000        0.18651464
     114         -0.792099        1.000000        0.18541808
     115         -0.791326        1.000000        0.18989516
     116         -0.790882        1.000000        0.18652408
     117         -0.787013        1.000000        0.23812138
     118         -0.786189        1.000000        0.15022317
     119         -0.786024        1.000000        0.22672486
     120         -0.785316        1.000000        0.24072032
     121         -0.780389        1.000000        0.17147833
     122         -0.769286        1.000000        0.11765492
     123         -0.762696        1.000000        0.08119407
     124         -0.756801        1.000000        0.06479117
     125         -0.622144        1.000000        0.34497283
     126         -0.617617        1.000000        0.35018512
     127         -0.617276        1.000000        0.35421964
     128         -0.616194        1.000000        0.34235795
     129         -0.584757        1.000000        0.36587396
     130         -0.583497        1.000000        0.36510151
     131         -0.575245        1.000000        0.36660060
     132         -0.561274        1.000000        0.00879525
     133         -0.557786        1.000000        0.01331061
     134         -0.551188        1.000000        0.01093307
     135         -0.538685        1.000000        0.01944500
     136         -0.532498        1.000000        0.01786433
     137         -0.532375        1.000000        0.01432534
     138         -0.529096        1.000000        0.03101338
     139         -0.524995        1.000000        0.05984508
     140         -0.524289        1.000000        0.03132815
     141         -0.522027        1.000000        0.07165740
     142         -0.520755        1.000000        0.04153193
     143         -0.518315        1.000000        0.04747503
     144         -0.517984        1.000000        0.03491556
     145         -0.516599        1.000000        0.01174267
     146         -0.516303        1.000000        0.02031154
     147         -0.516249        1.000000        0.03980981
     148         -0.514277        1.000000        0.03510825
     149         -0.513486        1.000000        0.03055292
     150         -0.513116        1.000000        0.03560587
     151         -0.511563        1.000000        0.02074916
     152         -0.511090        1.000000        0.03976489
     153         -0.509720        1.000000        0.01649163
     154         -0.507696        1.000000        0.03258206
     155         -0.506162        1.000000        0.03981865
     156         -0.505742        1.000000        0.01389822
     157         -0.505479        1.000000        0.03557571
     158         -0.504985        1.000000        0.04120386
     159         -0.501193        1.000000        0.01857701
     160         -0.500836        1.000000        0.01279902
     161         -0.500056        1.000000        0.00843966
     162         -0.498111        1.000000        0.02383100
     163         -0.496566        1.000000        0.26481718
     164         -0.496209        1.000000        0.02680055
     165         -0.493706        1.000000        0.01236623
     166         -0.493473        1.000000        0.08876425
     167         -0.493105        1.000000        0.21853953
     168         -0.492559        1.000000        0.01718296
     169         -0.490822        1.000000        0.25094776
     170         -0.490627        1.000000        0.00797416
     171         -0.487525        1.000000        0.26864778
     172         -0.485502        1.000000        0.23107351
     173         -0.481436        1.000000        0.25747214
     174         -0.480184        1.000000        0.23333970
     175         -0.477066        1.000000        0.25985159
     176         -0.473164        1.000000        0.32727396
     177         -0.467152        1.000000        0.34451316
     178         -0.463716        1.000000        0.34502714
     179         -0.463004        1.000000        0.34604164
     180         -0.459201        1.000000        0.32669784
     181         -0.457024        1.000000        0.33867798
     182         -0.455717        1.000000        0.33825209
     183         -0.455158        1.000000        0.34555040
     184         -0.454561        1.000000        0.33639632
     185         -0.454301        1.000000        0.34364394
     186         -0.453384        1.000000        0.34906474
     187         -0.449521        1.000000        0.34771791
     188         -0.448616        1.000000        0.33708106
     189         -0.447967        1.000000        0.35820241
     190         -0.447118        1.000000        0.34896607
     191         -0.445540        1.000000        0.33827029
     192         -0.445081        1.000000        0.34414705
     193         -0.444285        1.000000        0.35525948
     194         -0.443594        1.000000        0.34126203
     195         -0.442760        1.000000        0.34282558
     196         -0.442073        1.000000        0.33198567
     197         -0.441324        1.000000        0.32567629
     198         -0.441164        1.000000        0.34025907
     199         -0.439664        1.000000        0.34504768
     200         -0.437035        1.000000        0.34471753
     201         -0.436608        1.000000        0.35449715
     202         -0.436544        1.000000        0.34497287
     203         -0.435379        1.000000        0.34208119
     204         -0.434699        1.000000        0.34764222
     205         -0.434600        1.000000        0.34419651
     206         -0.433733        1.000000        0.34852461
     207         -0.433671        1.000000        0.35002379
     208         -0.433291        1.000000        0.35477947
     209         -0.432129        1.000000        0.34604410
     210         -0.431490        1.000000        0.36239138
     211         -0.431352        1.000000        0.34383845
     212         -0.429644        1.000000        0.34728576
     213         -0.429374        1.000000        0.32278517
     214         -0.428953        1.000000        0.35067667
     215         -0.427441        1.000000        0.33691248
     216         -0.426052        1.000000        0.34279006
     217         -0.425710        1.000000        0.34304198
     218         -0.425523        1.000000        0.35110330
     219         -0.425141        1.000000        0.33781477
     220         -0.424790        1.000000        0.34436567
     221         -0.424715        1.000000        0.35119824
     222         -0.424122        1.000000        0.33504189
     223         -0.423521        1.000000        0.34280112
     224         -0.422994        1.000000        0.33663072
     225         -0.422558        1.000000        0.34304533
     226         -0.422318        1.000000        0.34472152
     227         -0.422069        1.000000        0.34128442
     228         -0.421995        1.000000        0.34496625
     229         -0.421688        1.000000        0.34497200
     230         -0.421338        1.000000        0.34640017
     231         -0.421125        1.000000        0.34626495
     232         -0.420934        1.000000        0.34022464
     233         -0.420581        1.000000        0.34328849
     234         -0.420485        1.000000        0.34062726
     235         -0.419931        1.000000        0.34608147
     236         -0.419636        1.000000        0.33549499
     237         -0.419357        1.000000        0.33710876
     238         -0.418787        1.000000        0.33977178
     239         -0.418005        1.000000        0.34476156
     240         -0.417469        1.000000        0.34054496
     241         -0.417442        1.000000        0.34617552
     242         -0.416733        1.000000        0.34236972
     243         -0.416324        1.000000        0.34621040
     244         -0.416213        1.000000        0.35543134
     245         -0.415925        1.000000        0.34462709
     246         -0.415575        1.000000        0.35394325
     247         -0.413707        1.000000        0.34631552
     248         -0.413583        1.000000        0.34058916
     249         -0.413373        1.000000        0.33904947
     250         -0.412969        1.000000        0.34615117
     251         -0.412679        1.000000        0.34040977
     252         -0.411686        1.000000        0.34172117
     253         -0.411650        1.000000        0.34266461
     254         -0.411185        1.000000        0.33705121
     255         -0.410792        1.000000        0.34121173
     256         -0.409654        1.000000        0.33683118
     257         -0.409398        1.000000        0.33769828
     258         -0.409046        1.000000        0.33282949
     259         -0.408732        1.000000        0.33880351
     260         -0.408649        1.000000        0.35583678
     261         -0.407714        1.000000        0.34281174
     262         -0.407098        1.000000        0.33970163
     263         -0.406298        1.000000        0.34529318
     264         -0.405562        1.000000        0.34289321
     265         -0.404909        1.000000        0.34153683
     266         -0.404403        1.000000        0.34517191
     267         -0.404229        1.000000        0.33691369
     268         -0.403921        1.000000        0.34055880
     269         -0.403591        1.000000        0.34333279
     270         -0.402650        1.000000        0.32866006
     271         -0.402259        1.000000        0.18365304
     272         -0.401565        1.000000        0.34111969
     273         -0.401129        1.000000        0.34779071
     274         -0.400674        1.000000        0.32695678
     275         -0.399381        1.000000        0.33038786
     276         -0.399170        1.000000        0.33943070
     277         -0.399058        1.000000        0.34398030
     278         -0.399049        1.000000        0.33743088
     279         -0.398381        1.000000        0.33566871
     280         -0.397975        1.000000        0.34449093
     281         -0.397485        1.000000        0.15031657
     282         -0.397146        1.000000        0.33126816
     283         -0.396909        1.000000        0.17590789
     284         -0.396735        1.000000        0.08918015
     285         -0.396289        1.000000        0.33665715
     286         -0.395338        1.000000        0.31021691
     287         -0.394978        1.000000        0.27641488
     288         -0.394415        1.000000        0.20095726
     289         -0.394165        1.000000        0.06899925
     290         -0.393727        1.000000        0.21615541
     291         -0.392540        1.000000        0.11327002
     292         -0.391971        1.000000        0.17323784
     293         -0.391438        1.000000        0.32127615
     294         -0.390829        1.000000        0.27731209
     295         -0.390136        1.000000        0.31442729
     296         -0.389429        1.000000        0.36516313
     297         -0.389233        1.000000        0.30079221
     298         -0.387408        1.000000        0.18972983
     299         -0.385975        1.000000        0.10936247
     300         -0.383894        1.000000        0.09773152
     301         -0.383398        1.000000        0.01645457
     302         -0.382958        1.000000        0.34351711
     303         -0.382115        1.000000        0.36337651
     304         -0.376251        1.000000        0.01491048
     305         -0.372819        1.000000        0.32778286
     306         -0.371086        1.000000        0.35318775
     307         -0.370223        1.000000        0.26530033
     308         -0.369086        1.000000        0.26755265
     309         -0.364598        1.000000        0.35658341
     310         -0.363543        1.000000        0.17896791
     311         -0.362097        1.000000        0.33224634
     312         -0.361379        1.000000        0.35163967
     313         -0.359440        1.000000        0.36777959
     314         -0.359360        1.000000        0.18313758
     315         -0.351982        1.000000        0.17353443
     316         -0.345106        1.000000        0.20806622
     317         -0.339067        1.000000        0.42382468
     318         -0.337535        1.000000        0.41284091
     319         -0.337371        1.000000        0.42253537
     320         -0.336587        1.000000        0.41933332
     321         -0.334875        1.000000        0.41091224
     322         -0.333618        1.000000        0.18073430
     323         -0.333272        1.000000        0.42057987
     324         -0.333105        1.000000        0.28991825
     325         -0.332482        1.000000        0.24790125
     326         -0.331228        1.000000        0.21879036
     327         -0.330669        1.000000        0.41929539
     328         -0.325258        1.000000        0.17355430
     329         -0.323384        1.000000        0.16210245
     330         -0.320821        1.000000        0.28300248
     331         -0.317640        1.000000        0.17022368
     332         -0.317300        1.000000        0.16567371
     333         -0.315442        1.000000        0.15997908
     334         -0.311743        1.000000        0.33174945
     335         -0.310731        1.000000        0.18934442
     336         -0.310586        1.000000        0.14169217
     337         -0.310172        1.000000        0.17511380
     338         -0.306911        1.000000        0.18430538
     339         -0.306870        1.000000        0.18908397
     340         -0.306678        1.000000        0.27274811
     341         -0.305505        1.000000        0.42298389
     342         -0.303528        1.000000        0.20801761
     343         -0.302840        1.000000        0.13065986
     344         -0.302370        1.000000        0.20788896
     345         -0.301502        1.000000        0.17236675
     346         -0.301392        1.000000        0.15201626
     347         -0.298632        1.000000        0.13761633
     348         -0.298227        1.000000        0.31359422
     349         -0.297617        1.000000        0.20140247
     350         -0.297355        1.000000        0.23189874
     351         -0.297040        1.000000        0.11896575
     352         -0.295700        1.000000        0.13592505
     353         -0.295035        1.000000        0.14690951
     354         -0.293534        1.000000        0.19035090
     355         -0.291595        1.000000        0.14510564
     356         -0.290813        1.000000        0.13668863
     357         -0.289466        1.000000        0.12526143
     358         -0.285487        1.000000        0.12776465
     359         -0.284510        1.000000        0.12836969
     360         -0.284367        1.000000        0.12834106
     361         -0.283127        1.000000        0.12596811
     362         -0.281132        1.000000        0.09855640
     363         -0.280412        1.000000        0.11808908
     364         -0.278432        1.000000        0.10874563
     365         -0.278079        1.000000        0.12933938
     366         -0.273613        1.000000        0.11586286
     367         -0.273341        1.000000        0.11093446
     368         -0.272987        1.000000        0.10736207
     369         -0.271903        1.000000        0.11247419
     370         -0.271008        1.000000        0.10084483
     371         -0.270673        1.000000        0.09860115
     372         -0.270181        1.000000        0.08801546
     373         -0.269070        1.000000        0.11078208
     374         -0.266941        1.000000        0.10227012
     375         -0.266183        1.000000        0.09490684
     376         -0.265587        1.000000        0.08484215
     377         -0.264621        1.000000        0.10018558
     378         -0.264089        1.000000        0.07475549
     379         -0.262074        1.000000        0.09626805
     380         -0.260962        1.000000        0.09411577
     381         -0.260160        1.000000        0.08779491
     382         -0.259563        1.000000        0.08892265
     383         -0.257461        1.000000        0.09602264
     384         -0.255850        1.000000        0.05685387
     385         -0.254303        1.000000        0.08832052
     386         -0.252464        1.000000        0.08051386
     387         -0.252080        1.000000        0.08651239
     388         -0.251751        1.000000        0.09184985
     389         -0.251151        1.000000        0.07517997
     390         -0.250034        1.000000        0.08551769
     391         -0.249548        1.000000        0.04150854
     392         -0.248397        1.000000        0.03284967
     393         -0.247207        1.000000        0.08472670
     394         -0.246783        1.000000        0.08749857
     395         -0.244360        1.000000        0.08309012
     396         -0.242203        1.000000        0.09202770
     397         -0.241307        1.000000        0.05614802
     398         -0.237787        1.000000        0.05800994
     399         -0.237366        1.000000        0.05620637
     400         -0.236734        1.000000        0.08456196
     401         -0.236559        1.000000        0.08456984
     402         -0.235836        1.000000        0.05495379
     403         -0.234813        1.000000        0.03985291
     404         -0.232697        1.000000        0.04521498
     405         -0.232008        1.000000        0.02238367
     406         -0.230911        1.000000        0.04473541
     407         -0.228937        1.000000        0.07196758
     408         -0.226678        1.000000        0.04502782
     409         -0.226060        1.000000        0.06518045
     410         -0.225646        1.000000        0.06030756
     411         -0.225359        1.000000        0.06152839
     412         -0.224450        1.000000        0.05961780
     413         -0.223742        1.000000        0.04908360
     414         -0.222264        1.000000        0.06007412
     415         -0.221565        1.000000        0.06938001
     416         -0.220862        1.000000        0.04895901
     417         -0.220524        1.000000        0.03267352
     418         -0.220406        1.000000        0.04605790
     419         -0.219159        1.000000        0.03723913
     420         -0.218457        1.000000        0.03557875
     421         -0.217828        1.000000        0.03417185
     422         -0.217531        1.000000        0.04350070
     423         -0.215898        1.000000        0.05568920
     424         -0.214588        1.000000        0.02119317
     425         -0.213778        1.000000        0.01425446
     426         -0.213353        1.000000        0.02377362
     427         -0.211981        1.000000        0.02676284
     428         -0.211675        1.000000        0.01786925
     429         -0.211635        1.000000        0.00889201
     430         -0.211157        1.000000        0.02682301
     431         -0.210655        1.000000        0.01659964
     432         -0.210073        1.000000        0.02656482
     433         -0.209434        1.000000        0.02799340
     434         -0.209218        1.000000        0.02763507
     435         -0.208411        1.000000        0.01212141
     436         -0.207191        1.000000        0.02435339
     437         -0.206659        1.000000        0.03097390
     438         -0.206644        1.000000        0.01658524
     439         -0.205668        1.000000        0.02516606
     440         -0.205350        1.000000        0.01991258
     441         -0.204512        1.000000        0.02734977
     442         -0.203481        1.000000        0.01935740
     443         -0.203424        1.000000        0.01626182
     444         -0.202882        1.000000        0.02797089
     445         -0.202248        1.000000        0.01022083
     446         -0.201528        1.000000        0.01711967
     447         -0.201402        1.000000        0.01085747
     448         -0.201021        1.000000        0.01554764
     449         -0.200681        1.000000        0.01379678
     450         -0.199143        1.000000        0.01467143
     451         -0.198541        1.000000        0.01112579
     452         -0.198457        1.000000        0.01131426
     453         -0.197866        1.000000        0.01500845
     454         -0.197649        1.000000        0.00847170
     455         -0.197136        1.000000        0.01321321
     456         -0.196824        1.000000        0.01130150
     457         -0.196452        1.000000        0.00621662
     458         -0.196218        1.000000        0.01269438
     459         -0.195930        1.000000        0.01066080
     460         -0.195055        1.000000        0.02153313
     461         -0.194706        1.000000        0.03458318
     462         -0.194298        1.000000        0.01253264
     463         -0.193702        1.000000        0.01142233
     464         -0.193329        1.000000        0.00987788
     465         -0.192897        1.000000        0.00946598
     466         -0.192588        1.000000        0.00618199
     467         -0.192215        1.000000        0.01151271
     468         -0.191843        1.000000        0.00915219
     469         -0.191429        1.000000        0.00905204
     470         -0.190892        1.000000        0.01678503
     471         -0.190618        1.000000        0.01212847
     472         -0.190470        1.000000        0.00988375
     473         -0.189738        1.000000        0.00911306
     474         -0.189378        1.000000        0.01038560
     475         -0.189062        1.000000        0.00445705
     476         -0.188835        1.000000        0.01265830
     477         -0.188113        1.000000        0.00588732
     478         -0.187656        1.000000        0.00898098
     479         -0.187134        1.000000        0.00577621
     480         -0.186795        1.000000        0.00880295
     481         -0.186454        1.000000        0.00960287
     482         -0.186204        1.000000        0.00910535
     483         -0.185805        1.000000        0.00841654
     484         -0.185422        1.000000        0.01045105
     485         -0.184883        1.000000        0.01449206
     486         -0.184464        1.000000        0.00870951
     487         -0.184363        1.000000        0.01052299
     488         -0.183636        1.000000        0.01163494
     489         -0.183468        1.000000        0.00715574