# Projected DOS for atomic kind C at iteration step i = 0, E(Fermi) =    -0.110130 a.u.
#     MO Eigenvalue [a.u.]      Occupation                 s                py                pz                px
       1         -0.913496        1.000000        0.00000001        0.00000000        0.00000001        0.00000001
       2         -0.907854        1.000000        0.00000006        0.00000003        0.00000000        0.00000005
       3         -0.905420        1.000000        0.00001212        0.00001654        0.00000100        0.00000145
       4         -0.905066        1.000000        0.00000001        0.00000002        0.00000000        0.00000001
       5         -0.900237        1.000000        0.00000186        0.00000018        0.00000007        0.00000219
       6         -0.895049        1.000000        0.00000000        0.00000000        0.00000000        0.00000000
       7         -0.894095        1.000000        0.00000000        0.00000000        0.00000001        0.00000000
       8         -0.892601        1.000000        0.00000045        0.00000005        0.00000056        0.00000033
       9         -0.888456        1.000000        0.00000064        0.00000000        0.00000141        0.00000043
      10         -0.888023        1.000000        0.00000211        0.00000003        0.00000000        0.00000248
      11         -0.887598        1.000000        0.00000000        0.00000000        0.00000000        0.00000000
      12         -0.886642        1.000000        0.00032559        0.00002114        0.00001352        0.00026265
      13         -0.883086        1.000000        0.00000002        0.00000000        0.00000002        0.00000005
      14         -0.882588        1.000000        0.00018517        0.00000898        0.00000721        0.00014062
      15         -0.875639        1.000000        0.06126432        0.00000787        0.00064853        0.04328074
      16         -0.874908        1.000000        0.05847398        0.00000005        0.00544887        0.03793283
      17         -0.874190        1.000000        0.00000189        0.00000000        0.00000003        0.00000184
      18         -0.873992        1.000000        0.00000654        0.00000000        0.00000010        0.00000439
      19         -0.873521        1.000000        0.00000010        0.00000000        0.00000002        0.00000000
      20         -0.871909        1.000000        0.00016309        0.00000005        0.00000305        0.00014351
      21         -0.871529        1.000000        0.00000000        0.00000000        0.00000000        0.00000000
      22         -0.870968        1.000000        0.00007583        0.00000378        0.00000539        0.00000041
      23         -0.870415        1.000000        0.00002096        0.00000002        0.00000080        0.00001519
      24         -0.870077        1.000000        0.00000058        0.00000002        0.00000008        0.00000047
      25         -0.868930        1.000000        0.01535091        0.00000797        0.00068888        0.01017631
      26         -0.868524        1.000000        0.00000001        0.00000001        0.00000001        0.00000000
      27         -0.868169        1.000000        0.04684114        0.00000524        0.00211809        0.03083635
      28         -0.866655        1.000000        0.00154189        0.00000290        0.00000835        0.00139196
      29         -0.865666        1.000000        0.00000044        0.00000002        0.00000010        0.00000022
      30         -0.865013        1.000000        0.00014489        0.00001726        0.00009031        0.00002604
      31         -0.863891        1.000000        0.00021157        0.00000555        0.00000007        0.00012321
      32         -0.863659        1.000000        0.06715868        0.00189907        0.00000002        0.04323994
      33         -0.861828        1.000000        0.00017790        0.00000080        0.00000239        0.00015001
      34         -0.861401        1.000000        0.00059543        0.00001271        0.00000116        0.00050484
      35         -0.860156        1.000000        0.00000228        0.00000001        0.00000011        0.00000140
      36         -0.859992        1.000000        0.00008220        0.00001397        0.00000381        0.00023936
      37         -0.859415        1.000000        0.00000772        0.00000004        0.00000058        0.00000580
      38         -0.857716        1.000000        0.00000315        0.00000027        0.00000052        0.00000188
      39         -0.856831        1.000000        0.00000014        0.00000005        0.00000003        0.00000008
      40         -0.855847        1.000000        0.00001277        0.00000125        0.00000177        0.00004565
      41         -0.855561        1.000000        0.00000217        0.00000011        0.00001455        0.00002301
      42         -0.855358        1.000000        0.00002084        0.00000322        0.00000143        0.00001555
      43         -0.855319        1.000000        0.00004164        0.00000104        0.00000451        0.00004141
      44         -0.854279        1.000000        0.00000484        0.00000162        0.00002958        0.00008579
      45         -0.854123        1.000000        0.00004845        0.00000350        0.00000140        0.00004095
      46         -0.851737        1.000000        0.00010760        0.00000847        0.00002734        0.00004493
      47         -0.851643        1.000000        0.00011295        0.00001088        0.00002734        0.00004479
      48         -0.851533        1.000000        0.00002821        0.00000283        0.00001539        0.00000464
      49         -0.851244        1.000000        0.00002176        0.00000134        0.00000997        0.00001890
      50         -0.850199        1.000000        0.00001768        0.00000033        0.00000217        0.00000908
      51         -0.847500        1.000000        0.00003375        0.00000403        0.00001209        0.00001482
      52         -0.847172        1.000000        0.00198719        0.00016469        0.00104454        0.00035160
      53         -0.846995        1.000000        0.00002058        0.00000044        0.00000436        0.00002215
      54         -0.845933        1.000000        0.00004316        0.00000585        0.00000923        0.00002200
      55         -0.845692        1.000000        0.00004035        0.00000522        0.00000768        0.00001510
      56         -0.844532        1.000000        0.00031158        0.00000422        0.00002403        0.00020779
      57         -0.844409        1.000000        0.00022723        0.00002062        0.00011276        0.00004455
      58         -0.843039        1.000000        0.00021112        0.00002420        0.00003148        0.00009754
      59         -0.842836        1.000000        0.00003891        0.00000380        0.00000930        0.00004097
      60         -0.842661        1.000000        0.00005931        0.00001204        0.00000502        0.00002483
      61         -0.841170        1.000000        0.00019601        0.00000330        0.00001330        0.00013367
      62         -0.841000        1.000000        0.00065657        0.00006026        0.00030309        0.00012964
      63         -0.840375        1.000000        0.00041193        0.00004240        0.00018130        0.00012277
      64         -0.839248        1.000000        0.00088671        0.00007465        0.00022984        0.00032673
      65         -0.838900        1.000000        0.00000223        0.00000017        0.00000053        0.00000082
      66         -0.838675        1.000000        0.00042280        0.00003425        0.00013718        0.00013068
      67         -0.837363        1.000000        0.00011882        0.00000364        0.00000117        0.00008587
      68         -0.836400        1.000000        0.00000180        0.00000019        0.00000030        0.00000086
      69         -0.836101        1.000000        0.00000897        0.00000098        0.00000227        0.00000320
      70         -0.835220        1.000000        0.00026633        0.00001959        0.00011995        0.00006534
      71         -0.834135        1.000000        0.00076936        0.00003960        0.00030484        0.00024278
      72         -0.833769        1.000000        0.00144061        0.00010870        0.00062701        0.00028719
      73         -0.832971        1.000000        0.00000038        0.00000003        0.00000016        0.00000011
      74         -0.832098        1.000000        0.00000003        0.00000000        0.00000000        0.00000002
      75         -0.831653        1.000000        0.00027543        0.00000140        0.00001873        0.00017549
      76         -0.830225        1.000000        0.00148055        0.00000840        0.00022512        0.00082921
      77         -0.829025        1.000000        0.01204009        0.00088984        0.00485977        0.00236726
      78         -0.827050        1.000000        0.01310548        0.00002969        0.00050872        0.00818331
      79         -0.826656        1.000000        0.00403270        0.00003652        0.00048162        0.00220779
      80         -0.826471        1.000000        0.00029405        0.00000188        0.00005958        0.00014271
      81         -0.826126        1.000000        0.00437180        0.00001516        0.00123000        0.00187519
      82         -0.825827        1.000000        0.00003447        0.00000230        0.00001334        0.00000717
      83         -0.824011        1.000000        0.00014516        0.00000015        0.00000062        0.00009266
      84         -0.823182        1.000000        0.00263435        0.00005978        0.00073944        0.00099200
      85         -0.822943        1.000000        0.00253311        0.00002194        0.00012171        0.00147466
      86         -0.822544        1.000000        0.00345220        0.00001718        0.00126597        0.00122677
      87         -0.820947        1.000000        0.00000547        0.00000742        0.00000462        0.00000171
      88         -0.820165        1.000000        0.03158095        0.00204284        0.01157318        0.00628197
      89         -0.818829        1.000000        0.00090895        0.00005129        0.00032546        0.00019761
      90         -0.818596        1.000000        0.00000478        0.00000003        0.00000030        0.00000271
      91         -0.818032        1.000000        0.00049047        0.00000009        0.00000025        0.00030182
      92         -0.817099        1.000000        0.00000881        0.00000003        0.00000327        0.00000285
      93         -0.816173        1.000000        0.00584540        0.00000994        0.00213071        0.00177062
      94         -0.815175        1.000000        0.00167746        0.00006433        0.00060129        0.00038684
      95         -0.814441        1.000000        0.00053215        0.00001202        0.00005491        0.00025470
      96         -0.814428        1.000000        0.01341459        0.00001183        0.00020635        0.00781907
      97         -0.813532        1.000000        0.01607944        0.00002849        0.00033822        0.00919410
      98         -0.812905        1.000000        0.00176522        0.00002002        0.00045071        0.00065024
      99         -0.812603        1.000000        0.00136100        0.00003917        0.00045203        0.00035905
     100         -0.809917        1.000000        0.00199738        0.00003103        0.00083545        0.00044927
     101         -0.807002        1.000000        0.00000319        0.00000017        0.00000050        0.00000103
     102         -0.805596        1.000000        0.01027284        0.00001332        0.00019723        0.00550375
     103         -0.805254        1.000000        0.01303862        0.00068856        0.00400638        0.00262096
     104         -0.804171        1.000000        0.00290945        0.00000490        0.00094743        0.00076222
     105         -0.804077        1.000000        0.00761391        0.00000700        0.00246666        0.00198536
     106         -0.802007        1.000000        0.01549338        0.00003848        0.00002119        0.00832095
     107         -0.801943        1.000000        0.00000001        0.00000000        0.00000001        0.00000001
     108         -0.798942        1.000000        0.00000449        0.00000051        0.00000116        0.00000112
     109         -0.798303        1.000000        0.00002803        0.00000001        0.00000200        0.00001299
     110         -0.797939        1.000000        0.04050684        0.00001725        0.01222042        0.01004020
     111         -0.796589        1.000000        0.00000029        0.00000000        0.00000002        0.00000013
     112         -0.793300        1.000000        0.00070765        0.00000024        0.00005877        0.00029727
     113         -0.792822        1.000000        0.00842028        0.00037821        0.00222194        0.00167403
     114         -0.792099        1.000000        0.00049209        0.00000209        0.00015266        0.00014419
     115         -0.791326        1.000000        0.00008446        0.00000417        0.00002205        0.00001801
     116         -0.790882        1.000000        0.00000782        0.00000228        0.00000326        0.00000686
     117         -0.787013        1.000000        0.00000001        0.00000000        0.00000000        0.00000000
     118         -0.786189        1.000000        0.00000072        0.00000023        0.00000151        0.00000033
     119         -0.786024        1.000000        0.00000003        0.00000000        0.00000001        0.00000000
     120         -0.785316        1.000000        0.00000000        0.00000000        0.00000000        0.00000000
     121         -0.780389        1.000000        0.00061668        0.00000353        0.00026549        0.00015997
     122         -0.769286        1.000000        0.00000000        0.00000026        0.00000018        0.00000000
     123         -0.762696        1.000000        0.00000002        0.00000001        0.00000001        0.00000001
     124         -0.756801        1.000000        0.00001252        0.00000004        0.00000284        0.00000178
     125         -0.622144        1.000000        0.43936267        0.00000600        0.00010418        0.00130615
     126         -0.617617        1.000000        0.43768236        0.00009923        0.00005928        0.00179117
     127         -0.617276        1.000000        0.43520226        0.00011371        0.00007659        0.00282153
     128         -0.616194        1.000000        0.43923938        0.00002506        0.00006330        0.00089858
     129         -0.584757        1.000000        0.42724797        0.00004942        0.00008124        0.00613633
     130         -0.583497        1.000000        0.43006322        0.00070233        0.00258970        0.00241813
     131         -0.575245        1.000000        0.42712336        0.00001595        0.00379279        0.00307731
     132         -0.561274        1.000000        0.00004024        0.00000050        0.00000325        0.00000006
     133         -0.557786        1.000000        0.00234512        0.00000077        0.00005170        0.00006229
     134         -0.551188        1.000000        0.00003659        0.00031366        0.00025625        0.00004489
     135         -0.538685        1.000000        0.00050731        0.00160837        0.00008451        0.00023536
     136         -0.532498        1.000000        0.00099146        0.00071729        0.00094325        0.00027289
     137         -0.532375        1.000000        0.00037397        0.00034996        0.00040676        0.00011825
     138         -0.529096        1.000000        0.00075617        0.00240643        0.00119702        0.00009970
     139         -0.524995        1.000000        0.00010309        0.00163457        0.00507358        0.00021479
     140         -0.524289        1.000000        0.00063572        0.00321467        0.00064398        0.00094925
     141         -0.522027        1.000000        0.00038451        0.00842723        0.00151983        0.00007798
     142         -0.520755        1.000000        0.00017933        0.00215826        0.00184057        0.00069542
     143         -0.518315        1.000000        0.00058479        0.00048463        0.00357761        0.00119594
     144         -0.517984        1.000000        0.00034588        0.00137837        0.00250569        0.00018083
     145         -0.516599        1.000000        0.00028960        0.00026135        0.00035434        0.00041113
     146         -0.516303        1.000000        0.00047770        0.00051948        0.00105814        0.00047133
     147         -0.516249        1.000000        0.00051201        0.00194625        0.00177274        0.00024480
     148         -0.514277        1.000000        0.00035953        0.00148114        0.00035729        0.00041527
     149         -0.513486        1.000000        0.00018244        0.00063162        0.00351868        0.00044094
     150         -0.513116        1.000000        0.00021901        0.00033302        0.00409224        0.00033494
     151         -0.511563        1.000000        0.00028968        0.00048441        0.00115688        0.00016332
     152         -0.511090        1.000000        0.00030702        0.00035720        0.00311853        0.00028825
     153         -0.509720        1.000000        0.00042276        0.00093001        0.00091923        0.00028247
     154         -0.507696        1.000000        0.00029459        0.00039558        0.00272844        0.00079873
     155         -0.506162        1.000000        0.00019091        0.00079510        0.00037568        0.00011879
     156         -0.505742        1.000000        0.00006227        0.00060069        0.00003179        0.00002478
     157         -0.505479        1.000000        0.00021011        0.00055333        0.00047281        0.00003625
     158         -0.504985        1.000000        0.00005607        0.00017172        0.00050523        0.00012641
     159         -0.501193        1.000000        0.00037014        0.00304981        0.00033111        0.00007894
     160         -0.500836        1.000000        0.00028494        0.00091721        0.00086149        0.00008679
     161         -0.500056        1.000000        0.00020047        0.00050414        0.00023655        0.00006027
     162         -0.498111        1.000000        0.00012835        0.00196606        0.00202293        0.00036139
     163         -0.496566        1.000000        0.00007012        0.03816489        0.01369513        0.00035977
     164         -0.496209        1.000000        0.00007094        0.00176566        0.00216256        0.00039701
     165         -0.493706        1.000000        0.00005228        0.00041150        0.00052152        0.00012407
     166         -0.493473        1.000000        0.00009869        0.01640358        0.00068008        0.00009153
     167         -0.493105        1.000000        0.00012115        0.02536667        0.01588192        0.00177707
     168         -0.492559        1.000000        0.00002351        0.00076010        0.00060366        0.00011578
     169         -0.490822        1.000000        0.00008719        0.02575873        0.02085127        0.00312713
     170         -0.490627        1.000000        0.00001150        0.00015432        0.00039688        0.00006061
     171         -0.487525        1.000000        0.00000862        0.02985945        0.02304018        0.00106295
     172         -0.485502        1.000000        0.00003305        0.00877177        0.04386785        0.00116584
     173         -0.481436        1.000000        0.00007027        0.03139212        0.02901674        0.00215819
     174         -0.480184        1.000000        0.00026479        0.02960804        0.02956333        0.00024266
     175         -0.477066        1.000000        0.00009104        0.02615441        0.04193940        0.00178985
     176         -0.473164        1.000000        0.00000689        0.00002018        0.00017341        0.00001044
     177         -0.467152        1.000000        0.00000379        0.00016031        0.00031638        0.00006021
     178         -0.463716        1.000000        0.00001237        0.00000434        0.00000039        0.00006268
     179         -0.463004        1.000000        0.00000110        0.00003401        0.00004810        0.00000430
     180         -0.459201        1.000000        0.00001890        0.00002892        0.00000123        0.00010360
     181         -0.457024        1.000000        0.00000902        0.00238732        0.01838442        0.00000176
     182         -0.455717        1.000000        0.00000249        0.00273152        0.03627292        0.00003171
     183         -0.455158        1.000000        0.00002085        0.00319989        0.00370171        0.00002244
     184         -0.454561        1.000000        0.00000255        0.06068159        0.00743353        0.00034527
     185         -0.454301        1.000000        0.00000463        0.00003917        0.00005517        0.00001622
     186         -0.453384        1.000000        0.00000510        0.00008598        0.00001217        0.00000123
     187         -0.449521        1.000000        0.00002900        0.00024946        0.00001772        0.00000261
     188         -0.448616        1.000000        0.00000023        0.00000230        0.00000517        0.00002853
     189         -0.447967        1.000000        0.00000001        0.00000003        0.00000094        0.00000731
     190         -0.447118        1.000000        0.00003827        0.00083304        0.00005004        0.00000716
     191         -0.445540        1.000000        0.00007013        0.04321520        0.01447559        0.01899238
     192         -0.445081        1.000000        0.00000096        0.00065883        0.00009853        0.00001310
     193         -0.444285        1.000000        0.00000129        0.00001106        0.00007947        0.00004134
     194         -0.443594        1.000000        0.00000022        0.00000270        0.00000050        0.00000280
     195         -0.442760        1.000000        0.00000373        0.00022813        0.00001790        0.00003446
     196         -0.442073        1.000000        0.00003805        0.03887671        0.00067672        0.00033600
     197         -0.441324        1.000000        0.00026251        0.00129992        0.02652863        0.04115074
     198         -0.441164        1.000000        0.00000186        0.01956332        0.00109514        0.00010792
     199         -0.439664        1.000000        0.00001607        0.00160520        0.00032521        0.00003083
     200         -0.437035        1.000000        0.00016579        0.00097798        0.00012374        0.00056818
     201         -0.436608        1.000000        0.00000314        0.00010187        0.00000808        0.00001816
     202         -0.436544        1.000000        0.00001114        0.00005623        0.00007186        0.00011814
     203         -0.435379        1.000000        0.00000003        0.00000306        0.00000484        0.00001906
     204         -0.434699        1.000000        0.00047159        0.00072734        0.01292126        0.00123264
     205         -0.434600        1.000000        0.00000052        0.00001342        0.00001997        0.00004512
     206         -0.433733        1.000000        0.00000009        0.00000730        0.00000545        0.00000168
     207         -0.433671        1.000000        0.00000092        0.00001767        0.00002643        0.00003634
     208         -0.433291        1.000000        0.00000025        0.00000113        0.00002256        0.00000354
     209         -0.432129        1.000000        0.00002562        0.00059730        0.00004827        0.00009399
     210         -0.431490        1.000000        0.00002568        0.00081211        0.00000144        0.00010578
     211         -0.431352        1.000000        0.00030863        0.01018794        0.00000160        0.00129625
     212         -0.429644        1.000000        0.00000071        0.00001955        0.00002964        0.00011935
     213         -0.429374        1.000000        0.00041167        0.02649104        0.01664109        0.02644611
     214         -0.428953        1.000000        0.00000335        0.00024798        0.00014643        0.00023198
     215         -0.427441        1.000000        0.00000140        0.00005757        0.00017326        0.00075298
     216         -0.426052        1.000000        0.00001412        0.00000221        0.00005717        0.00009571
     217         -0.425710        1.000000        0.00000024        0.00000149        0.00012399        0.00077181
     218         -0.425523        1.000000        0.00000145        0.00000944        0.00001557        0.00010475
     219         -0.425141        1.000000        0.00000021        0.00006337        0.00001392        0.00000532
     220         -0.424790        1.000000        0.00000150        0.00001024        0.00000618        0.00001192
     221         -0.424715        1.000000        0.00003931        0.00022609        0.00060193        0.00043197
     222         -0.424122        1.000000        0.00007942        0.00077396        0.00019935        0.00034021
     223         -0.423521        1.000000        0.00001601        0.00002612        0.00003856        0.00027267
     224         -0.422994        1.000000        0.00000229        0.00002718        0.00000323        0.00002611
     225         -0.422558        1.000000        0.00000231        0.00083035        0.00040543        0.00048546
     226         -0.422318        1.000000        0.00011968        0.00001445        0.00086521        0.00648771
     227         -0.422069        1.000000        0.00000748        0.00008099        0.00004375        0.00005166
     228         -0.421995        1.000000        0.00001017        0.00017481        0.00027652        0.00171364
     229         -0.421688        1.000000        0.00000469        0.00014341        0.00006400        0.00009137
     230         -0.421338        1.000000        0.00000248        0.00000215        0.00002135        0.00001357
     231         -0.421125        1.000000        0.00001566        0.00005179        0.00004140        0.00022362
     232         -0.420934        1.000000        0.00027320        0.00420581        0.00069807        0.00123093
     233         -0.420581        1.000000        0.00000538        0.00002876        0.00004004        0.00034293
     234         -0.420485        1.000000        0.00000252        0.00001502        0.00007948        0.00021057
     235         -0.419931        1.000000        0.00003549        0.00062511        0.00007946        0.00023620
     236         -0.419636        1.000000        0.00001845        0.00002339        0.00000265        0.00015393
     237         -0.419357        1.000000        0.00000370        0.00165493        0.00102731        0.00068488
     238         -0.418787        1.000000        0.00000188        0.00031138        0.00022759        0.00009150
     239         -0.418005        1.000000        0.00004036        0.00000338        0.00046148        0.00014315
     240         -0.417469        1.000000        0.00001619        0.00006420        0.00002240        0.00023470
     241         -0.417442        1.000000        0.00000088        0.00003220        0.00019201        0.00022246
     242         -0.416733        1.000000        0.00003379        0.00056288        0.00038930        0.00481526
     243         -0.416324        1.000000        0.00000406        0.00015160        0.00056005        0.00078372
     244         -0.416213        1.000000        0.00000085        0.00000098        0.00000659        0.00000420
     245         -0.415925        1.000000        0.00000862        0.00028936        0.00006533        0.00015834
     246         -0.415575        1.000000        0.00000056        0.00001003        0.00000369        0.00000742
     247         -0.413707        1.000000        0.00003476        0.00006176        0.00005247        0.00184972
     248         -0.413583        1.000000        0.00006448        0.00250884        0.00088455        0.00244498
     249         -0.413373        1.000000        0.00001657        0.00017550        0.00009012        0.00011815
     250         -0.412969        1.000000        0.00000161        0.00000204        0.00000076        0.00004029
     251         -0.412679        1.000000        0.00004826        0.00029815        0.00018943        0.00115236
     252         -0.411686        1.000000        0.00017982        0.00107513        0.00043974        0.00409475
     253         -0.411650        1.000000        0.00001693        0.00001779        0.00055911        0.00032450
     254         -0.411185        1.000000        0.00002776        0.00001441        0.00010966        0.00028092
     255         -0.410792        1.000000        0.00006225        0.00001724        0.00003317        0.00343845
     256         -0.409654        1.000000        0.00002102        0.00000958        0.00014383        0.00070116
     257         -0.409398        1.000000        0.00026581        0.00295580        0.00386480        0.00173633
     258         -0.409046        1.000000        0.00001885        0.00022141        0.00031649        0.00019181
     259         -0.408732        1.000000        0.00000636        0.00005339        0.00002470        0.00038001