    3625
 i =      237, E =    -19845.2441952360
  I        12.3941815357       12.7572203025        9.0908325862
  I        19.1403974283       13.3696673888        9.0178786745
  I        25.0997659800       12.8004888996        9.2270826862
  I        31.0257317426       13.3936587407        9.0511708446
  I        12.9774531770       19.2715100838        8.9739711132
  I        18.7164340497       19.0791814386        8.9594096894
  I        25.1400211572       19.1013115778        9.1071939860
  I        30.8701436595       19.2678724512        9.1512291519
  I        12.8192258677       25.4787044539        9.1675278425
  I        18.5377152816       25.4299643804        9.0002640870
  I        25.0403898916       25.3125411197        9.0313488461
  I        30.8066015401       25.3932758990        9.2111632991
  I        12.1625372112       31.8507220159        9.2470168375
  I        19.4360661450       31.7884931524        9.1866120799
  I        24.9576703154       31.7417756956        9.1551793456
  I        30.7434605749       31.5230869916        9.1007965705
  I        12.7114215503        9.2258167593       12.4359406953
  I        18.6179667669        9.5270454040       13.1202349168
  I        24.7918566943        9.4214497195       12.8522270868
  I        31.5254959547        9.8330618223       12.3019784014
  I         9.6601506448       11.5354463281       12.4693271431
  I        12.5106527466       12.8205764931       15.5977264343
  I        11.7608309820       15.9193189284       12.1359541411
  I        15.7286995626       12.6528101738       11.8557031206
  I        18.5484854017       11.7008443534       15.5103798499
  I        18.4246614825       15.8412552182       12.8875122939
  I        22.0219302536       13.0110630942       12.5840848135
  I        25.2953020228       12.8114955904       15.7774525035
  I        25.7186263641       15.8937348262       12.4053128352
  I        28.3386184860       12.5184113489       12.5046015858
  I        31.1840926642       12.9342017027       15.7425373251
  I        30.8716065729       16.1153834148       12.7338153816
  I        34.7196495652       13.7345517399       12.3066533060
  I         8.8699072667       19.1202653427       13.3407251736
  I        12.4177352663       18.9309455297       15.4701733301
  I        11.8670645901       22.1078052689       12.2314406160
  I        15.8314722854       19.3828412840       12.3309385819
  I        18.8187779785       19.0294889166       15.5018940007
  I        19.6208030379       22.1917866513       12.3032487916
  I        22.1584155947       18.2400630925       12.2194909576
  I        25.0724889598       18.9682483239       15.6091012543
  I        24.6898803061       22.2045235150       12.5861595181
  I        28.4666722858       19.7212031082       12.6213716537
  I        31.6117897981       19.1588053335       15.6157438331
  I        31.9130376962       22.3220312658       12.5445355233
  I        35.1009171964       19.1441193777       12.5583045523
  I         9.3317427763       25.5058644841       12.4181713850
  I        12.4880272173       25.2739924991       15.6095912721
  I        12.7689066357       28.6339522084       12.5609102637
  I        15.7811620425       24.5978382709       12.3974988099
  I        18.8525139834       25.2974805821       15.5462858209
  I        18.1557422892       28.6033896489       12.3836558670
  I        22.0659198005       26.0241131079       12.2225897603
  I        24.9896994805       25.3275174474       15.5787384026
  I        25.8393879098       28.5881755093       12.3120932965
  I        28.3943646432       24.8537305783       12.7731821141
  I        31.7011222177       25.5160085724       15.6571461181
  I        31.1900274772       28.6882777396       12.5324732794
  I        34.8594061447       25.5970835087       12.1764912372
  I         9.2442920998       31.9195883359       12.6612572503
  I        12.3001814948       31.7804156286       15.8131560310
  I        12.2689256794       35.2786917916       12.6647925782
  I        15.7747471688       32.4677326207       11.8502386746
  I        18.8094368214       31.4955509227       15.6581957846
  I        19.2266395166       35.1408896026       13.0170219213
  I        22.0643366258       31.1802519510       12.5982176349
  I        25.1731577326       31.5562956869       15.6921469459
  I        24.7187634353       35.3776931339       12.8392095715
  I        28.2439165920       32.1375318244       12.5758732693
  I        31.3295248008       31.4511957486       15.6687688891
  I        31.0106595021       35.3296303363       12.8395526374
  I        34.7056073331       31.6183651773       12.2729118218
  I        12.8533573541        9.5503698062       19.2433185262
  I        18.7786112477        9.2170426414       19.2840651500
  I        25.3306222480        9.3298890016       19.1116935441
  I        31.2248168728        9.7120006368       18.9915415882
  I         9.5465085847       13.2372946039       18.8974330189
  I        12.8237534682       12.8704530451       22.0275586879
  I        13.0792255397       15.9247478609       18.9124412755
  I        15.8773808835       12.6295524211       18.5337613917
  I        19.1338224819       12.8111638619       21.9985417616
  I        18.8715728971       15.7691318562       18.8967137940
  I        22.1499758559       12.6053487510       18.4243726145
  I        24.7910946573       12.5958373172       22.1451062473
  I        25.3292192104       15.7942155782       19.1063530082
  I        28.5501464421       12.7867543556       19.2515914502
  I        31.8480843104       12.9510805647       22.2475321746
  I        31.8952495772       15.8178824096       18.9161446707
  I        36.2471270504       14.0781819596       19.1758147037
  I         9.2339232580       18.6978261061       18.5234641651
  I        12.7133650064       18.9933297673       22.0269783110
  I        12.1715085227       22.2608281300       19.0264574035
  I        15.7731616665       19.4473257396       18.5280730114
  I        18.9548926522       18.9997782058       21.9745743283
  I        19.3972253088       22.2206253266       18.8802490439
  I        22.2155869807       18.7766343185       18.6887918117
  I        25.3582327574       19.0124878805       22.0335924045
  I        25.1859723004       22.2015835839       19.0111027637
  I        28.7139876945       19.0402206792       18.6789948398
  I        31.8049725428       19.1099554105       22.0122151417
  I        32.0563485357       22.2230686029       18.7867776809
  I        35.4976389444       19.0227977859       18.6955568812
  I         9.2898981424       25.8153332497       18.5962751739
  I        12.6543965562       25.3094519134       22.0571553766
  I        12.8844775974       28.7056458998       19.0107175636
  I        15.8096718150       25.0428139748       18.6269505129
  I        18.8728223294       25.2779517023       22.0253791355
  I        18.7431333709       28.6680786347       19.0724555186
  I        22.2395058448       25.8450184552       18.7769260687
  I        25.3846666167       25.3457350827       22.0180017077
  I        25.7606820316       28.6654418383       18.8538647382
  I        28.6976349980       25.1359405874       18.6097079992
  I        31.6446116751       25.1722673401       22.0068307091
  I        31.4572565523       28.6157118301       19.2179664360
  I        35.4891926600       25.2835920901       18.6662079762
  I         9.3139775871       31.6461233435       19.1390652262
  I        13.0502247675       31.4822112698       22.1363185375
  I        12.4939206302       35.6200432570       19.2869948296
  I        15.7475845497       32.0810447328       18.7076210667
  I        18.9499258395       31.5785878490       22.1171100896
  I        18.5859167164       35.3673494605       19.0387968463
  I        22.2113250073       31.9101437374       18.8800788766
  I        25.2494212961       31.4797488620       22.0822337272
  I        25.1706862054       35.2957089306       19.1554026992
  I        28.8074775374       32.4128159460       18.9707237210
  I        32.2557079313       32.0615915247       21.9582983038
  I        30.6574759165       36.8114624354       20.5591671286
  I        35.6330399763       30.5595354381       19.0445676629
  I        13.4613302889        9.2020829690       24.9602658226
  I        18.8256064270        9.2923040572       25.4941989029
  I        25.7286851692        9.3675231788       25.4032342080
  I        30.9617940882        9.4092731973       25.5059285940
  I         9.7428555419       13.1256744588       25.1256148818
  I        12.7623450747       12.4318940917       28.4385572501
  I        12.8956150612       15.7576647256       25.5390694644
  I        16.0989910984       12.9807769443       24.9712425962
  I        18.8706553817       12.8064628702       28.4660203671
  I        19.5657155226       15.8146461255       25.2532963762
  I        22.4050202539       12.3077985468       25.5770080008
  I        25.8340866871       12.9673479478       28.4170571103
  I        25.2700095579       15.8604611318       25.3738721117
  I        28.6598315579       12.9831782196       24.6531570429
  I        31.3949768285       13.0236388212       28.4203403495
  I        32.0398944114       15.8310679568       25.3966960667
  I        35.7956400575       13.2790923884       24.9258596999
  I         9.7836326383       19.0371790925       25.3948681342
  I        12.9513845953       18.9903507513       28.5406590423
  I        12.9469988473       22.1792651934       25.4406660329
  I        16.1491495345       18.8478327977       25.0875499890
  I        19.2080028270       18.9997575027       28.4621142737
  I        18.9929208098       22.2322791863       25.4325948487
  I        22.4864299840       19.4311771502       25.0973227639
  I        25.5257966446       19.0786499386       28.4740328418
  I        25.9506194116       22.2229230243       25.2326572520
  I        28.9237952327       18.8664369501       25.1221554931
  I        32.0339837845       19.1942836055       28.4615828471
  I        32.1793238452       22.2049861665       25.1819324227
  I        35.6982030146       18.9967313626       25.1245301746
  I         9.2883610281       25.2327426752       25.0157401342
  I        12.5274161875       25.2549380795       28.5205469924
  I        12.4750026963       28.6338821944       25.5925062553
  I        15.9107768486       25.6536954844       25.1719753102
  I        19.2375821729       25.3712555232       28.4877448328
  I        19.3175109668       28.6930445158       25.3254697902
  I        22.4321200174       25.2417536462       25.0389743452
  I        25.5017626997       25.2611245652       28.4748744171
  I        25.4386352275       28.6304117531       25.3979572818
  I        28.9599900204       25.6372875772       25.1772120444
  I        31.9658230111       25.1391654720       28.4248108340
  I        32.2924514089       28.6708682820       24.8788157822
  I        35.6647412848       25.2143329082       24.9524387463
  I         9.5023110622       31.9280345331       24.5940810053
  I        11.8810007331       32.0544563200       28.3579819236
  I        12.7224410797       35.2000580658       25.0143572512
  I        15.8700304479       31.7638228193       25.6145811263
  I        19.2493437260       31.5136131471       28.5269974912
  I        18.2931325650       35.7085217636       25.3795647248
  I        22.3192098976       32.1015886701       25.2831044166
  I        25.6897005016       31.4695102595       28.4979572097
  I        25.1490612304       35.2964570814       25.3341684700
  I        28.8731741491       31.8313143908       24.9781677215
  I        31.6636606062       31.2301505471       28.2638447641
  I        30.5557604171       36.4590949868       25.3832840205
  I        35.9091660896       31.0380518199       25.4370098830
  I        13.0581626900        9.7599599262       32.0891057501
  I        19.3159912140        9.8357002817       31.8587692299
  I        25.7663432032        9.5812269647       31.2196144845
  I        31.1917957993        9.6429397332       31.7444095211
  I         9.7789186776       13.2257080311       31.3543325822
  I        12.8648489411       13.2024171095       35.0812231248
  I        12.7526998187       16.2189872338       32.0594914984
  I        16.0388825351       13.2390382908       31.4031802394
  I        20.1488769300       13.3656318829       35.0039142980
  I        19.1388764941       16.1351270185       31.8284398907
  I        22.4338846402       13.0644748105       30.9942257927
  I        25.2927255889       12.7026752601       35.0070779836
  I        25.6562851669       15.9905172889       31.7295442357
  I        28.7362946091       13.1908439956       31.5022184110
  I        31.0204703437       13.2057605572       34.9004386111
  I        32.2312133455       15.9284452677       31.5090630357
  I        35.3792770692       12.3805885287       30.2591127755
  I         9.6686874655       19.3937502168       31.1865669310
  I        13.1954637114       19.5319633443       35.0940808246
  I        12.2098609298       22.4964878410       32.0851556905
  I        16.2264182801       19.4770989996       31.5076828115
  I        19.6151361689       19.2563950553       35.2006231053
  I        19.6344286380       22.3060338075       31.6231662727
  I        22.6685521372       19.1525683201       31.5088671766
  I        25.9896222179       19.2018964119       35.1910177653
  I        26.0132871646       22.2632771610       31.6140531201
  I        29.1195649493       19.0983788286       31.4204935384
  I        31.8677373349       19.1224820715       35.0950383375
  I        32.5871196478       22.2604067195       32.0639592844
  I        35.7931049504       18.9494829985       31.4545426672
  I         9.8656266327       26.0494963428       31.8132696118
  I        13.4340783033       25.4559614618       35.0192882967
  I        13.6628795133       28.6206139908       31.2533843834
  I        16.2067347489       24.9367951840       31.3691490559
  I        19.4047817897       25.2374178957       35.1983213866
  I        19.1389758586       28.5921915037       31.9213740611
  I        22.6369855686       25.4752777827       31.5964305278
  I        25.9269781033       25.2022622638       35.1808665144
  I        25.6389150694       28.5709925120       31.7835519112
  I        29.1572590411       25.6550415081       31.6602643215
  I        32.4208047398       25.8100075862       34.9890031169
  I        32.8049131726       28.5830394998       31.3435825741
  I        35.7736068344       25.3047720224       31.4739397716
  I         9.8695202263       31.2025510372       31.2817157236
  I        13.1514022351       31.2111018124       34.8430530523
  I        12.8860203688       35.0058214067       31.8421193346
  I        16.2638930481       31.9318070986       31.3675219783
  I        20.0311949358       31.6807243857       35.1000960097
  I        19.7095036437       35.0505354097       31.4199738483
  I        22.6326268095       31.5563427557       31.2095671568
  I        25.2348046507       31.3813215777       35.0973851288
  I        25.4408767530       35.3511270008       31.4133595668
  I        28.9965598610       31.1019854595       31.1515932710
  I        30.7695228447       31.5461583747       34.3880202809
  I        30.5027357293       36.1503822534       30.8837855551
  I        35.6194926535       32.4148921802       29.9516452755
 Pb        12.4854257031       12.8556378171       12.1924018281
 Pb        18.8778475850       12.9175095379       12.0685520989
 Pb        25.2015764005       12.4896565522       12.3713213394
 Pb        31.5818480115       12.9753272691       12.0987768710
 Pb        12.8232948250       19.1925374543       12.0799271918
 Pb        19.2395908550       19.1202319213       12.2728940811
 Pb        25.4617953274       19.0560523090       12.3085555337
 Pb        31.8997248542       19.1381595332       12.3855103509
 Pb        12.5553982416       25.5522560255       12.3051352576
 Pb        18.8384500790       25.5366675799       12.2000768167
 Pb        25.2680954054       25.4730150668       12.2913528374
 Pb        31.5796293332       25.4949650037       12.3662706586
 Pb        12.3112492103       32.1790081348       12.3743345858
 Pb        18.8907676056       32.0546752572       12.2896726293
 Pb        25.0486027899       32.1602746067       12.3043401483
 Pb        31.4194858290       31.9893011660       12.2180904238
 Pb        12.6366614907       12.6132498134       18.8524051370
 Pb        19.1029206908       12.3511032460       18.9017991255
 Pb        25.5583429939       12.4695933517       19.0685962188
 Pb        32.8388670320       12.3040126447       18.3045945696
 Pb        12.6128751814       19.0229000449       18.7823580766
 Pb        19.1462094792       18.9398191256       18.8257878495
 Pb        25.6596802771       18.9656876156       18.8580001157
 Pb        32.4260821551       18.8611940361       18.8471225431
 Pb        12.6052329764       25.5009712067       18.8348144580
 Pb        19.1491409424       25.3821020969       18.8174876402
 Pb        25.6455862277       25.3902115691       18.8235307184
 Pb        32.4031827754       25.3034606841       18.8244005035
 Pb        12.4758561871       32.1821324520       18.9457802170
 Pb        19.0569990235       31.8782105270       18.8766258278
 Pb        25.7106641827       31.9254385558       18.8933529293
 Pb        32.6633316762       31.4388609504       18.8603915854
 Pb        12.8719753987       12.4274638290       25.3068087291
 Pb        19.2446207401       12.4055802317       25.4181159687
 Pb        25.7083252193       12.4927913295       25.3077149908
 Pb        32.7268836184       12.3581447311       25.5592423395
 Pb        12.9010558748       18.9704653197       25.3842402513
 Pb        19.4015387029       18.9260735769       25.3540844754
 Pb        25.8455652249       18.9542281201       25.3492003725
 Pb        32.5998810424       18.8870234771       25.3099348674
 Pb        12.7537695830       25.4507112611       25.3635896249
 Pb        19.3488112407       25.3307356873       25.3500674102
 Pb        25.8917643698       25.3362296393       25.3549253905
 Pb        32.5598996321       25.3162935942       25.2468452134
 Pb        12.6607606417       32.0762733948       25.2357024354
 Pb        19.2110048622       31.7977428102       25.4016924709
 Pb        25.8041887214       31.7585670898       25.3456790750
 Pb        32.9012428041       31.7706925217       25.4896383671
 Pb        12.8857774044       12.8541014765       31.9816497678
 Pb        19.5121282917       12.9408040498       32.0235511038
 Pb        25.6640098222       12.7266670086       31.8468720259
 Pb        32.6972358964       12.4775549497       31.9016814017
 Pb        13.0965565259       19.3290239466       31.9382470095
 Pb        19.5832195719       19.2078278260       32.1428669291
 Pb        25.9705678034       19.0875370646       32.1056914804
 Pb        32.3922047094       18.9714696710       31.9058401801
 Pb        13.0969962324       25.6192985115       31.9394604803
 Pb        19.5153108715       25.4567666388       32.1032523076
 Pb        26.0248817192       25.3481318755       32.1035305718
 Pb        32.6009222363       25.4104932451       31.8591038308
 Pb        13.1175121712       31.8933435337       31.8436628709
 Pb        19.5967838469       31.9072961509       32.0273895788
 Pb        25.8160300045       31.6708375482       32.0597750367
 Pb        33.0655305915       31.7650108672       31.6138634954
  C        15.5029673606       15.8704038409        9.0733514753
  C        22.0043732078       16.1031019800        8.7133577693
  C        27.7718101569       15.9902019120        9.0429978331
  C        15.6546728161       22.2779001089        9.0456378580
  C        21.7629800549       22.0702950902        8.9650215963
  C        27.8108971101       22.2024683188        9.2914842848
  C        15.4107293211       28.7399016858        9.0425553085
  C        21.9410513869       28.3074201298        9.0273135632
  C        27.8166678037       28.4045689889        8.8887010656
  C        15.0847305897        9.4672023351       15.3434224104
  C        22.0829697653        9.7214436541       15.6263922036
  C        28.0878059537        9.6448249085       15.5033849950
  C         9.3402259545       15.7426382525       15.4940339578
  C        15.4263145686       15.9037905934       15.5194466871
  C        21.9155607587       15.8727513939       15.4979044061
  C        28.0581559245       16.0003298936       15.4998399882
  C        34.5381612561       16.3168922155       15.5053949694
  C         9.3954438158       22.2013019425       15.5180862714
  C        15.6638125117       22.1117568469       15.4239843899
  C        21.8924741797       22.1162658429       15.4445715908
  C        28.1020677380       22.1171641495       15.6270675372
  C        34.4678483959       22.4349973445       15.4766911217
  C         9.4566005637       28.4058335231       15.4879678671
  C        15.6279204975       28.3969262701       15.5034358284
  C        21.9106955493       28.4203654161       15.3957241605
  C        28.0781319791       28.2867519105       15.4815057781
  C        34.5654912187       28.6718246275       15.3627179619
  C        15.5913197154       34.6548080611       15.6038627428
  C        21.9333078848       34.5120602992       15.7547408539
  C        27.8794643663       34.5436070603       15.6898116007
  C        15.7201816476        9.7923316635       21.9047572316
  C        21.9341717404        9.5312293834       22.0349709231
  C        28.3868108360        9.6383132756       21.9879796824
  C         9.6459376943       15.9990759719       21.9199840615
  C        15.7962627654       15.8592844583       21.7953109457
  C        22.0041847440       15.9015104000       21.8176868423
  C        28.4075746924       16.0056042708       21.7900011919
  C        34.5383405358       16.3345077715       22.0318562393
  C         9.6161949247       22.0311671490       21.9332446875
  C        15.7707831234       22.1197040092       21.8225330638
  C        22.1303716228       22.1236860530       21.7955487438
  C        28.3951582564       22.1161423165       21.7660417880
  C        34.8512770337       22.1829028815       21.6530241368
  C         9.6460255046       28.3599916066       21.9201276545
  C        15.7774682560       28.3716495388       21.8179242178
  C        22.1052228064       28.4546131890       21.8235554192
  C        28.2734989598       28.3122214680       21.7952957254
  C        34.5558756399       27.7461424726       21.7933389184
  C        15.6597011308       34.5580089005       22.1257641771
  C        22.0017218121       34.6476365180       22.1213965339
  C        27.9216017509       34.4041410378       22.1303783199
  C        15.7083644223        9.6481865498       28.4576208807
  C        21.7932191759        9.8935268172       28.5490248320
  C        28.1268412977        9.6528176550       28.3139643816
  C         9.6685927044       15.9552278840       28.2237497464
  C        15.8977727541       15.9689338684       28.1034623285
  C        22.2393614361       15.9701350189       28.1028232873
  C        28.4158848771       16.0885371719       28.0951719661
  C        34.8666226564       16.0864996265       27.9795436861
  C         9.6701135782       22.1792539952       28.2144496123
  C        15.9948656412       22.1274035054       28.1042997679
  C        22.2386105736       22.1410951694       28.2111928037
  C        28.6295144877       22.1243329386       28.1816435995
  C        34.8963687823       22.0990216768       28.0147570271
  C         9.5554936135       28.3194904787       28.2214462199
  C        16.0050439459       28.4191818784       28.1004506675
  C        22.2315658241       28.3454835149       28.1221997989
  C        28.5046913511       28.2074509240       28.0979284824
  C        34.8225649116       28.0850973105       28.0335089475
  C        15.8646360063       34.6580737170       28.5449378689
  C        22.1347302951       34.6331217353       28.4272096300
  C        28.2325063947       34.3938868438       28.2273650974
  C        16.2281440712       15.8786320077       34.8581746803
  C        22.7487981024       16.3203095303       34.4735921291
  C        28.4274177278       16.0889916498       34.4894062444
  C        16.0707914294       22.2044656720       34.3863373906
  C        22.6156068511       22.1207008609       34.3952775100
  C        28.9103342321       22.1898472141       34.2840226936
  C        16.1861797052       28.5335572449       34.6157199222
  C        22.4690106311       28.3012275808       34.3992262907
  C        28.5067039960       28.2989494722       34.6303118364
  N        16.9238326104       15.9971115711        9.7058829978
  N        23.3502528401       15.9857623399        9.5119962260
  N        29.1518704391       16.2110550577        9.7333775327
  N        17.1094027013       22.2020546456        9.6197461807
  N        23.2351194644       22.0925459993        9.4963766337
  N        29.1663393748       22.2962908707       10.0604166544
  N        16.9722828594       28.6715258431        9.1406693924
  N        23.3412201488       28.4095136478        9.7284738893
  N        29.1336278172       28.4155419097        9.7330099835
  N        16.0588324636        9.1850697774       16.5526134244
  N        23.5588805154        9.7624660584       16.1439468279
  N        29.5950600084        9.7557211295       15.9162906540
  N        10.7606580837       15.8571541143       16.1460143001
  N        16.8734800624       15.8674661357       16.1290229892
  N        23.3440378796       15.8701449835       16.1438401876
  N        29.4793928559       16.1000525853       16.1561535693
  N        35.7108169762       15.4272626753       16.0148082196
  N        10.8964038663       22.0961587668       15.9096802460
  N        17.1062759218       22.0946248246       16.0395186565
  N        23.3418376084       22.0898977250       16.0361423000
  N        29.5838495300       22.0933578224       16.1452035609
  N        35.6045772186       22.0792445784       16.4869159081
  N        10.8827525905       28.4188876833       16.1299983276
  N        17.1030959226       28.4067429729       16.0293798199
  N        23.3415899041       28.4151648122       16.0405545256
  N        29.4915797487       28.2970995279       16.1520517974
  N        35.9146824823       28.3031866958       16.0429901034
  N        17.1171507615       34.5112537415       15.9155766616
  N        23.4526120483       34.5154722100       16.1312368032
  N        29.4336847830       34.3586399148       15.7585359029
  N        17.2221883938        9.8742153715       22.3367792213
  N        23.2497282701        8.9933562671       22.6554011740
  N        29.8959752648        9.9469676048       22.2538542975
  N        11.1059360667       15.8745658337       22.4519368887
  N        17.2195400242       15.8657561512       22.4545387863
  N        23.4439579792       15.8776887026       22.4376579466
  N        29.8173158504       16.0815174900       22.4670581523
  N        35.9154690490       15.6453090850       22.2295871350
  N        11.0899217436       22.0827860888       22.4533282175
  N        17.2108551778       22.0897147295       22.4435927158
  N        23.5556607320       22.0902989616       22.4543940235
  N        29.8003332899       22.0798942981       22.4555904077
  N        35.6305622519       21.9176709827       22.9735295681
  N        11.1112091020       28.4154683341       22.4421524440
  N        17.2128150472       28.4081747366       22.4500741896
  N        23.5444052329       28.4012197446       22.4454851259
  N        29.6898849981       28.1859791445       22.4575062022
  N        35.4968836474       28.7300900131       22.5531382568
  N        17.2184817337       34.5147011314       22.2309663440
  N        23.5560896009       34.5081705948       22.2252014195
  N        29.4630972364       34.2786031596       22.3492509723
  N        17.2216890346        9.7568645057       28.8618050537
  N        23.2444068203        9.3275810920       28.5296114531
  N        29.5975085833       10.1035966682       28.5430019038
  N        11.1007291271       15.8585003317       28.8654006201
  N        17.3220422140       15.9776300674       28.7571876377
  N        23.6645387418       15.9755165186       28.7573987324
  N        29.8174258637       16.1999755442       28.7792264603
  N        36.1187050938       15.8611940532       28.8773748095
  N        11.0952416810       22.0797348161       28.8421947234
  N        17.4210468771       22.0922279337       28.7614913381
  N        23.6628399163       22.0916237913       28.8686095310
  N        30.0248514681       22.0860122076       28.8934976210
  N        36.1225905724       21.9881459867       28.9752469578
  N        10.9773358336       28.4192649395       28.8733122364
  N        17.4262693479       28.4121774754       28.7610416210
  N        23.6638320374       28.3050491235       28.7613846576
  N        29.9088439689       28.0788275824       28.7783951651
  N        35.9091037330       28.5092638588       29.0701294564
  N        17.4225698123       34.4976469322       28.5302626763
  N        23.6780817850       34.3874179074       28.4287410948
  N        29.7902086210       34.2941515906       28.1931014832
  N        17.6304185568       16.0924013259       35.5053163480
  N        23.6484797979       16.2005180645       35.7365559147
  N        29.5582711630       16.3352284047       35.5257356047