    3625
 i =       37, E =    -19845.9466474843
  I        12.3993485590       12.6644536129        8.8596799304
  I        19.2981703661       13.3394466627        8.7906344886
  I        25.1598878629       12.8294680496        9.0212311782
  I        31.1382720219       13.3901266618        8.8579224114
  I        13.0680012771       19.2818868887        8.6509927451
  I        18.8166119858       19.0803940733        8.7285755197
  I        25.2366741512       19.0735355356        8.8909255476
  I        30.9979006537       19.2068321033        8.9284012110
  I        12.8602572217       25.4761869848        8.8985156728
  I        18.6833882745       25.4410625739        8.8188178070
  I        25.1050759327       25.2957187914        8.8067855208
  I        30.8439071713       25.4059470466        9.0052250349
  I        12.2160892442       31.8852364820        9.0229775818
  I        19.5408249071       31.7720752828        8.9844106194
  I        24.9584205347       31.7111710581        8.8943964174
  I        30.8807669587       31.4266162191        8.8709342734
  I        12.7257086191        9.2399005795       12.1951228662
  I        18.7418977002        9.4646208146       12.8682540172
  I        24.8934741611        9.4286504517       12.6650864643
  I        31.6615937541        9.7960996555       12.0910221119
  I         9.8470361905       11.4002292885       12.3636903634
  I        12.6854237686       12.8066147143       15.3696361842
  I        11.8842659478       15.8851033090       11.8350545590
  I        15.8428504323       12.3996845728       11.3527194097
  I        18.6467048662       11.6898631400       15.2319956311
  I        18.2351310877       15.8697258861       12.5073702405
  I        22.0975173975       13.0888384814       12.3696745764
  I        25.3979263743       12.8237504689       15.5408990272
  I        25.9012343022       15.9053101708       12.1924785305
  I        28.4201131997       12.3569941716       12.2292170781
  I        31.2224889830       12.8760830481       15.5300923467
  I        30.9333649787       16.0974482327       12.5410793469
  I        34.8008856783       13.7216097574       12.1101510697
  I         9.1305209707       18.9741470573       13.5664941683
  I        12.4718140781       18.8501628517       15.1329231910
  I        11.8531540932       22.0916226380       11.8555838580
  I        15.9411470581       19.8080435649       12.0957538364
  I        18.8887291950       19.0105153150       15.2535142170
  I        19.7979643574       22.2095112652       12.0593301851
  I        22.2295475800       18.1829554044       12.0583054656
  I        25.1759331027       18.9789833861       15.3989391985
  I        24.6671981732       22.2332958099       12.3249179251
  I        28.5407802773       19.7576618472       12.4166655388
  I        31.7029857097       19.1632683822       15.4167999338
  I        32.0589893579       22.3148253324       12.2348588068
  I        35.1257247022       19.1479823404       12.3283049555
  I         9.4058459984       25.5308374564       12.2614297163
  I        12.6491624139       25.3221263996       15.3651858819
  I        12.8660001618       28.6089816825       12.2316906676
  I        15.8639167479       24.5311557720       12.1327614185
  I        18.8894330356       25.3063991651       15.3297847080
  I        18.0542466602       28.6136657124       12.0820117599
  I        22.1399229566       26.1560749286       12.0329355028
  I        25.0824718027       25.3406681202       15.3541908928
  I        26.0749389644       28.6140738251       11.9615019020
  I        28.4418584189       24.7376931909       12.5633674625
  I        31.7460129695       25.4781215595       15.4529983356
  I        31.2241281738       28.6702137752       12.2656328513
  I        34.8933931015       25.5361817859       12.0436814161
  I         9.3371154882       31.8610876630       12.4891379956
  I        12.5647983030       31.6746219838       15.5705176083
  I        12.4154757297       35.2226177821       12.4757324626
  I        15.8764912063       32.5589165015       11.5734866589
  I        18.8639734983       31.4639539616       15.4416531420
  I        19.3114137395       35.0987465704       12.8253519975
  I        22.1398550155       31.0807598725       12.4240847920
  I        25.3828224284       31.4985517655       15.4549181455
  I        24.7553541538       35.2736008376       12.6359991206
  I        28.3183549426       32.3518685253       12.2084809464
  I        31.4105134441       31.4264443068       15.4155625877
  I        31.1383163781       35.3114151255       12.6969551173
  I        34.7911777652       31.6147846261       12.0740409975
  I        12.9569718710        9.5157136255       18.9603555129
  I        18.9221205725        9.2238593689       19.0448090735
  I        25.0615870979        9.2644094446       19.0070879335
  I        31.3371847233        9.6695405509       18.7725841134
  I         9.6648859246       13.1912534731       18.7058994215
  I        12.8988717994       12.8498062181       21.8094167031
  I        13.1789915781       15.9130369018       18.6950389387
  I        15.9789321132       12.5537433217       18.3272412972
  I        19.2346407823       12.7971938437       21.7675987539
  I        18.7808845707       15.7687025688       18.6604557959
  I        22.2252428749       12.8527057377       18.2238357132
  I        24.8080075405       12.6015181939       21.9531335275
  I        25.6937122167       15.7844710592       18.8476443430
  I        28.5858518167       12.5813415484       19.0757876788
  I        32.0100574026       12.8847670050       21.9914107608
  I        31.9342339642       15.7724608226       18.7092655375
  I        36.3104149248       14.0471905373       18.8986195095
  I         9.3822324129       18.5965421029       18.3658875909
  I        12.7993418954       18.9978871223       21.7717933211
  I        12.1338876687       22.2385583135       18.7081252665
  I        15.8662431173       19.4838392386       18.3005355917
  I        19.0689317835       18.9981621936       21.7377086893
  I        19.5770417370       22.1932453006       18.6222095978
  I        22.3032015554       18.5591698352       18.4826023732
  I        25.4216049616       18.9832144415       21.8179648853
  I        25.1882364208       22.1972016320       18.8141940052
  I        28.8009816932       19.1449200889       18.4776358809
  I        31.9041326557       19.0744707401       21.8117871253
  I        32.1576294298       22.1943661040       18.5886621473
  I        35.5605352535       18.9150883603       18.4775254470
  I         9.4175469811       25.8946827532       18.4080862642
  I        12.7089716796       25.2832659493       21.8122919874
  I        12.9797186169       28.6651269036       18.8127397556
  I        15.9147982793       24.9712962935       18.5037263228
  I        19.0224820905       25.2500163367       21.7853771462
  I        18.7586715603       28.6203255051       18.8375388809
  I        22.3270150368       25.9009213692       18.5714201581
  I        25.4617347642       25.3537221833       21.7950130992
  I        25.9394727321       28.6443802840       18.6164806928
  I        28.7611350134       25.0630218951       18.4264478043
  I        31.7431057578       25.1502560563       21.7951563349
  I        31.5479308434       28.6061635749       18.9967659661
  I        35.5863658644       25.2274972406       18.4319612218
  I         9.4509493469       31.6451915818       18.8294381944
  I        13.2141993520       31.4512120364       21.8944828484
  I        12.6254558429       35.5502490909       19.0807858167
  I        15.8955730606       32.0982919778       18.5151200274
  I        18.9417869112       31.5007114591       21.9033613925
  I        18.7570452271       35.3272145829       18.8229222196
  I        22.3584546959       31.7142952738       18.7058392673
  I        25.4186033634       31.4256238550       21.8726918635
  I        25.2284833400       35.2611542760       18.8975554590
  I        28.9161926329       32.5273940314       18.7274674084
  I        32.3980763402       32.0679275354       21.7439567099
  I        30.9110315435       36.7015641167       20.3733979061
  I        35.7075278579       30.5651194569       18.7889799782
  I        13.5692518529        9.3078879561       24.6980242522
  I        18.9124365577        9.3103348211       25.2755728072
  I        25.8567231307        9.3372804352       25.0962364340
  I        30.9811111757        9.4895135901       25.3111039428
  I         9.8315887190       13.1687024625       24.8834130772
  I        13.0025958704       12.5097016251       28.2294676229
  I        12.6969941148       15.8108514937       25.3379924731
  I        16.2241304827       13.1550075639       24.7640271242
  I        18.9368743012       12.7698210444       28.2580467969
  I        19.8581217457       15.7994917887       24.9696138248
  I        22.5414364480       12.0966272467       25.5201577771
  I        26.1788181937       12.9217428002       28.1906370318
  I        25.2649823253       15.8308539379       25.1903506260
  I        28.7632057039       13.0074964486       24.3193351461
  I        31.4931031737       13.0299823984       28.1711795955
  I        32.1938145619       15.8508493528       25.1553313527
  I        35.9107156643       13.2784918159       24.7113233438
  I         9.9145826019       19.3044267353       25.2259545948
  I        13.1161826584       18.9863471446       28.3073607572
  I        13.3463605924       22.1800553249       25.1178721322
  I        16.2619279119       18.5160541105       24.8500696101
  I        19.2930848260       18.9982427487       28.2253667763
  I        18.8317399070       22.1812068053       25.1944096591
  I        22.5892499276       19.5978525919       24.9324972566
  I        25.6274105753       19.0758182400       28.2481521485
  I        26.3010976338       22.1775292354       24.9223371149
  I        28.9881346797       18.7009992614       24.8814367556
  I        32.1339929270       19.2030244869       28.2676264588
  I        32.1442340738       22.2131455473       25.0297170156
  I        35.7906058425       19.0413549640       24.9435574898
  I         9.4477100939       24.9085566294       24.8332483856
  I        12.6624974935       25.2452488028       28.2665810876
  I        12.5004318787       28.5909958169       25.3783601497
  I        16.0234104806       25.7953009592       24.8981472484
  I        19.3291743090       25.3462459862       28.2472600143
  I        19.4884191832       28.6266578750       25.0741194432
  I        22.5253651439       24.9193189487       24.8492246328
  I        25.6010264943       25.2289124855       28.2568121241
  I        25.3838525429       28.5501614312       25.2131735358
  I        29.0316281197       25.7479719119       24.9403636751
  I        32.0215331490       25.1416089326       28.2384142370
  I        32.4517398923       28.6753959339       24.6425842183
  I        35.7075491990       25.1711080690       24.7648095860
  I         9.5843289817       31.7986628994       24.2598276072
  I        11.9730959634       32.0394159037       28.1310867028
  I        12.8283477879       35.1698541718       24.6809601591
  I        15.9503842563       31.8079244161       25.5426337136
  I        19.3790099824       31.4722950467       28.2972869039
  I        18.4463856454       35.6710708194       25.1449492772
  I        22.4073209856       32.0945287072       25.0405949068
  I        25.8713560582       31.3772388536       28.3109097240
  I        25.3080423332       35.1584561356       25.1328425223
  I        28.9612280294       31.6523647787       24.7408526584
  I        31.7480304438       31.2183662383       28.0652324263
  I        30.5292758972       36.4539682540       25.2526682155
  I        36.0672642714       31.0113340758       25.2870663753
  I        13.1871951297        9.7248685335       31.9684424665
  I        19.3846447057        9.8760274325       31.6977255463
  I        25.9014294345        9.6322838560       31.0001612692
  I        31.3394692994        9.6074881335       31.5559590728
  I         9.9014268978       13.1204435370       31.0954307134
  I        12.9813661952       13.1474379996       34.8893759097
  I        12.7532644297       16.1859690030       31.8482419066
  I        16.2528922354       13.3327253838       31.3439572661
  I        20.2397175635       13.3395654457       34.7702080686
  I        19.4630631618       16.1679002905       31.5370440025
  I        22.6008883383       13.0461273824       30.7733600813
  I        25.2982380441       12.6901248028       34.7884903499
  I        25.7308117491       15.9954181661       31.4979646255
  I        28.8848214540       13.2127851423       31.2808474785
  I        31.1403382793       13.2109141848       34.6492025891
  I        32.4941498156       15.9000723296       31.2170733110
  I        35.4488731184       12.3889794239       30.0347117353
  I         9.8064957791       19.3385181818       31.0180998628
  I        13.2127699103       19.4995282840       34.8335012779
  I        12.3467491921       22.4643768913       31.7774046102
  I        16.3564853576       19.3593056004       31.3924047122
  I        19.7345953451       19.2886398434       34.9929045955
  I        19.6705073764       22.3148764908       31.4277929607
  I        22.7906332830       19.3029490630       31.3084815522
  I        26.0612236350       19.1703549605       34.9469079053
  I        26.3332715213       22.2381236029       31.3151998053
  I        29.2167292040       18.9237366698       31.2390501396
  I        31.9257263670       19.0814081432       34.8991857016
  I        32.6203910371       22.2428582269       31.8518783558
  I        35.8556022722       18.9727939377       31.2802202264
  I         9.9687044008       26.0420616670       31.5822152521
  I        13.4817141449       25.4529109392       34.7471151379
  I        13.7333694431       28.6136387181       31.0451089135
  I        16.3346885022       25.0067846252       31.1909553325
  I        19.5146195303       25.2522111531       34.9798640548
  I        19.2895037835       28.5715824048       31.6920902199
  I        22.7438906114       25.3912978251       31.3913423797
  I        26.1320756933       25.1756827694       34.9574259417
  I        25.6511540560       28.5127935798       31.6232719261
  I        29.2543738779       25.7265456311       31.4708308303
  I        32.5139679799       25.7758916635       34.7861057864
  I        32.9883736845       28.5709114268       31.1133927490
  I        35.8575991722       25.2448368244       31.2197282316
  I         9.9215749191       31.2705505371       31.1032294381
  I        13.2458736652       31.2300885778       34.6178831012
  I        12.9872920613       35.0166948768       31.6522002499
  I        16.3482422477       31.9187759043       31.1047211999
  I        20.1632901313       31.7091300696       34.8377090570
  I        19.7584969653       35.0044438565       31.1209359868
  I        22.7211840966       31.5826502270       30.9299807953
  I        25.2567663587       31.3877071573       34.8737443513
  I        25.6403834845       35.2279928108       31.1647920013
  I        29.1101767725       31.0085173884       31.0435982862
  I        30.8982441068       31.4660499446       34.1846520658
  I        30.6254052604       36.1366084744       30.7044392128
  I        35.7237289416       32.4423208818       29.7586182533
 Pb        12.6826300029       12.8507602311       11.9690665105
 Pb        18.9462111501       12.9256351265       11.8464769082
 Pb        25.2852048936       12.5168567104       12.1877146127
 Pb        31.6524417162       12.9614611886       11.9049718252
 Pb        12.9796755373       19.2413106923       11.7518377786
 Pb        19.3089102607       19.1435027137       12.0070518004
 Pb        25.5173905863       19.0479159966       12.0974037826
 Pb        31.9172732822       19.1482253528       12.2149868698
 Pb        12.6242035685       25.5343147756       12.0369678813
 Pb        18.8875580138       25.5693803016       11.9846621363
 Pb        25.3195793373       25.4523377402       12.0705940467
 Pb        31.5902525336       25.4714965784       12.1489349232
 Pb        12.4104339261       32.1202080617       12.1757695314
 Pb        18.9606498200       32.0023147567       12.0894129629
 Pb        25.1387952598       31.9855831181       12.0590411674
 Pb        31.4921737890       31.9437033056       12.0187764411
 Pb        12.7776952291       12.5732842924       18.6385395045
 Pb        19.1824276303       12.3623394949       18.6613587820
 Pb        25.5444497959       12.4204550993       18.8641768272
 Pb        32.9585236751       12.2824508430       18.0374047178
 Pb        12.6638617372       18.9994270707       18.5667333605
 Pb        19.2244390171       18.9164888854       18.5766825652
 Pb        25.7410881176       18.9501568550       18.6416808376
 Pb        32.4870095683       18.8155100174       18.6568106836
 Pb        12.6572458082       25.4846480053       18.5895813738
 Pb        19.2395455401       25.3519505167       18.5786671149
 Pb        25.7154528767       25.3659719699       18.6063028037
 Pb        32.5065192395       25.2716334226       18.6058724719
 Pb        12.5897462837       32.1817194948       18.7101842973
 Pb        19.1546150679       31.8130810545       18.6713449647
 Pb        25.8174068989       31.8937381449       18.6534737819
 Pb        32.7292693961       31.4401936882       18.6333555024
 Pb        13.1766826238       12.3656204931       25.0643058595
 Pb        19.4413617773       12.4036922411       25.2235468200
 Pb        25.8494364599       12.4758835989       25.0858827355
 Pb        32.8018280755       12.2389656933       25.3802794685
 Pb        13.0182858000       18.9972776655       25.1732624734
 Pb        19.5151659388       18.9077660501       25.1169211823
 Pb        25.9184259702       18.9265499391       25.1171280798
 Pb        32.6878248829       18.9051240481       25.1086753694
 Pb        12.8683828061       25.4097552602       25.1146274659
 Pb        19.4448956152       25.2604875234       25.1141852541
 Pb        25.9792486751       25.2810429155       25.1248592067
 Pb        32.5915116472       25.3208456421       25.0416580242
 Pb        12.7802606238       32.0381020061       24.9834154147
 Pb        19.3053171562       31.7282613802       25.1720932709
 Pb        25.8986553322       31.6683031841       25.1295467846
 Pb        33.0655715384       31.7919779145       25.3379583884
 Pb        13.0174366604       12.9085792552       31.7459662375
 Pb        19.6229625309       12.9925457614       31.7595364314
 Pb        25.7630177613       12.7315042714       31.6229975490
 Pb        32.7749904247       12.4521464242       31.7173620092
 Pb        13.1712438266       19.3142778586       31.6983256340
 Pb        19.6851334191       19.2337546129       31.9406029676
 Pb        26.0660388470       19.0674759529       31.8661899597
 Pb        32.4931630781       18.9408685630       31.7143898644
 Pb        13.1809532915       25.6163070967       31.6678509372
 Pb        19.6154688181       25.4380943263       31.8864804642
 Pb        26.1465144723       25.2913783406       31.8660090248
 Pb        32.7045058389       25.4027429053       31.6432553844
 Pb        13.1823818898       31.9090471587       31.6008229931
 Pb        19.6343021428       31.8712060616       31.7667905905
 Pb        25.8418539089       31.5833943228       31.7933933373
 Pb        33.1734965105       31.7706395137       31.4181951022
  C        15.5340763672       15.8502393855        8.8517709746
  C        22.1190308020       16.0787278486        8.5997755221
  C        27.8783742358       15.9904316875        8.8207092863
  C        15.8693366892       22.2877177401        8.6162778906
  C        21.8457893425       21.9902827890        8.7315864322
  C        27.9214668163       22.1740449675        9.0685054131
  C        15.5544606167       28.7447185604        8.7233610988
  C        22.0739681721       28.3068099355        8.7310919905
  C        27.8724748329       28.4176973292        8.4562327987
  C        15.2425277710        9.3752182580       15.1079601771
  C        22.1148240932        9.6437315724       15.7034004972
  C        28.1893577871        9.5356326426       15.2865600891
  C         9.4372056967       15.5237427748       15.3021982477
  C        15.4068821566       15.9740827155       15.3779675001
  C        22.0216978069       15.8327420974       15.2811286659
  C        28.1306240145       15.9798496273       15.3717951781
  C        34.6131974759       16.3009311954       15.2686013776
  C         9.5427089968       22.2068356395       15.3653943233
  C        15.7241451497       22.1674217707       15.3479311550
  C        21.9779993621       22.0475727763       15.2844561599
  C        28.1796028486       22.0676261604       15.4966559807
  C        34.5694421721       22.4117273014       15.3010081365
  C         9.5619326600       28.4068193223       15.2680796800
  C        15.5979709391       28.4005850723       15.3979257335
  C        21.9790966923       28.4202893186       15.2716440441
  C        28.1867783332       28.2849114731       15.2585556597
  C        34.6708181188       28.6664984051       15.1383086563
  C        15.6990476349       34.6523451472       15.3838838997
  C        21.9942715987       34.4138807528       15.7141639192
  C        27.8691347979       34.7438714733       15.3711536194
  C        15.8293252079        9.7932693932       21.6779969525
  C        21.9826745570        9.5401518214       21.8098207372
  C        28.4991172350        9.5281168582       21.7671456275
  C         9.7480929224       16.0007205402       21.6952964862
  C        15.9036292852       15.8582019176       21.5726887971
  C        22.1112928826       15.8776361196       21.5732776981
  C        28.5933618164       15.9910526715       21.5703395777
  C        34.6615446050       16.2931626560       21.8358379593
  C         9.7029297600       21.9667989983       21.7915309896
  C        15.8436120146       22.0530747777       21.5859052344
  C        22.2382069080       22.0934560531       21.5751433944
  C        28.4988607813       22.0928011559       21.5435224891
  C        34.9360026616       21.9610636829       21.4355492890
  C         9.7270623532       28.3004158508       21.7903666338
  C        15.8115938372       28.3239075164       21.5474097526
  C        22.1858324065       28.5018924529       21.6339868841
  C        28.3833888768       28.3115448928       21.5736929183
  C        34.6887881825       27.6326776395       21.5706647430
  C        15.7675308385       34.5899468842       21.9031286569
  C        22.1170148598       34.6285948913       21.8994807502
  C        28.0357758007       34.3963606868       22.0158407111
  C        15.7885076041        9.5642664109       28.3127724658
  C        21.8998779811        9.8779541601       28.5393416682
  C        28.2976063225        9.5229071477       28.0992396151
  C         9.7379264947       15.8664046283       28.1122814484
  C        15.9892270964       15.9398013920       27.9156672695
  C        22.3432878051       15.9707621532       27.8860360660
  C        28.6050760239       16.1143956827       27.8768069175
  C        34.9797243252       15.9953888004       27.7241367721
  C         9.7103646518       22.2101705801       28.1009593496
  C        16.0604403886       22.1223450237       27.9958637209
  C        22.3483273244       22.1751574204       27.9932775671
  C        28.7664789377       22.1201201627       27.9753404816
  C        34.9751343915       22.0818649951       27.8412758933
  C         9.6342017892       28.2929316310       28.0873309982
  C        16.1087117600       28.4197097389       27.8820140567
  C        22.3339867418       28.3399036641       27.9049774461
  C        28.6358731651       28.2072614531       27.9025316556
  C        34.9036068876       27.9687479461       27.7538706039
  C        16.0162432584       34.8608335533       28.4446167230
  C        22.2602836946       34.6383136669       28.2099405993
  C        28.3405450052       34.2953775099       27.9926824715
  C        16.3512861818       15.8708238598       34.6206980913
  C        22.8191695683       16.3314458013       34.1980606513
  C        28.4222043888       15.9851006445       34.2966525225
  C        16.1355475647       22.2365803749       34.2010515231
  C        22.8455331948       22.2060713534       34.2284750727
  C        29.0501882736       22.1714483503       34.0478491441
  C        16.2869389387       28.5339137422       34.3882555757
  C        22.5285065719       28.2465113125       34.2163616087
  C        28.6233782142       28.2867249878       34.4273410253
  N        17.0321719913       15.9981272991        9.2584840729
  N        23.4579715194       15.9825159551        9.4046853064
  N        29.2574251557       16.2072965857        9.5133267678
  N        17.2192836133       22.1987919637        9.4037505234
  N        23.3425106948       22.0822977230        9.1773535500
  N        29.2749543338       22.1945262118        9.8440352100
  N        17.1224076968       28.7311532957        8.7171217402
  N        23.4421953479       28.4026345428        9.4959567884
  N        29.0409016391       28.4138360471        9.4995545327
  N        16.1512846159        9.0854948906       16.3680950639
  N        23.6571396615        9.7707913996       15.9138190434
  N        29.6990213166        9.6465764619       15.6946543066
  N        10.8622958859       15.7463956263       15.9161742565
  N        16.9081933319       15.9834395973       15.8146503760
  N        23.4507046110       15.8694676378       15.9257544501
  N        29.5830498522       16.1024471026       15.9480153568
  N        35.8078093486       15.4001454060       15.6903534559
  N        11.0914721010       22.0891777530       15.4837621851
  N        17.2153898340       22.0928896707       15.8194110289
  N        23.4499137394       22.0856988171       15.8127104967
  N        29.6868674624       22.0911348581       15.9306058085
  N        35.7047440447       21.9806720925       16.2801140551
  N        10.9886814776       28.4188943562       15.9080835751
  N        17.1089824176       28.4075777660       15.8057384525
  N        23.4455475405       28.4181892925       15.8264101237
  N        29.5984651041       28.2965563644       15.9313221388
  N        36.0169093453       28.2928610128       15.8206340737
  N        17.2243465087       34.5080109005       15.6965290398
  N        23.5549262775       34.3983249058       15.8158518324
  N        29.3612422857       34.2826941149       15.4813022847
  N        17.3298920455        9.8720088772       22.1135440831
  N        23.3397544536        8.9920800500       22.3411873375
  N        29.9983851850        9.8896777592       22.0198309404
  N        11.2074536450       15.8739524517       22.2218899932
  N        17.3256919693       15.8653685669       22.2333945583
  N        23.5435212267       15.8791162538       22.2070480200
  N        30.0137141841       15.9765653760       22.2316851949
  N        36.0105233992       15.5366818745       22.0044498931
  N        11.1957849766       22.0777947315       22.2406993067
  N        17.3181019491       22.0857906011       22.1081764203
  N        23.6626284026       22.0910763997       22.2359619137
  N        29.9048563457       22.0770451137       22.2325738844
  N        35.6922660151       21.9663810020       22.7910449642
  N        11.2152535241       28.4111039753       22.2264568360
  N        17.2185409180       28.2923910587       22.2346073127
  N        23.6387598032       28.4041824943       22.2132326877
  N        29.7984021377       28.1860769100       22.2378724870
  N        35.5981888153       28.6332151829       22.3412408963
  N        17.3249088765       34.5076595508       22.0128259830
  N        23.6606945399       34.3967720980       22.0028068149
  N        29.5706044368       34.1856385734       22.2303750002
  N        17.3226382669        9.6355424233       28.6360495728
  N        23.3377539178        9.3172974016       28.3232732118
  N        29.7015872299       10.1077776831       28.4216137744
  N        11.2096250063       15.7602371492       28.6440152332
  N        17.4255882214       15.9747502908       28.5402692073
  N        23.7698456866       15.9826020462       28.5377828053
  N        30.0161737529       16.2020768211       28.5440880903
  N        36.2185334161       15.8492991427       28.6591483864
  N        11.2044054415       22.0799541038       28.5297081780
  N        17.5236250603       22.0954941772       28.5553437494
  N        23.7666525008       22.0890505268       28.6589904666
  N        30.1191936029       22.0834997945       28.7680953879
  N        36.2323947969       21.9820069494       28.7621314246
  N        11.0841654889       28.4185245308       28.6632461338
  N        17.5315125231       28.4102568397       28.5392056039
  N        23.7676803542       28.3011282902       28.5411442178
  N        30.0055564827       28.0778053065       28.6532002077
  N        36.0050573392       28.4032384631       28.7657890355
  N        17.5342798935       34.5088582309       28.3078044378
  N        23.7816795965       34.2819966306       28.2045223272
  N        29.8992694509       34.2877078994       27.9766256438
  N        17.7393771877       16.0959000863       35.2873006969
  N        23.6504848891       16.2032867410       35.5087005367
  N        29.5801011890       16.3127493706       35.2784648928