    3625
 i =       96, E =    -19845.6322305872
  I        12.4749925834       12.7508495521        8.9567054238
  I        19.2757198769       13.3697270888        8.8976471985
  I        25.1769218061       12.8384764042        9.1087292883
  I        31.1460894668       13.4119278635        8.9430772452
  I        13.1150387813       19.2700080402        8.7966756176
  I        18.8143171174       19.0681654275        8.8606420401
  I        25.2453040352       19.0887446315        8.9744210205
  I        30.9745222284       19.2762408635        9.0330323242
  I        12.8849567892       25.5200892619        9.0137517386
  I        18.6832592390       25.4365394990        8.9002440332
  I        25.1153185666       25.3110265701        8.8848913674
  I        30.8907380177       25.4116415695        9.0922925445
  I        12.2346029310       31.9208387616        9.1231399917
  I        19.5389237916       31.8065794249        9.0424591802
  I        25.0706871845       31.7071283217        9.0215908481
  I        30.8282151743       31.5060808575        8.9730026260
  I        12.7800173587        9.2488738055       12.2711337410
  I        18.7513666705        9.5394739872       13.0009946534
  I        24.8696230917        9.4388721621       12.7390813935
  I        31.6325101807        9.8433622113       12.2083540956
  I         9.8551207528       11.4691312896       12.4260628285
  I        12.6628397554       12.8800378840       15.4683365209
  I        11.9031674359       15.9377366758       11.9679678921
  I        15.8582244566       12.4627258410       11.5227211041
  I        18.6445682975       11.7407667895       15.3693870705
  I        18.3243085489       15.8824886216       12.6869521022
  I        22.1178844610       13.1138770497       12.4649746172
  I        25.3906957248       12.8243156271       15.6456068001
  I        25.9101119314       15.9159485715       12.2667644306
  I        28.4400774098       12.4753518576       12.3547022603
  I        31.2686080182       12.9332034571       15.6212984605
  I        30.9771705023       16.1264681370       12.6230034326
  I        34.8440469545       13.7327562254       12.2199531289
  I         8.9859265607       19.0566485049       13.3533738619
  I        12.5393182357       18.9123893172       15.2840588504
  I        11.8575258064       22.1069760586       11.9478659733
  I        15.9630439769       19.7717957887       12.1965623927
  I        18.8952673871       19.0426372398       15.3752525599
  I        19.7949348129       22.2212324099       12.1642439295
  I        22.2471491658       18.1660551986       12.1153769822
  I        25.1814850358       18.9787276627       15.4869182244
  I        24.6820673303       22.2280187164       12.4248243584
  I        28.5417267015       19.7483300798       12.4920309157
  I        31.6995966312       19.1591648937       15.5062551570
  I        32.0042123632       22.3396769872       12.4346250340
  I        35.1631993531       19.1702991194       12.4379806159
  I         9.3897986792       25.5318313116       12.3517505291
  I        12.6424073012       25.3227908432       15.4660769617
  I        12.8569602639       28.6377726408       12.3763800300
  I        15.8595899119       24.5686320687       12.2407450784
  I        18.9271118034       25.3032338475       15.4204965326
  I        18.1209961437       28.6362899335       12.1670439472
  I        22.1401885918       26.1190077916       12.1009571556
  I        25.0896261974       25.3428070987       15.4423074805
  I        26.0527399280       28.6066315946       12.1021157701
  I        28.4521570584       24.8060609194       12.6341735994
  I        31.7592059505       25.5130853518       15.5442678801
  I        31.2568927052       28.6982741503       12.3980062149
  I        34.9039656693       25.5750218033       12.0935044110
  I         9.3377348089       31.9000613018       12.5888780662
  I        12.5152608293       31.7246849818       15.6759746800
  I        12.3352975120       35.2677602609       12.5575605030
  I        15.8862875060       32.5960072371       11.6618005941
  I        18.8982049478       31.4860021419       15.5218902754
  I        19.3607589820       35.1396150947       12.9160151687
  I        22.1520480044       31.1174634896       12.4484303921
  I        25.3241525693       31.5492879747       15.5627834354
  I        24.7738931553       35.3206691313       12.7055813316
  I        28.3304951576       32.3323300817       12.3895068147
  I        31.4173263379       31.4734494654       15.5191759517
  I        31.1732936060       35.3425773937       12.7305491926
  I        34.7870094005       31.6263509226       12.1342200068
  I        12.9548145939        9.5601392613       19.0156223981
  I        18.8844171286        9.2591250527       19.1413181462
  I        25.0972989623        9.3059936037       19.0938120196
  I        31.3464119119        9.7128308206       18.8780942658
  I         9.6561753765       13.2135067347       18.7628569088
  I        12.9040285172       12.8604707096       21.8963498888
  I        13.1884378414       15.9426639731       18.7940915483
  I        15.9661923554       12.6187640529       18.4166621015
  I        19.2239538191       12.8107468792       21.8769567851
  I        18.7947325718       15.8004168196       18.7653307410
  I        22.2129799488       12.8479595687       18.3117252235
  I        24.8623660138       12.6191552315       22.0513456776
  I        25.6016336694       15.8092263067       18.9588180051
  I        28.6091957945       12.6836368469       19.1450449514
  I        31.9926226415       12.9718723006       22.1141924141
  I        31.9694386739       15.8105816991       18.8020051855
  I        36.3487220166       14.1045806226       19.0203369223
  I         9.3577794959       18.6293257252       18.4234170044
  I        12.7925853945       19.0071969634       21.8829084574
  I        12.1555261182       22.2676987303       18.8048851232
  I        15.8631243690       19.5253677254       18.4351196134
  I        19.0768479755       19.0008868123       21.8455779161
  I        19.5439783630       22.2247891970       18.7666843898
  I        22.3023654129       18.6464714005       18.5641936647
  I        25.4358425246       19.0062662333       21.9154658436
  I        25.2170764444       22.2226948071       18.9064588739
  I        28.8080894077       19.1304612708       18.5771341050
  I        31.9004547823       19.1095858931       21.9035066144
  I        32.2096459397       22.2272172507       18.6590926920
  I        35.5861773560       18.9907601689       18.5588229935
  I         9.3977106630       25.8863199993       18.4979320430
  I        12.7198368663       25.2960914865       21.9153546933
  I        12.9647150472       28.7130002536       18.9264364406
  I        15.9136984166       25.0097746882       18.5632054494
  I        18.9951753373       25.2919193074       21.8909551360
  I        18.8170699159       28.6660755702       18.9541805268
  I        22.3376871174       25.9019420435       18.6511001351
  I        25.4664682693       25.3686117775       21.8893722439
  I        25.9170715846       28.6779630192       18.7295314294
  I        28.7846639520       25.0822411977       18.5187714353
  I        31.7517278069       25.1658935983       21.8885676558
  I        31.5539320441       28.6309759259       19.0940702273
  I        35.5861350128       25.3139022341       18.5229123517
  I         9.4364921503       31.6874837741       18.9408114542
  I        13.1444585554       31.4929071559       22.0108275755
  I        12.6091530244       35.6281713369       19.1795760467
  I        15.8839117279       32.0971585671       18.6242348464
  I        19.0357603569       31.5667499333       21.9934215628
  I        18.7149234895       35.3746328987       18.9231767237
  I        22.3385532605       31.7956011530       18.7802637546
  I        25.3643224754       31.4861523614       21.9695397415
  I        25.2336203555       35.3102518307       18.9924880301
  I        28.8988180913       32.5177805283       18.7884863992
  I        32.3577841509       32.0939857494       21.8232805883
  I        30.9409148038       36.7774703919       20.4033822215
  I        35.7290234226       30.6168070699       18.8909261874
  I        13.5183844644        9.3810419401       24.8177088268
  I        18.9290307615        9.3285536448       25.3844794681
  I        25.8196495787        9.3361080651       25.2341629875
  I        31.0202803411        9.4693498762       25.3699101957
  I         9.8767694545       13.1059056990       24.9979450062
  I        12.9146648457       12.5227560596       28.3245350729
  I        12.8555519595       15.8582323934       25.4269625824
  I        16.2231232489       13.1268409928       24.8970117287
  I        18.9896482894       12.8148540967       28.3465686203
  I        19.8196020696       15.8260244340       25.0855381206
  I        22.5147843531       12.1843725570       25.5833544551
  I        26.0098187695       12.9834433756       28.3102882206
  I        25.2985216081       15.8675264635       25.2853455097
  I        28.7616625583       13.0330711235       24.5217440079
  I        31.4913371328       13.0278194178       28.2845232783
  I        32.1766950229       15.8541264619       25.2755764377
  I        35.9049988771       13.3143681683       24.8146206448
  I         9.8836668149       19.2139685872       25.3139337233
  I        13.1233905348       19.0150372221       28.4037206805
  I        13.2232159269       22.2261035266       25.2672441059
  I        16.2703440747       18.6294086335       24.9408801604
  I        19.3054840499       19.0002777420       28.3281013764
  I        18.9072971477       22.2175767942       25.2842225422
  I        22.6005873310       19.5779745335       25.0249124338
  I        25.6306723086       19.0935220261       28.3422642069
  I        26.2399869045       22.2183910180       25.0338340215
  I        28.9998547330       18.7627083507       24.9980058875
  I        32.1338713191       19.2012124686       28.3533072822
  I        32.1931010271       22.2187189890       25.1098111153
  I        35.8029885395       19.0493915961       25.0170408750
  I         9.3697683159       25.0097630387       24.8958752255
  I        12.6563065774       25.2649644285       28.3825212457
  I        12.5243127935       28.6425718904       25.4773224965
  I        16.0064473258       25.7781103592       24.9997885038
  I        19.3354368759       25.3600976891       28.3545403533
  I        19.4893141368       28.6694620684       25.1901292558
  I        22.5319774029       25.0140092091       24.9357020238
  I        25.5984144432       25.2442879288       28.3479588502
  I        25.4578836480       28.6142627754       25.3021102453
  I        29.0518971616       25.7277991464       25.0515437559
  I        32.0577533575       25.1488587587       28.3165071533
  I        32.4169171450       28.6925684096       24.7492490634
  I        35.7259763443       25.1916061708       24.8480480594
  I         9.5558824397       31.8765889917       24.4383665088
  I        11.9518885469       32.0678475486       28.2600235524
  I        12.7840132318       35.2104400440       24.8759504797
  I        15.9473439215       31.8073240098       25.5820951589
  I        19.3571304026       31.4869157699       28.4033847736
  I        18.3910135762       35.7119622061       25.2566771870
  I        22.4034309875       32.1392348945       25.1718049329
  I        25.8009646331       31.4537620267       28.3942459364
  I        25.2716449543       35.2787046279       25.2146355142
  I        28.9588756228       31.7950599540       24.8411657583
  I        31.7697889100       31.2389100801       28.1457907769
  I        30.6226245939       36.5234450212       25.3087682123
  I        36.0349742228       31.0568954750       25.3417293576
  I        13.1870003138        9.7925041059       32.1397311634
  I        19.3966453364        9.8512270437       31.7740850492
  I        25.9661338027        9.6430750275       31.0833515135
  I        31.3151905065        9.6471732261       31.6208905369
  I         9.8840635043       13.2337466070       31.2164858249
  I        12.9562490941       13.2308733855       34.9979532363
  I        12.8688177694       16.2426275730       31.9531663997
  I        16.2222635211       13.2614021696       31.3424829577
  I        20.2511189640       13.3819344152       34.8974537963
  I        19.3571923714       16.1605620447       31.6830464829
  I        22.5792626715       13.0864824984       30.8987690546
  I        25.3743054713       12.7442258248       34.9055293966
  I        25.7806394128       16.0208257097       31.5895765267
  I        28.8769356190       13.2452258862       31.3965292161
  I        31.1320523284       13.2380655205       34.7571474764
  I        32.4392094455       15.9289745418       31.3197437180
  I        35.4771792978       12.3925684011       30.1108576701
  I         9.8120436555       19.3667816886       31.0312692389
  I        13.2448577626       19.5489413963       34.9369201798
  I        12.3025986972       22.5054107292       31.8994419013
  I        16.3569414112       19.4559827833       31.4223494181
  I        19.6836843446       19.2959953706       35.0879471957
  I        19.7346361025       22.3223905660       31.5020264025
  I        22.7878547660       19.2437411498       31.4100090046
  I        26.0586404475       19.2443687905       35.0568236526
  I        26.2476632596       22.2726032591       31.4478522044
  I        29.2339782472       19.0183553871       31.3293840103
  I        31.9568817743       19.1011619763       35.0010330986
  I        32.6699376946       22.2591260788       31.9431557899
  I        35.9026401399       18.9685696301       31.3291459940
  I         9.9648559509       26.0754907589       31.6753744877
  I        13.5059041440       25.4515177052       34.8777576277
  I        13.7645381693       28.6349850745       31.1348919018
  I        16.3217679567       24.9472955936       31.2765130423
  I        19.5209054827       25.2677570626       35.0633744984
  I        19.2519280277       28.5898497962       31.8064685938
  I        22.7491885646       25.4411989841       31.4895797075
  I        26.0694056800       25.2215949325       35.0522675148
  I        25.6740570660       28.5516195941       31.7028782020
  I        29.2601797890       25.7188914187       31.5444219503
  I        32.5062212454       25.8201479822       34.8736689514
  I        32.9348979782       28.5876420922       31.2155655392
  I        35.8761890700       25.2940248845       31.3652250602
  I         9.9422600742       31.2049813995       31.1785669969
  I        13.2514870763       31.2146877153       34.7264367633
  I        12.9998793765       35.0320963863       31.7346614704
  I        16.3457260330       31.9322463805       31.2090775052
  I        20.1552746421       31.7126284941       34.9488117939
  I        19.7209782754       35.0237933589       31.2334767732
  I        22.7112008732       31.5861593476       31.0516464702
  I        25.2743173792       31.4100421793       34.9725210680
  I        25.6223703487       35.2860967045       31.2710171783
  I        29.0750333391       31.0772548804       31.0448713979
  I        30.8963380221       31.5550550321       34.2628873925
  I        30.6432119281       36.1304620357       30.7910450208
  I        35.7283168640       32.4536340603       29.8548418782
 Pb        12.6787533930       12.8855291662       12.0616686400
 Pb        18.9749743756       12.9536758952       11.9575608360
 Pb        25.2756538134       12.5108836518       12.2706610035
 Pb        31.6957004308       13.0002655627       11.9917020378
 Pb        12.9943720024       19.2541299582       11.9048283649
 Pb        19.3388271419       19.1550243099       12.1220466124
 Pb        25.5228369513       19.0637578857       12.1759472833
 Pb        31.9512921658       19.1716615993       12.2796832102
 Pb        12.6296929932       25.5681013093       12.1553220699
 Pb        18.8924513395       25.5815571569       12.0676628058
 Pb        25.3345415829       25.4749070498       12.1531400833
 Pb        31.6213548283       25.5057074539       12.2510863764
 Pb        12.4020313576       32.1938179381       12.2609261559
 Pb        18.9748735254       32.0592585669       12.1526304794
 Pb        25.1549108858       32.0654163784       12.1634094078
 Pb        31.5094702907       31.9849172073       12.1067004251
 Pb        12.7677794240       12.6148931036       18.7185500463
 Pb        19.1851172500       12.3876938058       18.7715109420
 Pb        25.5718224395       12.4565208189       18.9576569973
 Pb        32.9747996973       12.3052989558       18.1409328219
 Pb        12.6897054296       19.0343594781       18.6490860832
 Pb        19.2308963218       18.9410405315       18.6832410765
 Pb        25.7495651748       18.9833630898       18.7299037246
 Pb        32.5107366294       18.8534591515       18.7341061033
 Pb        12.6611028026       25.5151238809       18.7000154533
 Pb        19.2429494187       25.3800693142       18.6821656862
 Pb        25.7345520653       25.3988343598       18.6990646569
 Pb        32.5002332086       25.3115352535       18.7054051484
 Pb        12.5793498468       32.2013231419       18.8131474995
 Pb        19.1590705640       31.8680859093       18.7511311298
 Pb        25.8027588892       31.9411943163       18.7475286105
 Pb        32.7485123116       31.4651435279       18.7168360913
 Pb        13.0942585166       12.4478361195       25.1663492782
 Pb        19.4137150932       12.4337874726       25.3027694544
 Pb        25.8295440862       12.4769872778       25.1836224609
 Pb        32.8189481001       12.3283455576       25.4438573757
 Pb        12.9984814262       19.0194704475       25.2550742214
 Pb        19.5167630353       18.9324945807       25.2177304730
 Pb        25.9208042085       18.9562017678       25.2130822256
 Pb        32.7013229223       18.9085922355       25.2010660900
 Pb        12.8670519103       25.4492539813       25.2277152650
 Pb        19.4572792091       25.3006799825       25.2127372241
 Pb        25.9907585107       25.3226445481       25.2216880863
 Pb        32.6182872947       25.3272845149       25.1336872900
 Pb        12.7422107748       32.0734024296       25.1096044704
 Pb        19.2996318647       31.7728601382       25.2807276556
 Pb        25.8911435638       31.7485069932       25.2174358062
 Pb        33.0215112039       31.7937410626       25.3889533355
 Pb        13.0147039984       12.9580965782       31.8679641243
 Pb        19.6264929434       12.9779444669       31.8946932576
 Pb        25.7858137788       12.7532182267       31.7190468097
 Pb        32.7903490622       12.4884997502       31.7877977946
 Pb        13.1757454858       19.3674068113       31.7786720418
 Pb        19.6693471023       19.2331727469       32.0321931058
 Pb        26.0656078329       19.1075932386       31.9805651541
 Pb        32.4937954833       18.9715523028       31.8043534535
 Pb        13.1937179218       25.6335024349       31.7923927218
 Pb        19.6211469301       25.4554776159       31.9655072227
 Pb        26.1480713576       25.3379309886       31.9679188548
 Pb        32.7167662145       25.4297304393       31.7432829735
 Pb        13.2024331087       31.9162929747       31.7262342025
 Pb        19.6622760279       31.8851588124       31.8720083102
 Pb        25.8867061079       31.6292232524       31.8966694502
 Pb        33.1778197493       31.7934555000       31.5293493431
  C        15.5559777170       15.8673182946        8.9540912077
  C        22.1132855816       16.1022880236        8.6119885258
  C        27.8814631948       15.9894319643        8.9250029950
  C        15.8492719312       22.2876750989        8.7448648895
  C        21.8414472660       22.0703091102        8.8433405905
  C        27.9147655156       22.2008929096        9.1800934329
  C        15.5494581066       28.8000139752        8.8336185055
  C        22.0775921791       28.3100056621        8.8433530438
  C        27.9274678271       28.4195536876        8.6315902948
  C        15.1941590581        9.4887687309       15.1742462290
  C        22.1333019918        9.7499770408       15.6845712809
  C        28.1893136512        9.6449285347       15.3958364627
  C         9.4466551352       15.7157195100       15.3881466605
  C        15.4329646051       15.9661590129       15.3880260595
  C        22.0218480865       15.8744329064       15.3879236260
  C        28.1628545184       16.0008921976       15.3891666519
  C        34.6126797064       16.3033755233       15.3800183066
  C         9.5542271917       22.2036531579       15.3788668902
  C        15.7410910208       22.1307154765       15.3934591070
  C        21.9754006796       22.1105852571       15.3940654652
  C        28.2081960562       22.1173477139       15.5164208361
  C        34.5767801592       22.4596302170       15.3683003621
  C         9.5649074576       28.4080685788       15.3765999923
  C        15.7017184986       28.3989321325       15.4816889808
  C        22.0158456801       28.4228571436       15.2876940529
  C        28.1862233175       28.2868871827       15.3704129291
  C        34.6672678136       28.6704893707       15.2516060848
  C        15.6974699274       34.6545606248       15.4925944226
  C        22.0013371307       34.4887149880       15.7884211490
  C        27.9502979301       34.7648952800       15.4856715361
  C        15.8259274502        9.7902242241       21.7913730394
  C        21.9856284739        9.5502666627       21.9082326840
  C        28.4963786903        9.6385212347       21.8765553020
  C         9.7526158468       15.9984897224       21.8081007731
  C        15.9009982145       15.8591187806       21.6843497649
  C        22.1077882810       15.9022946984       21.7016678573
  C        28.5266831028       16.0043061114       21.6766276612
  C        34.6441646034       16.3387121776       21.9206179013
  C         9.7213344866       22.0268539881       21.8175070534
  C        15.8453904033       22.1136603103       21.6973592076
  C        22.2519139917       22.1220773511       21.6625026986
  C        28.5003599177       22.1161088049       21.6504800124
  C        34.9392779855       22.0577032724       21.5500734762
  C         9.7460492782       28.3682348096       21.8100758573
  C        15.8935127141       28.4149716233       21.6875983342
  C        22.2117987169       28.4984316046       21.6931229729
  C        28.3803778554       28.3124115773       21.6843866398
  C        34.6638885106       27.7451250229       21.6813678665
  C        15.7645799821       34.5657442482       22.0154373069
  C        22.1076464938       34.6465701968       22.0094445011
  C        28.0312090825       34.4064136040       22.0178856886
  C        15.8160951120        9.6566662146       28.3411685247
  C        21.9054159355        9.8848215813       28.5996540186
  C        28.2461846646        9.6279080730       28.1720295747
  C         9.7763581715       15.9594275025       28.1163237647
  C        16.0006655911       15.9675160246       27.9961931370
  C        22.3429127556       15.9702528328       27.9951174968
  C        28.5288691991       16.1111895563       27.9852301904
  C        34.9731328244       16.0867013934       27.8657875654
  C         9.7405550237       22.2104907707       28.1119684896
  C        16.0946756589       22.1258268215       28.0041106281
  C        22.3451620115       22.1740985724       28.1029543523
  C        28.7441101644       22.1238568403       28.0717064465
  C        35.0017770011       22.1000839704       27.9038808163
  C         9.6572905672       28.3174261248       28.1101068828
  C        16.1102814395       28.4196500023       27.9903493769
  C        22.3419732936       28.3493272775       27.9951171479
  C        28.6069721816       28.2100989405       27.9892490030
  C        34.9071638711       28.0765806461       27.8638157315
  C        15.9986577424       34.8405025235       28.5043821392
  C        22.2461609800       34.6614232015       28.3223479997
  C        28.3398868531       34.3712381197       28.0968754101
  C        16.3355113648       15.8844796734       34.7442731526
  C        22.9125365387       16.3260131757       34.3138911032
  C        28.4602049039       16.0842665679       34.3752229817
  C        16.1604861927       22.2155042943       34.2768803429
  C        22.7183426150       22.2033690682       34.3185683399
  C        29.0498033642       22.1876660820       34.1622602671
  C        16.2900461775       28.5299991549       34.5049218574
  C        22.5494719075       28.2965722629       34.2993727697
  C        28.5827513530       28.3030810483       34.5179217840
  N        17.0133995135       15.9913828011        9.4956906723
  N        23.4562181620       15.9851274955        9.4098847189
  N        29.2576538706       16.2126585588        9.6225370353
  N        17.2150209040       22.1979586104        9.5085729741
  N        23.3432689235       22.0906191771        9.2795125236
  N        29.2707288859       22.2971993470        9.9480231110
  N        17.1167068800       28.7340610404        8.8293417899
  N        23.4456665956       28.4046070940        9.6077571391
  N        29.1412285921       28.4146465389        9.6187495916
  N        16.1579071045        9.1953580662       16.3862697131
  N        23.6614902537        9.7663972062       16.0099669557
  N        29.6984925187        9.7551497809       15.8054013148
  N        10.8699805551       15.8619013023       16.0258060664
  N        16.9045627410       15.9919178140       15.9218946328
  N        23.4504289681       15.8711332282       16.0346690421
  N        29.5838821384       16.1012770836       16.0461006106
  N        35.8177899104       15.4161162963       15.8073337807
  N        11.0924750936       22.0933246423       15.5927735852
  N        17.2095367472       22.0990510534       15.9375523862
  N        23.4487821541       22.0898948805       15.9217362090
  N        29.6894585232       22.0936270223       16.0350588569
  N        35.7104905052       22.0833504138       16.3753020167
  N        10.9912617717       28.4229076683       16.0159877158
  N        17.2047162047       28.4082690768       15.9164650238
  N        23.4472264096       28.4170059007       15.9309980217
  N        29.5989951491       28.3065737474       16.0413110740
  N        36.0179222563       28.3035423528       15.9307749486
  N        17.2234187699       34.5114546317       15.8050031859
  N        23.5583560706       34.5076428527       15.9266014791
  N        29.4693837465       34.3975531006       15.5905011600
  N        17.3280798040        9.8733831436       22.2235505024
  N        23.3426110753        9.0093773909       22.4379070104
  N        29.9969599244        9.9994230576       22.1241340911
  N        11.2125640196       15.8752937987       22.3369602834
  N        17.3238774323       15.8662377276       22.3444023939
  N        23.5469721560       15.8811965997       22.3207389080
  N        29.9339506810       16.0773862283       22.3604576815
  N        36.0198125998       15.6440310258       22.1158033084
  N        11.1940926311       22.0821403982       22.3418440026
  N        17.3206155369       22.0884237967       22.2199597818
  N        23.6633573375       22.0934121419       22.3466625930
  N        29.9040419365       22.0799990623       22.3431942438
  N        35.7185765841       21.9776387792       22.8932347352
  N        11.2117137597       28.4157784452       22.3310282208
  N        17.3184404228       28.4052909590       22.3424874065
  N        23.6457225815       28.4072357932       22.3225966783
  N        29.7966686886       28.1872385959       22.3466457952
  N        35.5870210185       28.7405302284       22.4437423586
  N        17.3236479465       34.5132918838       22.1198990967
  N        23.6624744739       34.5082608458       22.1133579962
  N        29.5743961343       34.2852039280       22.2352738178
  N        17.3287652662        9.7600515354       28.7450138874
  N        23.3507188972        9.3264038268       28.4315673711
  N        29.7025384709       10.1036035403       28.4321645822
  N        11.2075143660       15.8600320032       28.7555911482
  N        17.4261942059       15.9769907219       28.6472693396
  N        23.7699742958       15.9754463822       28.6459092420
  N        29.9317755523       16.2014072726       28.6702921006
  N        36.2196247508       15.8597672007       28.7708820544
  N        11.2048408453       22.0817243847       28.6358040775
  N        17.5247168508       22.0929195935       28.6517416296
  N        23.7671588701       22.0890954872       28.7609857666
  N        30.1376467088       22.0874650616       28.7871353908
  N        36.2283320841       21.9909343752       28.8640495978
  N        11.0799973778       28.4195340144       28.7615874053
  N        17.5316169180       28.4106942397       28.6497628251
  N        23.7673507441       28.3032328646       28.6494980144
  N        30.0128945671       28.0801944729       28.6660574060
  N        36.0085214135       28.5109251605       28.8750431021
  N        17.5266788690       34.5099474217       28.4182697925
  N        23.7843606362       34.3877423915       28.3116158710
  N        29.8984216519       34.2956044807       28.0801502038
  N        17.7371323815       16.0933394560       35.3938979191
  N        23.7589905030       16.2001816696       35.6148126742
  N        29.5933704490       16.3325927822       35.4047037752