 DBCSR| CPU Multiplication driver                                           XSMM
 DBCSR| Multrec recursion limit                                              512
 DBCSR| Multiplication stack size                                           1000
 DBCSR| Maximum elements for images                                    UNLIMITED
 DBCSR| Multiplicative factor virtual images                                   1
 DBCSR| Use multiplication densification                                       T
 DBCSR| Multiplication size stacks                                             3
 DBCSR| Use memory pool for CPU allocation                                     F
 DBCSR| Number of 3D layers                                               SINGLE
 DBCSR| Use MPI memory allocation                                              F
 DBCSR| Use RMA algorithm                                                      F
 DBCSR| Use Communication thread                                               T
 DBCSR| Communication thread load                                             87
 DBCSR| MPI: My node id                                                        0
 DBCSR| MPI: Number of nodes                                                  48
 DBCSR| OMP: Current number of threads                                         1
 DBCSR| OMP: Max number of threads                                             1
 DBCSR| Split modifier for TAS multiplication algorithm                  1.0E+00


  **** **** ******  **  PROGRAM STARTED AT               2023-12-04 02:14:25.924
 ***** ** ***  *** **   PROGRAM STARTED ON              pe88.int.triton.aalto.fi
 **    ****   ******    PROGRAM STARTED BY                               huangj4
 ***** **    ** ** **   PROGRAM PROCESS ID                                  9476
  **** **  *******  **  PROGRAM STARTED IN /scratch/phys/sin/Jie/Github/cp2kTest
                                           /PDOS234/Cluster_444

 CP2K| version string:                                          CP2K version 8.2
 CP2K| source code revision number:                                  git:310b7ab
 CP2K| cp2kflags: omp libint fftw3 libxc parallel mpi3 scalapack xsmm           
 CP2K| is freely available from                            https://www.cp2k.org/
 CP2K| Program compiled at                          Thu May 12 10:08:29 UTC 2022
 CP2K| Program compiled on                                          80d7174ae3e8
 CP2K| Program compiled for                            linux-centos7-haswell-gcc
 CP2K| Data directory path    /share/apps/spack/envs/fgci-centos7-haswell/softwa
 CP2K| Input file name                                                 input.inp

 GLOBAL| Force Environment number                                              1
 GLOBAL| Basis set file name                                        BASIS_MOLOPT
 GLOBAL| Potential file name                                      GTH_POTENTIALS
 GLOBAL| MM Potential file name                                     MM_POTENTIAL
 GLOBAL| Coordinate file name                                MAPbI3-pos-last.xyz
 GLOBAL| Method name                                                        CP2K
 GLOBAL| Project name                                                 MAPbI3_DOS
 GLOBAL| Run type                                                         ENERGY
 GLOBAL| FFT library                                                       FFTW3
 GLOBAL| Diagonalization library                                       ScaLAPACK
 GLOBAL| Orthonormality check for eigenvectors                          DISABLED
 GLOBAL| Matrix multiplication library                                    SCALAP
 GLOBAL| All-to-all communication in single precision                          F
 GLOBAL| FFTs using library dependent lengths                                  F
 GLOBAL| Grid backend                                                       AUTO
 GLOBAL| Global print level                                               MEDIUM
 GLOBAL| MPI I/O enabled                                                       T
 GLOBAL| Total number of message passing processes                            48
 GLOBAL| Number of threads for this process                                    1
 GLOBAL| This output is from process                                           0
 GLOBAL| CPU model name                Intel(R) Xeon(R) CPU E5-2680 v4 @ 2.40GHz
 GLOBAL| CPUID                                                              1002

 MEMORY| system memory details [Kb]
 MEMORY|                        rank 0           min           max       average
 MEMORY| MemTotal            131936832     131936832     131936832     131936832
 MEMORY| MemFree             121344532     121344532     123296244     122308603
 MEMORY| Buffers                255576        255576        279616        267596
 MEMORY| Cached                2723604       1600520       2723604       2162062
 MEMORY| Slab                  1139588        566796       1139588        853192
 MEMORY| SReclaimable           232908        145660        232908        189284
 MEMORY| MemLikelyFree       124556620     124556620     125322040     124927545


 *** Fundamental physical constants (SI units) ***

 *** Literature: B. J. Mohr and B. N. Taylor,
 ***             CODATA recommended values of the fundamental physical
 ***             constants: 2006, Web Version 5.1
 ***             http://physics.nist.gov/constants

 Speed of light in vacuum [m/s]                             2.99792458000000E+08
 Magnetic constant or permeability of vacuum [N/A**2]       1.25663706143592E-06
 Electric constant or permittivity of vacuum [F/m]          8.85418781762039E-12
 Planck constant (h) [J*s]                                  6.62606896000000E-34
 Planck constant (h-bar) [J*s]                              1.05457162825177E-34
 Elementary charge [C]                                      1.60217648700000E-19
 Electron mass [kg]                                         9.10938215000000E-31
 Electron g factor [ ]                                     -2.00231930436220E+00
 Proton mass [kg]                                           1.67262163700000E-27
 Fine-structure constant                                    7.29735253760000E-03
 Rydberg constant [1/m]                                     1.09737315685270E+07
 Avogadro constant [1/mol]                                  6.02214179000000E+23
 Boltzmann constant [J/K]                                   1.38065040000000E-23
 Atomic mass unit [kg]                                      1.66053878200000E-27
 Bohr radius [m]                                            5.29177208590000E-11

 *** Conversion factors ***

 [u] -> [a.u.]                                              1.82288848426455E+03
 [Angstrom] -> [Bohr] = [a.u.]                              1.88972613288564E+00
 [a.u.] = [Bohr] -> [Angstrom]                              5.29177208590000E-01
 [a.u.] -> [s]                                              2.41888432650478E-17
 [a.u.] -> [fs]                                             2.41888432650478E-02
 [a.u.] -> [J]                                              4.35974393937059E-18
 [a.u.] -> [N]                                              8.23872205491840E-08
 [a.u.] -> [K]                                              3.15774647902944E+05
 [a.u.] -> [kJ/mol]                                         2.62549961709828E+03
 [a.u.] -> [kcal/mol]                                       6.27509468713739E+02
 [a.u.] -> [Pa]                                             2.94210107994716E+13
 [a.u.] -> [bar]                                            2.94210107994716E+08
 [a.u.] -> [atm]                                            2.90362800883016E+08
 [a.u.] -> [eV]                                             2.72113838565563E+01
 [a.u.] -> [Hz]                                             6.57968392072181E+15
 [a.u.] -> [1/cm] (wave numbers)                            2.19474631370540E+05
 [a.u./Bohr**2] -> [1/cm]                                   5.14048714338585E+03
 

 CELL_TOP| Volume [angstrom^3]:                                     90738.965184
 CELL_TOP| Vector a [angstrom    45.640     0.000     0.000   |a| =    45.640000
 CELL_TOP| Vector b [angstrom     0.000    44.940     0.000   |b| =    44.940000
 CELL_TOP| Vector c [angstrom     0.000     0.000    44.240   |c| =    44.240000
 CELL_TOP| Angle (b,c), alpha [degree]:                                90.000000
 CELL_TOP| Angle (a,c), beta  [degree]:                                90.000000
 CELL_TOP| Angle (a,b), gamma [degree]:                                90.000000
 CELL_TOP| Numerically orthorhombic:                                         YES

 GENERATE|  Preliminary Number of Bonds generated:                             0
 GENERATE|  Achieved consistency in connectivity generation.

 CELL| Volume [angstrom^3]:                                         90738.965184
 CELL| Vector a [angstrom]:      45.640     0.000     0.000   |a| =    45.640000
 CELL| Vector b [angstrom]:       0.000    44.940     0.000   |b| =    44.940000
 CELL| Vector c [angstrom]:       0.000     0.000    44.240   |c| =    44.240000
 CELL| Angle (b,c), alpha [degree]:                                    90.000000
 CELL| Angle (a,c), beta  [degree]:                                    90.000000
 CELL| Angle (a,b), gamma [degree]:                                    90.000000
 CELL| Numerically orthorhombic:                                             YES

 CELL_REF| Volume [angstrom^3]:                                     90738.965184
 CELL_REF| Vector a [angstrom    45.640     0.000     0.000   |a| =    45.640000
 CELL_REF| Vector b [angstrom     0.000    44.940     0.000   |b| =    44.940000
 CELL_REF| Vector c [angstrom     0.000     0.000    44.240   |c| =    44.240000
 CELL_REF| Angle (b,c), alpha [degree]:                                90.000000
 CELL_REF| Angle (a,c), beta  [degree]:                                90.000000
 CELL_REF| Angle (a,b), gamma [degree]:                                90.000000
 CELL_REF| Numerically orthorhombic:                                         YES

 *******************************************************************************
 *******************************************************************************
 **                                                                           **
 **     #####                         ##              ##                      **
 **    ##   ##            ##          ##              ##                      **
 **   ##     ##                       ##            ######                    **
 **   ##     ##  ##   ##  ##   #####  ##  ##   ####   ##    #####    #####    **
 **   ##     ##  ##   ##  ##  ##      ## ##   ##      ##   ##   ##  ##   ##   **
 **   ##  ## ##  ##   ##  ##  ##      ####     ###    ##   ######   ######    **
 **    ##  ###   ##   ##  ##  ##      ## ##      ##   ##   ##       ##        **
 **     #######   #####   ##   #####  ##  ##  ####    ##    #####   ##        **
 **           ##                                                    ##        **
 **                                                                           **
 **                                                ... make the atoms dance   **
 **                                                                           **
 **            Copyright (C) by CP2K developers group (2000-2021)             **
 **                      J. Chem. Phys. 152, 194103 (2020)                    **
 **                                                                           **
 *******************************************************************************

 DFT| Spin unrestricted (spin-polarized) Kohn-Sham calculation               UKS
 DFT| Multiplicity                                                             2
 DFT| Number of spin states                                                    2
 DFT| Charge                                                                   0
 DFT| Self-interaction correction (SIC)                                       NO
 DFT| Cutoffs: density                                              1.000000E-10
 DFT|          gradient                                             1.000000E-10
 DFT|          tau                                                  1.000000E-10
 DFT|          cutoff_smoothing_range                               0.000000E+00
 DFT| XC density smoothing                                                  NONE
 DFT| XC derivatives                                                          PW
 FUNCTIONAL| ROUTINE=NEW
 FUNCTIONAL| PBE:
 FUNCTIONAL| J.P.Perdew, K.Burke, M.Ernzerhof, Phys. Rev. Letter, vol. 77, n 18,
 FUNCTIONAL|  pp. 3865-3868, (1996){spin polarized}                             
 vdW POTENTIAL|                                                   Pair Potential
 vdW POTENTIAL|          DFT-D3 (Version 3.1)
 vdW POTENTIAL|          Potential Form: S. Grimme et al, JCP 132: 154104 (2010)
 vdW POTENTIAL|          Zero Damping
 vdW POTENTIAL|          Cutoff Radius [Bohr]:                             20.00
 vdW POTENTIAL|          s6 Scaling Factor:                               1.0000
 vdW POTENTIAL|          sr6 Scaling Factor:                              1.2170
 vdW POTENTIAL|          s8 Scaling Factor:                               0.7220
 vdW POTENTIAL|          Cutoff for CN calculation:                   0.1000E-05

 QS| Method:                                                                 GPW
 QS| Density plane wave grid type                        NON-SPHERICAL FULLSPACE
 QS| Number of grid levels:                                                    4
 QS| Density cutoff [a.u.]:                                                110.0
 QS| Multi grid cutoff [a.u.]: 1) grid level                               110.0
 QS|                           2) grid level                                36.7
 QS|                           3) grid level                                12.2
 QS|                           4) grid level                                 4.1
 QS| Grid level progression factor:                                          3.0
 QS| Relative density cutoff [a.u.]:                                        30.0
 QS| Interaction thresholds: eps_pgf_orb:                                1.0E-05
 QS|                         eps_filter_matrix:                          0.0E+00
 QS|                         eps_core_charge:                            1.0E-12
 QS|                         eps_rho_gspace:                             1.0E-10
 QS|                         eps_rho_rspace:                             1.0E-10
 QS|                         eps_gvg_rspace:                             1.0E-05
 QS|                         eps_ppl:                                    1.0E-02
 QS|                         eps_ppnl:                                   1.0E-07


 ATOMIC KIND INFORMATION

  1. Atomic kind: I                                     Number of atoms:     240

     Orbital Basis Set                                         SZV-MOLOPT-SR-GTH

       Number of orbital shell sets:                                           1
       Number of orbital shells:                                               2
       Number of primitive Cartesian functions:                                5
       Number of Cartesian basis functions:                                    4
       Number of spherical basis functions:                                    4
       Norm type:                                                              2

       Normalised Cartesian orbitals:

                        Set   Shell   Orbital            Exponent    Coefficient

                          1       1    2s                0.966173      -0.369082
                                                         0.828886      -0.032154
                                                         0.367159       0.255166
                                                         0.201369       0.106471
                                                         0.083015       0.018311

                          1       2    3px               0.966173      -1.009678
                                                         0.828886       0.783764
                                                         0.367159       0.107863
                                                         0.201369       0.101262
                                                         0.083015       0.016495
                          1       2    3py               0.966173      -1.009678
                                                         0.828886       0.783764
                                                         0.367159       0.107863
                                                         0.201369       0.101262
                                                         0.083015       0.016495
                          1       2    3pz               0.966173      -1.009678
                                                         0.828886       0.783764
                                                         0.367159       0.107863
                                                         0.201369       0.101262
                                                         0.083015       0.016495

       Atomic covalent radius [Angstrom]:                                  1.330

       Atomic van der Waals radius [Angstrom]:                             1.980

     GTH Potential information for                                       GTH-PBE

       Description:                       Goedecker-Teter-Hutter pseudopotential
                                           Goedecker et al., PRB 54, 1703 (1996)
                                          Hartwigsen et al., PRB 58, 3641 (1998)
                                                      Krack, TCA 114, 145 (2005)

       Gaussian exponent of the core charge distribution:               1.594388
       Electronic configuration (s p d ...):                               2   5

       Parameters of the local part of the GTH pseudopotential:

                          rloc        C1          C2          C3          C4
                        0.560000    8.207102

       Parameters of the non-local part of the GTH pseudopotential:

                   l      r(l)      h(i,j,l)

                   0    0.531928    2.308146    1.003909   -0.959156
                                    1.003909   -2.856109    2.476530
                                   -0.959156    2.476530   -1.965685
                   1    0.589182    0.906482    0.425071
                                    0.425071   -0.502950
                   2    0.739721    0.479195

  2. Atomic kind: Pb                                    Number of atoms:      64

     Orbital Basis Set                                         SZV-MOLOPT-SR-GTH

       Number of orbital shell sets:                                           1
       Number of orbital shells:                                               2
       Number of primitive Cartesian functions:                                5
       Number of Cartesian basis functions:                                    4
       Number of spherical basis functions:                                    4
       Norm type:                                                              2

       Normalised Cartesian orbitals:

                        Set   Shell   Orbital            Exponent    Coefficient

                          1       1    2s                1.933598      -0.156134
                                                         0.981425       0.419979
                                                         0.222223      -0.230246
                                                         0.077759      -0.022545
                                                         0.073968      -0.008640

                          1       2    3px               1.933598       0.064608
                                                         0.981425      -0.243154
                                                         0.222223       0.142297
                                                         0.077759       0.018505
                                                         0.073968       0.009435
                          1       2    3py               1.933598       0.064608
                                                         0.981425      -0.243154
                                                         0.222223       0.142297
                                                         0.077759       0.018505
                                                         0.073968       0.009435
                          1       2    3pz               1.933598       0.064608
                                                         0.981425      -0.243154
                                                         0.222223       0.142297
                                                         0.077759       0.018505
                                                         0.073968       0.009435

       Atomic covalent radius [Angstrom]:                                  1.470

       Atomic van der Waals radius [Angstrom]:                             2.020

     GTH Potential information for                                       GTH-PBE

       Description:                       Goedecker-Teter-Hutter pseudopotential
                                           Goedecker et al., PRB 54, 1703 (1996)
                                          Hartwigsen et al., PRB 58, 3641 (1998)
                                                      Krack, TCA 114, 145 (2005)

       Gaussian exponent of the core charge distribution:               1.311282
       Electronic configuration (s p d ...):                               2   2

       Parameters of the local part of the GTH pseudopotential:

                          rloc        C1          C2          C3          C4
                        0.617500    4.672384

       Parameters of the non-local part of the GTH pseudopotential:

                   l      r(l)      h(i,j,l)

                   0    0.622359    0.879918    2.081148   -1.431257
                                    2.081148   -5.014690    3.695490
                                   -1.431257    3.695490   -2.933204
                   1    0.812002    0.153457    0.478898
                                    0.478898   -0.566640
                   2    1.025015    0.301702

  3. Atomic kind: C                                     Number of atoms:      81

     Orbital Basis Set                                            SZV-MOLOPT-GTH

       Number of orbital shell sets:                                           1
       Number of orbital shells:                                               2
       Number of primitive Cartesian functions:                                7
       Number of Cartesian basis functions:                                    4
       Number of spherical basis functions:                                    4
       Norm type:                                                              2

       Normalised Cartesian orbitals:

                        Set   Shell   Orbital            Exponent    Coefficient

                          1       1    2s                6.132625      -0.263661
                                                         2.625196      -0.231112
                                                         1.045457       0.042712
                                                         0.478316       0.306085
                                                         0.178617       0.065483
                                                         0.075145       0.000568
                                                         0.030287       0.000417

                          1       2    3px               6.132625       0.562677
                                                         2.625196       0.633910
                                                         1.045457       0.379157
                                                         0.478316       0.235193
                                                         0.178617       0.052379
                                                         0.075145       0.003677
                                                         0.030287       0.000105
                          1       2    3py               6.132625       0.562677
                                                         2.625196       0.633910
                                                         1.045457       0.379157
                                                         0.478316       0.235193
                                                         0.178617       0.052379
                                                         0.075145       0.003677
                                                         0.030287       0.000105
                          1       2    3pz               6.132625       0.562677
                                                         2.625196       0.633910
                                                         1.045457       0.379157
                                                         0.478316       0.235193
                                                         0.178617       0.052379
                                                         0.075145       0.003677
                                                         0.030287       0.000105

       Atomic covalent radius [Angstrom]:                                  0.770

       Atomic van der Waals radius [Angstrom]:                             1.700

     GTH Potential information for                                       GTH-PBE

       Description:                       Goedecker-Teter-Hutter pseudopotential
                                           Goedecker et al., PRB 54, 1703 (1996)
                                          Hartwigsen et al., PRB 58, 3641 (1998)
                                                      Krack, TCA 114, 145 (2005)

       Gaussian exponent of the core charge distribution:               4.364419
       Electronic configuration (s p d ...):                               2   2

       Parameters of the local part of the GTH pseudopotential:

                          rloc        C1          C2          C3          C4
                        0.338471   -8.803674    1.339211

       Parameters of the non-local part of the GTH pseudopotential:

                   l      r(l)      h(i,j,l)

                   0    0.302576    9.622487
                   1    0.291507

  4. Atomic kind: N                                     Number of atoms:      81

     Orbital Basis Set                                            SZV-MOLOPT-GTH

       Number of orbital shell sets:                                           1
       Number of orbital shells:                                               2
       Number of primitive Cartesian functions:                                7
       Number of Cartesian basis functions:                                    4
       Number of spherical basis functions:                                    4
       Norm type:                                                              2

       Normalised Cartesian orbitals:

                        Set   Shell   Orbital            Exponent    Coefficient

                          1       1    2s                9.042730      -0.237404
                                                         3.882225      -0.265910
                                                         1.512880       0.102064
                                                         0.586631       0.295369
                                                         0.222851       0.088647
                                                         0.084583       0.003860
                                                         0.039194       0.000722

                          1       2    3px               9.042730       0.822162
                                                         3.882225       0.990771
                                                         1.512880       0.665657
                                                         0.586631       0.321705
                                                         0.222851       0.063706
                                                         0.084583       0.004155
                                                         0.039194      -0.000005
                          1       2    3py               9.042730       0.822162
                                                         3.882225       0.990771
                                                         1.512880       0.665657
                                                         0.586631       0.321705
                                                         0.222851       0.063706
                                                         0.084583       0.004155
                                                         0.039194      -0.000005
                          1       2    3pz               9.042730       0.822162
                                                         3.882225       0.990771
                                                         1.512880       0.665657
                                                         0.586631       0.321705
                                                         0.222851       0.063706
                                                         0.084583       0.004155
                                                         0.039194      -0.000005

       Atomic covalent radius [Angstrom]:                                  0.750

       Atomic van der Waals radius [Angstrom]:                             1.550

     GTH Potential information for                                       GTH-PBE

       Description:                       Goedecker-Teter-Hutter pseudopotential
                                           Goedecker et al., PRB 54, 1703 (1996)
                                          Hartwigsen et al., PRB 58, 3641 (1998)
                                                      Krack, TCA 114, 145 (2005)

       Gaussian exponent of the core charge distribution:               6.208322
       Electronic configuration (s p d ...):                               2   3

       Parameters of the local part of the GTH pseudopotential:

                          rloc        C1          C2          C3          C4
                        0.283791  -12.415226    1.868096

       Parameters of the non-local part of the GTH pseudopotential:

                   l      r(l)      h(i,j,l)

                   0    0.255405   13.630263
                   1    0.245495

  5. Atomic kind: H                                     Number of atoms:    2268

     Orbital Basis Set                                            SZV-MOLOPT-GTH

       Number of orbital shell sets:                                           1
       Number of orbital shells:                                               1
       Number of primitive Cartesian functions:                                7
       Number of Cartesian basis functions:                                    1
       Number of spherical basis functions:                                    1
       Norm type:                                                              2

       Normalised Cartesian orbitals:

                        Set   Shell   Orbital            Exponent    Coefficient

                          1       1    2s               11.478000       0.129129
                                                         3.700759       0.177012
                                                         1.446884       0.141285
                                                         0.716815       0.245670
                                                         0.247919       0.094768
                                                         0.066918       0.004062
                                                         0.021708      -0.000053

       Atomic covalent radius [Angstrom]:                                  0.320

       Atomic van der Waals radius [Angstrom]:                             1.090

     GTH Potential information for                                    GTH-PBE-q1

       Description:                       Goedecker-Teter-Hutter pseudopotential
                                           Goedecker et al., PRB 54, 1703 (1996)
                                          Hartwigsen et al., PRB 58, 3641 (1998)
                                                      Krack, TCA 114, 145 (2005)

       Gaussian exponent of the core charge distribution:              12.500000
       Electronic configuration (s p d ...):                                   1

       Parameters of the local part of the GTH pseudopotential:

                          rloc        C1          C2          C3          C4
                        0.200000   -4.178900    0.724463

  6. Atomic kind: O                                     Number of atoms:     891

     Orbital Basis Set                                            SZV-MOLOPT-GTH

       Number of orbital shell sets:                                           1
       Number of orbital shells:                                               2
       Number of primitive Cartesian functions:                                7
       Number of Cartesian basis functions:                                    4
       Number of spherical basis functions:                                    4
       Norm type:                                                              2

       Normalised Cartesian orbitals:

                        Set   Shell   Orbital            Exponent    Coefficient

                          1       1    2s               12.015955      -0.284499
                                                         5.108150      -0.322498
                                                         2.048398       0.148191
                                                         0.832382       0.295475
                                                         0.352316       0.150829
                                                         0.142977       0.015788
                                                         0.046761      -0.000019

                          1       2    3px              12.015955       1.192141
                                                         5.108150       1.354170
                                                         2.048398       0.897267
                                                         0.832382       0.408839
                                                         0.352316       0.116648
                                                         0.142977       0.022184
                                                         0.046761       0.000308
                          1       2    3py              12.015955       1.192141
                                                         5.108150       1.354170
                                                         2.048398       0.897267
                                                         0.832382       0.408839
                                                         0.352316       0.116648
                                                         0.142977       0.022184
                                                         0.046761       0.000308
                          1       2    3pz              12.015955       1.192141
                                                         5.108150       1.354170
                                                         2.048398       0.897267
                                                         0.832382       0.408839
                                                         0.352316       0.116648
                                                         0.142977       0.022184
                                                         0.046761       0.000308

       Atomic covalent radius [Angstrom]:                                  0.730

       Atomic van der Waals radius [Angstrom]:                             1.520

     GTH Potential information for                                    GTH-PBE-q6

       Description:                       Goedecker-Teter-Hutter pseudopotential
                                           Goedecker et al., PRB 54, 1703 (1996)
                                          Hartwigsen et al., PRB 58, 3641 (1998)
                                                      Krack, TCA 114, 145 (2005)

       Gaussian exponent of the core charge distribution:               8.360253
       Electronic configuration (s p d ...):                               2   4

       Parameters of the local part of the GTH pseudopotential:

                          rloc        C1          C2          C3          C4
                        0.244554  -16.667215    2.487311

       Parameters of the non-local part of the GTH pseudopotential:

                   l      r(l)      h(i,j,l)

                   0    0.220956   18.337458
                   1    0.211332


 MOLECULE KIND INFORMATION


 All atoms are their own molecule, skipping detailed information


 TOTAL NUMBERS AND MAXIMUM NUMBERS

  Total number of            - Atomic kinds:                                   6
                             - Atoms:                                       3625
                             - Shell sets:                                  3625
                             - Shells:                                      4982
                             - Primitive Cartesian functions:              24767
                             - Cartesian basis functions:                   7696
                             - Spherical basis functions:                   7696

  Maximum angular momentum of- Orbital basis functions:                        1
                             - Local part of the GTH pseudopotential:          2
                             - Non-local part of the GTH pseudopotential:      4


 MODULE QUICKSTEP:  ATOMIC COORDINATES IN angstrom

  Atom  Kind  Element       X           Y           Z          Z(eff)       Mass

       1     1 I   53   12.487431   12.782177    8.949056      7.0000     126.9045
       2     1 I   53   19.233647   13.394625    8.876102      7.0000     126.9045
       3     1 I   53   25.193015   12.825446    9.085306      7.0000     126.9045
       4     1 I   53   31.118981   13.418616    8.909395      7.0000     126.9045
       5     1 I   53   13.070702   19.296467    8.832195      7.0000     126.9045
       6     1 I   53   18.809683   19.104139    8.817633      7.0000     126.9045
       7     1 I   53   25.233270   19.126269    8.965418      7.0000     126.9045
       8     1 I   53   30.963393   19.292830    9.009453      7.0000     126.9045
       9     1 I   53   12.912475   25.503662    9.025752      7.0000     126.9045
      10     1 I   53   18.630964   25.454922    8.858488      7.0000     126.9045
      11     1 I   53   25.133639   25.337498    8.889573      7.0000     126.9045
      12     1 I   53   30.899851   25.418233    9.069387      7.0000     126.9045
      13     1 I   53   12.255786   31.875679    9.105241      7.0000     126.9045
      14     1 I   53   19.529315   31.813450    9.044836      7.0000     126.9045
      15     1 I   53   25.050919   31.766733    9.013403      7.0000     126.9045
      16     1 I   53   30.836710   31.548044    8.959020      7.0000     126.9045
      17     1 I   53   12.804671    9.250774   12.294164      7.0000     126.9045
      18     1 I   53   18.711216    9.552003   12.978459      7.0000     126.9045
      19     1 I   53   24.885106    9.446407   12.710451      7.0000     126.9045
      20     1 I   53   31.618745    9.858019   12.160202      7.0000     126.9045
      21     1 I   53    9.753400   11.560403   12.327551      7.0000     126.9045
      22     1 I   53   12.603902   12.845534   15.455950      7.0000     126.9045
      23     1 I   53   11.854080   15.944276   11.994178      7.0000     126.9045
      24     1 I   53   15.821949   12.677767   11.713927      7.0000     126.9045
      25     1 I   53   18.641735   11.725802   15.368604      7.0000     126.9045
      26     1 I   53   18.517911   15.866212   12.745736      7.0000     126.9045
      27     1 I   53   22.115179   13.036020   12.442309      7.0000     126.9045
      28     1 I   53   25.388551   12.836453   15.635676      7.0000     126.9045
      29     1 I   53   25.811875   15.918692   12.263537      7.0000     126.9045
      30     1 I   53   28.431868   12.543369   12.362825      7.0000     126.9045
      31     1 I   53   31.277342   12.959159   15.600761      7.0000     126.9045
      32     1 I   53   30.964856   16.140341   12.592039      7.0000     126.9045
      33     1 I   53   34.812899   13.759509   12.164877      7.0000     126.9045
      34     1 I   53    8.963156   19.145222   13.198949      7.0000     126.9045
      35     1 I   53   12.510984   18.955903   15.328397      7.0000     126.9045
      36     1 I   53   11.960314   22.132762   12.089664      7.0000     126.9045
      37     1 I   53   15.924721   19.407798   12.189162      7.0000     126.9045
      38     1 I   53   18.912027   19.054446   15.360118      7.0000     126.9045
      39     1 I   53   19.714052   22.216744   12.161472      7.0000     126.9045
      40     1 I   53   22.251665   18.265020   12.077715      7.0000     126.9045
      41     1 I   53   25.165738   18.993205   15.467325      7.0000     126.9045
      42     1 I   53   24.783129   22.229481   12.444383      7.0000     126.9045
      43     1 I   53   28.559921   19.746160   12.479595      7.0000     126.9045
      44     1 I   53   31.705039   19.183762   15.473968      7.0000     126.9045
      45     1 I   53   32.006287   22.346988   12.402759      7.0000     126.9045
      46     1 I   53   35.194166   19.169077   12.416528      7.0000     126.9045
      47     1 I   53    9.424992   25.530822   12.276395      7.0000     126.9045
      48     1 I   53   12.581276   25.298950   15.467815      7.0000     126.9045
      49     1 I   53   12.862156   28.658909   12.419134      7.0000     126.9045
      50     1 I   53   15.874411   24.622795   12.255723      7.0000     126.9045
      51     1 I   53   18.945763   25.322438   15.404510      7.0000     126.9045
      52     1 I   53   18.248991   28.628347   12.241880      7.0000     126.9045
      53     1 I   53   22.159169   26.049070   12.080813      7.0000     126.9045
      54     1 I   53   25.082949   25.352475   15.436962      7.0000     126.9045
      55     1 I   53   25.932637   28.613133   12.170317      7.0000     126.9045
      56     1 I   53   28.487614   24.878688   12.631406      7.0000     126.9045
      57     1 I   53   31.794371   25.540966   15.515370      7.0000     126.9045
      58     1 I   53   31.283277   28.713235   12.390697      7.0000     126.9045
      59     1 I   53   34.952655   25.622041   12.034715      7.0000     126.9045
      60     1 I   53    9.337541   31.944545   12.519481      7.0000     126.9045
      61     1 I   53   12.393431   31.805373   15.671380      7.0000     126.9045
      62     1 I   53   12.362175   35.303649   12.523016      7.0000     126.9045
      63     1 I   53   15.867996   32.492690   11.708462      7.0000     126.9045
      64     1 I   53   18.902686   31.520508   15.516419      7.0000     126.9045
      65     1 I   53   19.319889   35.165847   12.875246      7.0000     126.9045
      66     1 I   53   22.157586   31.205209   12.456441      7.0000     126.9045
      67     1 I   53   25.266407   31.581253   15.550371      7.0000     126.9045
      68     1 I   53   24.812013   35.402650   12.697433      7.0000     126.9045
      69     1 I   53   28.337166   32.162489   12.434097      7.0000     126.9045
      70     1 I   53   31.422774   31.476153   15.526993      7.0000     126.9045
      71     1 I   53   31.103909   35.354587   12.697776      7.0000     126.9045
      72     1 I   53   34.798856   31.643322   12.131136      7.0000     126.9045
      73     1 I   53   12.946606    9.575327   19.101542      7.0000     126.9045
      74     1 I   53   18.871860    9.242000   19.142289      7.0000     126.9045
      75     1 I   53   25.423871    9.354846   18.969917      7.0000     126.9045
      76     1 I   53   31.318066    9.736958   18.849765      7.0000     126.9045
      77     1 I   53    9.639758   13.262252   18.755657      7.0000     126.9045
      78     1 I   53   12.917003   12.895410   21.885782      7.0000     126.9045
      79     1 I   53   13.172475   15.949705   18.770665      7.0000     126.9045
      80     1 I   53   15.970630   12.654510   18.391985      7.0000     126.9045
      81     1 I   53   19.227072   12.836121   21.856765      7.0000     126.9045
      82     1 I   53   18.964822   15.794089   18.754937      7.0000     126.9045
      83     1 I   53   22.243225   12.630306   18.282596      7.0000     126.9045
      84     1 I   53   24.884344   12.620794   22.003330      7.0000     126.9045
      85     1 I   53   25.422468   15.819173   18.964577      7.0000     126.9045
      86     1 I   53   28.643396   12.811712   19.109815      7.0000     126.9045
      87     1 I   53   31.941333   12.976038   22.105756      7.0000     126.9045
      88     1 I   53   31.988499   15.842840   18.774368      7.0000     126.9045
      89     1 I   53   36.340376   14.103139   19.034038      7.0000     126.9045
      90     1 I   53    9.327172   18.722783   18.381688      7.0000     126.9045
      91     1 I   53   12.806614   19.018287   21.885202      7.0000     126.9045
      92     1 I   53   12.264758   22.285785   18.884681      7.0000     126.9045
      93     1 I   53   15.866411   19.472283   18.386297      7.0000     126.9045
      94     1 I   53   19.048142   19.024735   21.832798      7.0000     126.9045
      95     1 I   53   19.490474   22.245582   18.738473      7.0000     126.9045
      96     1 I   53   22.308836   18.801591   18.547016      7.0000     126.9045
      97     1 I   53   25.451482   19.037445   21.891816      7.0000     126.9045
      98     1 I   53   25.279221   22.226541   18.869326      7.0000     126.9045
      99     1 I   53   28.807237   19.065178   18.537219      7.0000     126.9045
     100     1 I   53   31.898222   19.134913   21.870439      7.0000     126.9045
     101     1 I   53   32.149598   22.248026   18.645001      7.0000     126.9045
     102     1 I   53   35.590888   19.047755   18.553781      7.0000     126.9045
     103     1 I   53    9.383147   25.840290   18.454499      7.0000     126.9045
     104     1 I   53   12.747646   25.334409   21.915379      7.0000     126.9045
     105     1 I   53   12.977727   28.730603   18.868941      7.0000     126.9045
     106     1 I   53   15.902921   25.067771   18.485174      7.0000     126.9045
     107     1 I   53   18.966071   25.302909   21.883603      7.0000     126.9045
     108     1 I   53   18.836382   28.693036   18.930679      7.0000     126.9045
     109     1 I   53   22.332755   25.869976   18.635150      7.0000     126.9045
     110     1 I   53   25.477916   25.370692   21.876225      7.0000     126.9045
     111     1 I   53   25.853931   28.690399   18.712088      7.0000     126.9045
     112     1 I   53   28.790884   25.160898   18.467932      7.0000     126.9045
     113     1 I   53   31.737861   25.197224   21.865054      7.0000     126.9045
     114     1 I   53   31.550506   28.640669   19.076190      7.0000     126.9045
     115     1 I   53   35.582442   25.308549   18.524432      7.0000     126.9045
     116     1 I   53    9.407227   31.671081   18.997289      7.0000     126.9045
     117     1 I   53   13.143474   31.507168   21.994542      7.0000     126.9045
     118     1 I   53   12.587170   35.645000   19.145219      7.0000     126.9045
     119     1 I   53   15.840834   32.106002   18.565845      7.0000     126.9045
     120     1 I   53   19.043175   31.603545   21.975334      7.0000     126.9045
     121     1 I   53   18.679166   35.392307   18.897021      7.0000     126.9045
     122     1 I   53   22.304574   31.935101   18.738303      7.0000     126.9045
     123     1 I   53   25.342670   31.504706   21.940457      7.0000     126.9045
     124     1 I   53   25.263935   35.320666   19.013626      7.0000     126.9045
     125     1 I   53   28.900727   32.437773   18.828947      7.0000     126.9045
     126     1 I   53   32.348957   32.086549   21.816522      7.0000     126.9045
     127     1 I   53   30.750725   36.836420   20.417391      7.0000     126.9045
     128     1 I   53   35.726289   30.584493   18.902791      7.0000     126.9045
     129     1 I   53   13.554579    9.227040   24.818490      7.0000     126.9045
     130     1 I   53   18.918856    9.317261   25.352423      7.0000     126.9045
     131     1 I   53   25.821934    9.392480   25.261458      7.0000     126.9045
     132     1 I   53   31.055043    9.434230   25.364152      7.0000     126.9045
     133     1 I   53    9.836105   13.150632   24.983839      7.0000     126.9045
     134     1 I   53   12.855594   12.456851   28.296781      7.0000     126.9045
     135     1 I   53   12.988864   15.782622   25.397293      7.0000     126.9045
     136     1 I   53   16.192240   13.005734   24.829466      7.0000     126.9045
     137     1 I   53   18.963904   12.831420   28.324244      7.0000     126.9045
     138     1 I   53   19.658965   15.839603   25.111520      7.0000     126.9045
     139     1 I   53   22.498269   12.332756   25.435232      7.0000     126.9045
     140     1 I   53   25.927336   12.992305   28.275281      7.0000     126.9045
     141     1 I   53   25.363259   15.885418   25.232096      7.0000     126.9045
     142     1 I   53   28.753081   13.008135   24.511381      7.0000     126.9045
     143     1 I   53   31.488226   13.048596   28.278564      7.0000     126.9045
     144     1 I   53   32.133144   15.856025   25.254920      7.0000     126.9045
     145     1 I   53   35.888889   13.304050   24.784083      7.0000     126.9045
     146     1 I   53    9.876882   19.062136   25.253092      7.0000     126.9045
     147     1 I   53   13.044634   19.015308   28.398883      7.0000     126.9045
     148     1 I   53   13.040248   22.204222   25.298890      7.0000     126.9045
     149     1 I   53   16.242399   18.872790   24.945774      7.0000     126.9045
     150     1 I   53   19.301252   19.024715   28.320338      7.0000     126.9045
     151     1 I   53   19.086170   22.257236   25.290819      7.0000     126.9045
     152     1 I   53   22.579679   19.456134   24.955546      7.0000     126.9045
     153     1 I   53   25.619046   19.103607   28.332257      7.0000     126.9045
     154     1 I   53   26.043869   22.247880   25.090881      7.0000     126.9045
     155     1 I   53   29.017044   18.891394   24.980379      7.0000     126.9045
     156     1 I   53   32.127233   19.219241   28.319807      7.0000     126.9045
     157     1 I   53   32.272573   22.229943   25.040156      7.0000     126.9045
     158     1 I   53   35.791452   19.021689   24.982754      7.0000     126.9045
     159     1 I   53    9.381610   25.257700   24.873964      7.0000     126.9045
     160     1 I   53   12.620665   25.279895   28.378771      7.0000     126.9045
     161     1 I   53   12.568252   28.658839   25.450730      7.0000     126.9045
     162     1 I   53   16.004026   25.678653   25.030199      7.0000     126.9045
     163     1 I   53   19.330831   25.396213   28.345969      7.0000     126.9045
     164     1 I   53   19.410760   28.718002   25.183693      7.0000     126.9045
     165     1 I   53   22.525369   25.266711   24.897198      7.0000     126.9045
     166     1 I   53   25.595012   25.286082   28.333098      7.0000     126.9045
     167     1 I   53   25.531884   28.655369   25.256181      7.0000     126.9045
     168     1 I   53   29.053239   25.662245   25.035436      7.0000     126.9045
     169     1 I   53   32.059072   25.164123   28.283035      7.0000     126.9045
     170     1 I   53   32.385701   28.695825   24.737039      7.0000     126.9045
     171     1 I   53   35.757990   25.239290   24.810662      7.0000     126.9045
     172     1 I   53    9.595560   31.952992   24.452305      7.0000     126.9045
     173     1 I   53   11.974250   32.079413   28.216206      7.0000     126.9045
     174     1 I   53   12.815690   35.225015   24.872581      7.0000     126.9045
     175     1 I   53   15.963280   31.788780   25.472805      7.0000     126.9045
     176     1 I   53   19.342593   31.538570   28.385221      7.0000     126.9045
     177     1 I   53   18.386382   35.733479   25.237788      7.0000     126.9045
     178     1 I   53   22.412459   32.126546   25.141328      7.0000     126.9045
     179     1 I   53   25.782950   31.494467   28.356181      7.0000     126.9045
     180     1 I   53   25.242310   35.321414   25.192392      7.0000     126.9045
     181     1 I   53   28.966423   31.856272   24.836391      7.0000     126.9045
     182     1 I   53   31.756910   31.255108   28.122068      7.0000     126.9045
     183     1 I   53   30.649010   36.484052   25.241508      7.0000     126.9045
     184     1 I   53   36.002415   31.063009   25.295234      7.0000     126.9045
     185     1 I   53   13.151412    9.784917   31.947329      7.0000     126.9045
     186     1 I   53   19.409240    9.860657   31.716993      7.0000     126.9045
     187     1 I   53   25.859592    9.606184   31.077838      7.0000     126.9045
     188     1 I   53   31.285045    9.667897   31.602633      7.0000     126.9045
     189     1 I   53    9.872168   13.250665   31.212556      7.0000     126.9045
     190     1 I   53   12.958098   13.227374   34.939447      7.0000     126.9045
     191     1 I   53   12.845949   16.243944   31.917715      7.0000     126.9045
     192     1 I   53   16.132132   13.263995   31.261404      7.0000     126.9045
     193     1 I   53   20.242126   13.390589   34.862138      7.0000     126.9045
     194     1 I   53   19.232126   16.160084   31.686664      7.0000     126.9045
     195     1 I   53   22.527134   13.089432   30.852449      7.0000     126.9045
     196     1 I   53   25.385975   12.727632   34.865302      7.0000     126.9045
     197     1 I   53   25.749534   16.015474   31.587768      7.0000     126.9045
     198     1 I   53   28.829544   13.215801   31.360442      7.0000     126.9045
     199     1 I   53   31.113719   13.230718   34.758662      7.0000     126.9045
     200     1 I   53   32.324462   15.953402   31.367287      7.0000     126.9045
     201     1 I   53   35.472526   12.405546   30.117336      7.0000     126.9045
     202     1 I   53    9.761937   19.418707   31.044791      7.0000     126.9045
     203     1 I   53   13.288713   19.556921   34.952305      7.0000     126.9045
     204     1 I   53   12.303110   22.521445   31.943379      7.0000     126.9045
     205     1 I   53   16.319667   19.502056   31.365907      7.0000     126.9045
     206     1 I   53   19.708385   19.281352   35.058847      7.0000     126.9045
     207     1 I   53   19.727678   22.330991   31.481390      7.0000     126.9045
     208     1 I   53   22.761801   19.177525   31.367091      7.0000     126.9045
     209     1 I   53   26.082871   19.226854   35.049241      7.0000     126.9045
     210     1 I   53   26.106536   22.288234   31.472277      7.0000     126.9045
     211     1 I   53   29.212814   19.123336   31.278717      7.0000     126.9045
     212     1 I   53   31.960986   19.147439   34.953262      7.0000     126.9045
     213     1 I   53   32.680369   22.285364   31.922183      7.0000     126.9045
     214     1 I   53   35.886354   18.974440   31.312766      7.0000     126.9045
     215     1 I   53    9.958876   26.074453   31.671493      7.0000     126.9045
     216     1 I   53   13.527327   25.480919   34.877512      7.0000     126.9045
     217     1 I   53   13.756129   28.645571   31.111608      7.0000     126.9045
     218     1 I   53   16.299984   24.961752   31.227373      7.0000     126.9045
     219     1 I   53   19.498031   25.262375   35.056545      7.0000     126.9045
     220     1 I   53   19.232225   28.617149   31.779598      7.0000     126.9045
     221     1 I   53   22.730235   25.500235   31.454654      7.0000     126.9045
     222     1 I   53   26.020227   25.227219   35.039090      7.0000     126.9045
     223     1 I   53   25.732164   28.595950   31.641776      7.0000     126.9045
     224     1 I   53   29.250508   25.679999   31.518488      7.0000     126.9045
     225     1 I   53   32.514054   25.834965   34.847227      7.0000     126.9045
     226     1 I   53   32.898162   28.607997   31.201806      7.0000     126.9045
     227     1 I   53   35.866856   25.329729   31.332163      7.0000     126.9045
     228     1 I   53    9.962769   31.227508   31.139939      7.0000     126.9045
     229     1 I   53   13.244651   31.236059   34.701277      7.0000     126.9045
     230     1 I   53   12.979269   35.030779   31.700343      7.0000     126.9045
     231     1 I   53   16.357142   31.956764   31.225746      7.0000     126.9045
     232     1 I   53   20.124444   31.705682   34.958320      7.0000     126.9045
     233     1 I   53   19.802753   35.075493   31.278198      7.0000     126.9045
     234     1 I   53   22.725876   31.581300   31.067791      7.0000     126.9045
     235     1 I   53   25.328054   31.406279   34.955609      7.0000     126.9045
     236     1 I   53   25.534126   35.376084   31.271583      7.0000     126.9045
     237     1 I   53   29.089809   31.126943   31.009817      7.0000     126.9045
     238     1 I   53   30.862772   31.571116   34.246244      7.0000     126.9045
     239     1 I   53   30.595985   36.175339   30.742009      7.0000     126.9045
     240     1 I   53   35.712742   32.439849   29.809869      7.0000     126.9045
     241     2 Pb  82   12.578675   12.880595   12.050626      4.0000     207.2000
     242     2 Pb  82   18.971097   12.942467   11.926776      4.0000     207.2000
     243     2 Pb  82   25.294826   12.514614   12.229545      4.0000     207.2000
     244     2 Pb  82   31.675097   13.000284   11.957001      4.0000     207.2000
     245     2 Pb  82   12.916544   19.217495   11.938151      4.0000     207.2000
     246     2 Pb  82   19.332840   19.145189   12.131118      4.0000     207.2000
     247     2 Pb  82   25.555044   19.081009   12.166779      4.0000     207.2000
     248     2 Pb  82   31.992974   19.163117   12.243734      4.0000     207.2000
     249     2 Pb  82   12.648647   25.577213   12.163359      4.0000     207.2000
     250     2 Pb  82   18.931699   25.561625   12.058301      4.0000     207.2000
     251     2 Pb  82   25.361345   25.497972   12.149577      4.0000     207.2000
     252     2 Pb  82   31.672878   25.519922   12.224494      4.0000     207.2000
     253     2 Pb  82   12.404498   32.203965   12.232558      4.0000     207.2000
     254     2 Pb  82   18.984017   32.079632   12.147896      4.0000     207.2000
     255     2 Pb  82   25.141852   32.185232   12.162564      4.0000     207.2000
     256     2 Pb  82   31.512735   32.014258   12.076314      4.0000     207.2000
     257     2 Pb  82   12.729911   12.638207   18.710629      4.0000     207.2000
     258     2 Pb  82   19.196170   12.376060   18.760023      4.0000     207.2000
     259     2 Pb  82   25.651592   12.494551   18.926820      4.0000     207.2000
     260     2 Pb  82   32.932116   12.328970   18.162818      4.0000     207.2000
     261     2 Pb  82   12.706124   19.047857   18.640582      4.0000     207.2000
     262     2 Pb  82   19.239459   18.964776   18.684012      4.0000     207.2000
     263     2 Pb  82   25.752929   18.990645   18.716224      4.0000     207.2000
     264     2 Pb  82   32.519331   18.886151   18.705346      4.0000     207.2000
     265     2 Pb  82   12.698482   25.525928   18.693038      4.0000     207.2000
     266     2 Pb  82   19.242390   25.407059   18.675711      4.0000     207.2000
     267     2 Pb  82   25.738835   25.415169   18.681754      4.0000     207.2000
     268     2 Pb  82   32.496432   25.328418   18.682624      4.0000     207.2000
     269     2 Pb  82   12.569105   32.207090   18.804004      4.0000     207.2000
     270     2 Pb  82   19.150248   31.903168   18.734850      4.0000     207.2000
     271     2 Pb  82   25.803913   31.950396   18.751577      4.0000     207.2000
     272     2 Pb  82   32.756581   31.463818   18.718615      4.0000     207.2000
     273     2 Pb  82   12.965225   12.452421   25.165032      4.0000     207.2000
     274     2 Pb  82   19.337870   12.430537   25.276340      4.0000     207.2000
     275     2 Pb  82   25.801574   12.517748   25.165939      4.0000     207.2000
     276     2 Pb  82   32.820133   12.383102   25.417466      4.0000     207.2000
     277     2 Pb  82   12.994305   18.995422   25.242464      4.0000     207.2000
     278     2 Pb  82   19.494788   18.951031   25.212308      4.0000     207.2000
     279     2 Pb  82   25.938814   18.979185   25.207424      4.0000     207.2000
     280     2 Pb  82   32.693130   18.911981   25.168159      4.0000     207.2000
     281     2 Pb  82   12.847019   25.475668   25.221813      4.0000     207.2000
     282     2 Pb  82   19.442060   25.355693   25.208291      4.0000     207.2000
     283     2 Pb  82   25.985013   25.361187   25.213149      4.0000     207.2000
     284     2 Pb  82   32.653149   25.341251   25.105069      4.0000     207.2000
     285     2 Pb  82   12.754010   32.101231   25.093926      4.0000     207.2000
     286     2 Pb  82   19.304254   31.822700   25.259916      4.0000     207.2000
     287     2 Pb  82   25.897438   31.783524   25.203903      4.0000     207.2000
     288     2 Pb  82   32.994492   31.795650   25.347862      4.0000     207.2000
     289     2 Pb  82   12.979027   12.879059   31.839873      4.0000     207.2000
     290     2 Pb  82   19.605377   12.965761   31.881775      4.0000     207.2000
     291     2 Pb  82   25.757259   12.751624   31.705096      4.0000     207.2000
     292     2 Pb  82   32.790485   12.502512   31.759905      4.0000     207.2000
     293     2 Pb  82   13.189806   19.353981   31.796471      4.0000     207.2000
     294     2 Pb  82   19.676469   19.232785   32.001091      4.0000     207.2000
     295     2 Pb  82   26.063817   19.112494   31.963915      4.0000     207.2000
     296     2 Pb  82   32.485454   18.996427   31.764064      4.0000     207.2000
     297     2 Pb  82   13.190245   25.644256   31.797684      4.0000     207.2000
     298     2 Pb  82   19.608560   25.481724   31.961476      4.0000     207.2000
     299     2 Pb  82   26.118131   25.373089   31.961754      4.0000     207.2000
     300     2 Pb  82   32.694171   25.435450   31.717328      4.0000     207.2000
     301     2 Pb  82   13.210761   31.918301   31.701887      4.0000     207.2000
     302     2 Pb  82   19.690033   31.932253   31.885613      4.0000     207.2000
     303     2 Pb  82   25.909279   31.695795   31.917999      4.0000     207.2000
     304     2 Pb  82   33.158780   31.789968   31.472087      4.0000     207.2000
     305     3 C    6   15.596216   15.895361    8.931575      4.0000      12.0107
     306     3 C    6   22.097622   16.128059    8.571581      4.0000      12.0107
     307     3 C    6   27.865059   16.015159    8.901222      4.0000      12.0107
     308     3 C    6   15.747922   22.302857    8.903862      4.0000      12.0107
     309     3 C    6   21.856229   22.095252    8.823245      4.0000      12.0107
     310     3 C    6   27.904146   22.227425    9.149708      4.0000      12.0107
     311     3 C    6   15.503978   28.764859    8.900779      4.0000      12.0107
     312     3 C    6   22.034300   28.332377    8.885537      4.0000      12.0107
     313     3 C    6   27.909917   28.429526    8.746925      4.0000      12.0107
     314     3 C    6   15.177980    9.492159   15.201646      4.0000      12.0107
     315     3 C    6   22.176219    9.746401   15.484616      4.0000      12.0107
     316     3 C    6   28.181055    9.669782   15.361609      4.0000      12.0107
     317     3 C    6    9.433475   15.767595   15.352258      4.0000      12.0107
     318     3 C    6   15.519564   15.928748   15.377670      4.0000      12.0107
     319     3 C    6   22.008810   15.897709   15.356128      4.0000      12.0107
     320     3 C    6   28.151405   16.025287   15.358064      4.0000      12.0107
     321     3 C    6   34.631410   16.341849   15.363619      4.0000      12.0107
     322     3 C    6    9.488693   22.226259   15.376310      4.0000      12.0107
     323     3 C    6   15.757062   22.136714   15.282208      4.0000      12.0107
     324     3 C    6   21.985723   22.141223   15.302795      4.0000      12.0107
     325     3 C    6   28.195317   22.142121   15.485291      4.0000      12.0107
     326     3 C    6   34.561098   22.459955   15.334915      4.0000      12.0107
     327     3 C    6    9.549850   28.430791   15.346192      4.0000      12.0107
     328     3 C    6   15.721170   28.421883   15.361660      4.0000      12.0107
     329     3 C    6   22.003945   28.445323   15.253948      4.0000      12.0107
     330     3 C    6   28.171381   28.311709   15.339729      4.0000      12.0107
     331     3 C    6   34.658740   28.696782   15.220942      4.0000      12.0107
     332     3 C    6   15.684569   34.679765   15.462086      4.0000      12.0107
     333     3 C    6   22.026557   34.537017   15.612965      4.0000      12.0107
     334     3 C    6   27.972713   34.568564   15.548035      4.0000      12.0107
     335     3 C    6   15.813431    9.817289   21.762981      4.0000      12.0107
     336     3 C    6   22.027421    9.556187   21.893195      4.0000      12.0107
     337     3 C    6   28.480060    9.663270   21.846203      4.0000      12.0107
     338     3 C    6    9.739187   16.024033   21.778208      4.0000      12.0107
     339     3 C    6   15.889512   15.884242   21.653535      4.0000      12.0107
     340     3 C    6   22.097434   15.926468   21.675911      4.0000      12.0107
     341     3 C    6   28.500824   16.030561   21.648225      4.0000      12.0107
     342     3 C    6   34.631590   16.359465   21.890080      4.0000      12.0107
     343     3 C    6    9.709444   22.056124   21.791468      4.0000      12.0107
     344     3 C    6   15.864032   22.144661   21.680757      4.0000      12.0107
     345     3 C    6   22.223621   22.148643   21.653772      4.0000      12.0107
     346     3 C    6   28.488407   22.141099   21.624265      4.0000      12.0107
     347     3 C    6   34.944526   22.207860   21.511248      4.0000      12.0107
     348     3 C    6    9.739275   28.384949   21.778351      4.0000      12.0107
     349     3 C    6   15.870717   28.396607   21.676148      4.0000      12.0107
     350     3 C    6   22.198472   28.479570   21.681779      4.0000      12.0107
     351     3 C    6   28.366748   28.337179   21.653519      4.0000      12.0107
     352     3 C    6   34.649125   27.771100   21.651563      4.0000      12.0107
     353     3 C    6   15.752950   34.582966   21.983988      4.0000      12.0107
     354     3 C    6   22.094971   34.672594   21.979620      4.0000      12.0107
     355     3 C    6   28.014851   34.429098   21.988602      4.0000      12.0107
     356     3 C    6   15.801614    9.673144   28.315845      4.0000      12.0107
     357     3 C    6   21.886468    9.918484   28.407249      4.0000      12.0107
     358     3 C    6   28.220090    9.677775   28.172188      4.0000      12.0107
     359     3 C    6    9.761842   15.980185   28.081973      4.0000      12.0107
     360     3 C    6   15.991022   15.993891   27.961686      4.0000      12.0107
     361     3 C    6   22.332611   15.995092   27.961047      4.0000      12.0107
     362     3 C    6   28.509134   16.113494   27.953396      4.0000      12.0107
     363     3 C    6   34.959872   16.111457   27.837767      4.0000      12.0107
     364     3 C    6    9.763363   22.204211   28.072673      4.0000      12.0107
     365     3 C    6   16.088115   22.152361   27.962523      4.0000      12.0107
     366     3 C    6   22.331860   22.166052   28.069417      4.0000      12.0107
     367     3 C    6   28.722764   22.149290   28.039867      4.0000      12.0107
     368     3 C    6   34.989618   22.123979   27.872981      4.0000      12.0107
     369     3 C    6    9.648743   28.344448   28.079670      4.0000      12.0107
     370     3 C    6   16.098293   28.444139   27.958674      4.0000      12.0107
     371     3 C    6   22.324815   28.370441   27.980423      4.0000      12.0107
     372     3 C    6   28.597940   28.232408   27.956152      4.0000      12.0107
     373     3 C    6   34.915814   28.110054   27.891733      4.0000      12.0107
     374     3 C    6   15.957885   34.683031   28.403162      4.0000      12.0107
     375     3 C    6   22.227979   34.658079   28.285433      4.0000      12.0107
     376     3 C    6   28.325756   34.418844   28.085589      4.0000      12.0107
     377     3 C    6   16.321393   15.903589   34.716398      4.0000      12.0107
     378     3 C    6   22.842047   16.345267   34.331816      4.0000      12.0107
     379     3 C    6   28.520667   16.113949   34.347630      4.0000      12.0107
     380     3 C    6   16.164041   22.229423   34.244561      4.0000      12.0107
     381     3 C    6   22.708856   22.145658   34.253501      4.0000      12.0107
     382     3 C    6   29.003583   22.214804   34.142246      4.0000      12.0107
     383     3 C    6   16.279429   28.558514   34.473944      4.0000      12.0107
     384     3 C    6   22.562260   28.326185   34.257450      4.0000      12.0107
     385     3 C    6   28.599953   28.323907   34.488536      4.0000      12.0107
     386     4 N    7   17.017082   16.022069    9.564107      5.0000      14.0067
     387     4 N    7   23.443502   16.010719    9.370220      5.0000      14.0067
     388     4 N    7   29.245120   16.236012    9.591601      5.0000      14.0067
     389     4 N    7   17.202652   22.227012    9.477970      5.0000      14.0067
     390     4 N    7   23.328369   22.117503    9.354600      5.0000      14.0067
     391     4 N    7   29.259588   22.321248    9.918640      5.0000      14.0067
     392     4 N    7   17.065532   28.696483    8.998893      5.0000      14.0067
     393     4 N    7   23.434469   28.434471    9.586698      5.0000      14.0067
     394     4 N    7   29.226877   28.440499    9.591234      5.0000      14.0067
     395     4 N    7   16.152082    9.210027   16.410837      5.0000      14.0067
     396     4 N    7   23.652130    9.787423   16.002171      5.0000      14.0067
     397     4 N    7   29.688309    9.780678   15.774514      5.0000      14.0067
     398     4 N    7   10.853907   15.882111   16.004238      5.0000      14.0067
     399     4 N    7   16.966729   15.892423   15.987247      5.0000      14.0067
     400     4 N    7   23.437287   15.895102   16.002064      5.0000      14.0067
     401     4 N    7   29.572642   16.125010   16.014377      5.0000      14.0067
     402     4 N    7   35.804066   15.452220   15.873032      5.0000      14.0067
     403     4 N    7   10.989653   22.121116   15.767904      5.0000      14.0067
     404     4 N    7   17.199525   22.119582   15.897742      5.0000      14.0067
     405     4 N    7   23.435087   22.114855   15.894366      5.0000      14.0067
     406     4 N    7   29.677099   22.118315   16.003427      5.0000      14.0067
     407     4 N    7   35.697826   22.104202   16.345140      5.0000      14.0067
     408     4 N    7   10.976002   28.443845   15.988222      5.0000      14.0067
     409     4 N    7   17.196345   28.431700   15.887604      5.0000      14.0067
     410     4 N    7   23.434839   28.440122   15.898778      5.0000      14.0067
     411     4 N    7   29.584829   28.322057   16.010275      5.0000      14.0067
     412     4 N    7   36.007932   28.328144   15.901214      5.0000      14.0067
     413     4 N    7   17.210400   34.536211   15.773800      5.0000      14.0067
     414     4 N    7   23.545861   34.540429   15.989461      5.0000      14.0067
     415     4 N    7   29.526934   34.383597   15.616760      5.0000      14.0067
     416     4 N    7   17.315438    9.899173   22.195003      5.0000      14.0067
     417     4 N    7   23.342977    9.018313   22.513625      5.0000      14.0067
     418     4 N    7   29.989224    9.971925   22.112078      5.0000      14.0067
     419     4 N    7   11.199185   15.899523   22.310161      5.0000      14.0067
     420     4 N    7   17.312789   15.890713   22.312762      5.0000      14.0067
     421     4 N    7   23.537207   15.902646   22.295882      5.0000      14.0067
     422     4 N    7   29.910565   16.106475   22.325282      5.0000      14.0067
     423     4 N    7   36.008718   15.670266   22.087811      5.0000      14.0067
     424     4 N    7   11.183171   22.107743   22.311552      5.0000      14.0067
     425     4 N    7   17.304104   22.114672   22.301816      5.0000      14.0067
     426     4 N    7   23.648910   22.115256   22.312618      5.0000      14.0067
     427     4 N    7   29.893582   22.104851   22.313814      5.0000      14.0067
     428     4 N    7   35.723811   21.942628   22.831753      5.0000      14.0067
     429     4 N    7   11.204458   28.440425   22.300376      5.0000      14.0067
     430     4 N    7   17.306064   28.433132   22.308298      5.0000      14.0067
     431     4 N    7   23.637654   28.426177   22.303709      5.0000      14.0067
     432     4 N    7   29.783134   28.210936   22.315730      5.0000      14.0067
     433     4 N    7   35.590133   28.755047   22.411362      5.0000      14.0067
     434     4 N    7   17.311731   34.539658   22.089190      5.0000      14.0067
     435     4 N    7   23.649339   34.533128   22.083425      5.0000      14.0067
     436     4 N    7   29.556346   34.303560   22.207475      5.0000      14.0067
     437     4 N    7   17.314938    9.781822   28.720029      5.0000      14.0067
     438     4 N    7   23.337656    9.352538   28.387835      5.0000      14.0067
     439     4 N    7   29.690758   10.128554   28.401226      5.0000      14.0067
     440     4 N    7   11.193978   15.883457   28.723624      5.0000      14.0067
     441     4 N    7   17.415291   16.002587   28.615411      5.0000      14.0067
     442     4 N    7   23.757788   16.000474   28.615622      5.0000      14.0067
     443     4 N    7   29.910675   16.224933   28.637450      5.0000      14.0067
     444     4 N    7   36.211954   15.886151   28.735599      5.0000      14.0067
     445     4 N    7   11.188491   22.104692   28.700418      5.0000      14.0067
     446     4 N    7   17.514296   22.117185   28.619715      5.0000      14.0067
     447     4 N    7   23.756089   22.116581   28.726833      5.0000      14.0067
     448     4 N    7   30.118101   22.110969   28.751721      5.0000      14.0067
     449     4 N    7   36.215840   22.013103   28.833471      5.0000      14.0067
     450     4 N    7   11.070585   28.444222   28.731536      5.0000      14.0067
     451     4 N    7   17.519518   28.437135   28.619265      5.0000      14.0067
     452     4 N    7   23.757081   28.330006   28.619608      5.0000      14.0067
     453     4 N    7   30.002093   28.103785   28.636619      5.0000      14.0067
     454     4 N    7   36.002353   28.534221   28.928353      5.0000      14.0067
     455     4 N    7   17.515819   34.522604   28.388486      5.0000      14.0067
     456     4 N    7   23.771331   34.412375   28.286965      5.0000      14.0067
     457     4 N    7   29.883458   34.319109   28.051325      5.0000      14.0067
     458     4 N    7   17.723668   16.117358   35.363540      5.0000      14.0067
     459     4 N    7   23.741729   16.225475   35.594780      5.0000      14.0067
     460     4 N    7   29.651520   16.360186   35.383959      5.0000      14.0067
     461     4 N    7   17.467749   22.158678   35.080958      5.0000      14.0067
     462     4 N    7   23.895031   22.138263   35.256061      5.0000      14.0067
     463     4 N    7   29.988148   22.227886   35.349695      5.0000      14.0067
     464     4 N    7   17.629620   28.426785   35.237242      5.0000      14.0067
     465     4 N    7   23.752364   28.196163   35.248157      5.0000      14.0067
     466     4 N    7   30.002104   28.407547   35.184101      5.0000      14.0067
     467     5 H    1   15.728204   15.951420    7.877443      1.0000       1.0079
     468     5 H    1   15.007098   16.703979    9.293076      1.0000       1.0079
     469     5 H    1   15.186478   14.955163    9.215870      1.0000       1.0079
     470     5 H    1   17.454241   16.940200    9.304342      1.0000       1.0079
     471     5 H    1   17.646889   15.257506    9.208041      1.0000       1.0079
     472     5 H    1   17.000479   15.954348   10.605254      1.0000       1.0079
     473     5 H    1   22.340884   16.168198    7.532273      1.0000       1.0079
     474     5 H    1   21.621573   17.030494    8.873373      1.0000       1.0079
     475     5 H    1   21.496792   15.282389    8.796296      1.0000       1.0079
     476     5 H    1   24.058479   16.826934    9.121508      1.0000       1.0079
     477     5 H    1   23.943162   15.112217    9.165698      1.0000       1.0079
     478     5 H    1   23.269119   16.058891   10.394312      1.0000       1.0079
     479     5 H    1   28.032769   16.048586    7.852769      1.0000       1.0079
     480     5 H    1   27.216313   16.801105    9.202566      1.0000       1.0079
     481     5 H    1   27.490242   15.069088    9.206304      1.0000       1.0079
     482     5 H    1   29.660270   17.166974    9.325045      1.0000       1.0079
     483     5 H    1   29.906365   15.466432    9.310048      1.0000       1.0079
     484     5 H    1   29.167110   16.208193   10.630132      1.0000       1.0079
     485     5 H    1   15.833003   22.380878    7.846364      1.0000       1.0079
     486     5 H    1   15.278187   23.160254    9.322688      1.0000       1.0079
     487     5 H    1   15.241963   21.409927    9.183603      1.0000       1.0079
     488     5 H    1   17.729209   23.096357    9.210368      1.0000       1.0079
     489     5 H    1   17.700880   21.376848    9.114770      1.0000       1.0079
     490     5 H    1   17.178954   22.173516   10.514787      1.0000       1.0079
     491     5 H    1   21.911982   21.956630    7.765555      1.0000       1.0079
     492     5 H    1   21.402933   23.022227    9.079556      1.0000       1.0079
     493     5 H    1   21.358094   21.281625    9.290166      1.0000       1.0079
     494     5 H    1   23.833066   22.952035    8.983526      1.0000       1.0079
     495     5 H    1   23.836991   21.245010    9.067847      1.0000       1.0079
     496     5 H    1   23.379501   22.170185   10.402066      1.0000       1.0079
     497     5 H    1   28.142744   22.262257    8.110981      1.0000       1.0079
     498     5 H    1   27.302268   23.054203    9.436844      1.0000       1.0079
     499     5 H    1   27.447195   21.303846    9.411821      1.0000       1.0079
     500     5 H    1   29.762683   23.208342    9.668396      1.0000       1.0079
     501     5 H    1   29.857908   21.494606    9.658277      1.0000       1.0079
[...]
 flops  1920 x   216 x   640          17517772800       0.0%    100.0%      0.0%
 flops  1920 x   217 x   640          17598873600       0.0%    100.0%      0.0%
 flops  1312 x   224 x   665          18761809920       0.0%    100.0%      0.0%
 flops  1920 x   656 x   665          20101939200       0.0%    100.0%      0.0%
 flops  1920 x   192 x   656          20313538560       0.0%    100.0%      0.0%
 flops     1 x    32 x     1          20555357824       0.0%    100.0%      0.0%
 flops  1923 x   224 x   448          21613412352       0.0%    100.0%      0.0%
 flops  1925 x   224 x   448          21635891200       0.0%    100.0%      0.0%
 flops  1924 x   224 x   416          22948610048       0.0%    100.0%      0.0%
 flops  1312 x   224 x   416          23473422336       0.0%    100.0%      0.0%
 flops  1312 x   448 x   555          27402117120       0.0%    100.0%      0.0%
 flops  1920 x   224 x   665          27456307200       0.0%    100.0%      0.0%
 flops  1312 x   448 x   557          27500863488       0.0%    100.0%      0.0%
 flops  1312 x   192 x   665          28142714880       0.0%    100.0%      0.0%
 flops  1936 x   640 x   555          30257356800       0.0%    100.0%      0.0%
 flops  1936 x   640 x   557          30366392320       0.0%    100.0%      0.0%
 flops  1923 x   192 x   448          32420118528       0.0%    100.0%      0.0%
 flops  1925 x   192 x   448          32453836800       0.0%    100.0%      0.0%
 flops  1924 x   192 x   416          34422915072       0.0%    100.0%      0.0%
 flops  1312 x   416 x   665          34843361280       0.0%    100.0%      0.0%
 flops  1312 x   192 x   416          35210133504       0.0%    100.0%      0.0%
 flops     1 x     1 x   439          38857558200       0.0%    100.0%      0.0%
 flops     1 x     1 x   440          38946072000       0.0%    100.0%      0.0%
 flops  1920 x   192 x   665          41184460800       0.0%    100.0%      0.0%
 flops  1924 x   224 x   448          43249303552       0.0%    100.0%      0.0%
 flops  1312 x   224 x   448          44238372864       0.0%    100.0%      0.0%
 flops  1923 x   224 x   640          48519905280       0.0%    100.0%      0.0%
 flops  1925 x   224 x   640          48570368000       0.0%    100.0%      0.0%
 flops  1936 x   224 x   640          48847912960       0.0%    100.0%      0.0%
 flops     4 x    32 x     1          61940025088       0.0%    100.0%      0.0%
 flops     1 x    32 x     4          61940025088       0.0%    100.0%      0.0%
 flops  1924 x   192 x   448          64873955328       0.0%    100.0%      0.0%
 flops  1312 x   448 x   665          65666334720       0.0%    100.0%      0.0%
 flops  1312 x   192 x   448          66357559296       0.0%    100.0%      0.0%
 flops  1936 x   640 x   665          72508620800       0.0%    100.0%      0.0%
 flops  1923 x   192 x   640          72779857920       0.0%    100.0%      0.0%
 flops  1925 x   192 x   640          72855552000       0.0%    100.0%      0.0%
 flops  1936 x   192 x   640          73271869440       0.0%    100.0%      0.0%
 flops  1920 x   640 x   555          90021888000       0.0%    100.0%      0.0%
 flops  1920 x   640 x   557          90346291200       0.0%    100.0%      0.0%
 flops  1924 x   224 x   640          97090273280       0.0%    100.0%      0.0%
 flops     4 x     1 x   439         115977127200       0.0%    100.0%      0.0%
 flops     4 x     1 x   440         116241312000       0.0%    100.0%      0.0%
 flops     1 x     4 x   439         116403835200       0.0%    100.0%      0.0%
 flops     1 x     4 x   440         116668992000       0.0%    100.0%      0.0%
 flops  1920 x   224 x   640         145332633600       0.0%    100.0%      0.0%
 flops  1924 x   192 x   640         145635409920       0.0%    100.0%      0.0%
 flops     4 x    32 x     4         191800392704       0.0%    100.0%      0.0%
 flops  1920 x   640 x   665         215728128000       0.0%    100.0%      0.0%
 flops  1920 x   192 x   640         217998950400       0.0%    100.0%      0.0%
 flops     1 x     1 x   416         294573926400       0.0%    100.0%      0.0%
 flops     4 x     4 x   439         362649120000       0.0%    100.0%      0.0%
 flops     4 x     4 x   440         363475200000       0.0%    100.0%      0.0%
 flops     1 x     1 x   448         555158553600       0.0%    100.0%      0.0%
 flops     4 x     1 x   416         879207014400       0.0%    100.0%      0.0%
 flops     1 x     4 x   416         882441830400       0.0%    100.0%      0.0%
 flops     4 x     1 x   448        1656967065600       0.0%    100.0%      0.0%
 flops     1 x     4 x   448        1663063449600       0.0%    100.0%      0.0%
 flops     4 x     4 x   416        2749194240000       0.0%    100.0%      0.0%
 flops     4 x     4 x   448        5181173760000       0.0%    100.0%      0.0%
 flops inhomo. stacks               2971854511264     100.0%      0.0%      0.0%
 flops total                        21.497244E+12      13.8%     86.2%      0.0%
 flops max/rank                    471.591130E+09      13.8%     86.2%      0.0%
 matmuls inhomo. stacks                      3840     100.0%      0.0%      0.0%
 matmuls total                         4274333780       0.0%    100.0%      0.0%
 number of processed stacks               5574954       0.1%     99.9%      0.0%
 average stack size                                     1.0     767.2       0.0
 marketing flops                   376.251919E+12
 -------------------------------------------------------------------------------
 # multiplications                            641
 max memory usage/rank               2.206642E+09
 # max total images/rank                        3
 # max 3D layers                                1
 # MPI messages exchanged                  615360
 MPI messages size (bytes):
  total size                         2.815917E+12
  min size                           0.000000E+00
  max size                          11.554048E+06
  average size                       4.576048E+06
 MPI breakdown and total messages size (bytes):
             size <=      128                6936                        0
       128 < size <=     8192                   0                        0
      8192 < size <=    32768                   0                        0
     32768 < size <=   131072                 360                 18821880
    131072 < size <=  4194304              282816             619010758752
   4194304 < size <= 16777216              325248            2196883603288
  16777216 < size                               0                        0
 -------------------------------------------------------------------------------

 *** WARNING in dbcsr_mm.F:294 :: Using a non-square number of MPI ranks ***
 *** might lead to poor performance. Used ranks: 48 Suggested: 49 100    ***

 -------------------------------------------------------------------------------
 -                                                                             -
 -                      DBCSR MESSAGE PASSING PERFORMANCE                      -
 -                                                                             -
 -------------------------------------------------------------------------------
 ROUTINE             CALLS      AVE VOLUME [Bytes]
 MP_Bcast              279                     12.
 MP_Allreduce         4966                     10.
 MP_Alltoall         17379                1561185.
 MP_ISend            30676                2037625.
 MP_IRecv            30676                2018521.
 -------------------------------------------------------------------------------

 -------------------------------------------------------------------------------
 -                                                                             -
 -                                GRID STATISTICS                              -
 -                                                                             -
 -------------------------------------------------------------------------------
 LP    KERNEL             BACKEND                              COUNT     PERCENT
 1     collocate ortho    REF                             1383303292      23.34%
 1     integrate ortho    REF                             1378707600      23.26%
 0     collocate ortho    REF                             1106536200      18.67%
 0     integrate ortho    REF                             1102860000      18.61%
 2     collocate ortho    REF                              477892884       8.06%
 2     integrate ortho    REF                              476305200       8.04%
 0     collocate general  REF                                 348000       0.01%
 0     integrate general  REF                                 348000       0.01%
 -------------------------------------------------------------------------------

 MEMORY| Estimated peak process memory [MiB]                                2093

 -------------------------------------------------------------------------------
 ----                             MULTIGRID INFO                            ----
 -------------------------------------------------------------------------------
 count for grid        1:        2093808          cutoff [a.u.]          110.00
 count for grid        2:        1347832          cutoff [a.u.]           36.67
 count for grid        3:        1361094          cutoff [a.u.]           12.22
 count for grid        4:        1054414          cutoff [a.u.]            4.07
 total gridlevel count  :        5857148

 -------------------------------------------------------------------------------
 -                                                                             -
 -                         MESSAGE PASSING PERFORMANCE                         -
 -                                                                             -
 -------------------------------------------------------------------------------

 ROUTINE             CALLS      AVE VOLUME [Bytes]
 MP_Group                4
 MP_Bcast              538                2686253.
 MP_Allreduce        20915                  45480.
 MP_Sync               610
 MP_Alltoall         11725               57401343.
 MP_ISendRecv       112988                 266700.
 MP_Wait            165964
 MP_comm_split           2
 MP_ISend            43344                1379656.
 MP_IRecv            43344                1379656.
 MP_Recv              4800                1970176.
 -------------------------------------------------------------------------------


 -------------------------------------------------------------------------------
 -                                                                             -
 -                           R E F E R E N C E S                               -
 -                                                                             -
 -------------------------------------------------------------------------------
 
 CP2K version 8.2, the CP2K developers group (2021).
 CP2K is freely available from https://www.cp2k.org/ .

 Kuehne,Thomas D.; Iannuzzi,Marcella; Del Ben,Mauro;
 Rybkin,Vladimir V.; Seewald,Patrick; Stein,Frederick; Laino,Teodoro;
 Khaliullin,Rustam Z.; Schuett,Ole; Schiffmann,Florian; Golze,Dorothea;
 Wilhelm,Jan; Chulkov,Sergey; Bani-Hashemian,Mohammad Hossein;
 Weber,Valery; Borstnik,Urban; Taillefumier,Mathieu;
 Jakobovits,Alice Shoshana; Lazzaro,Alfio; Pabst,Hans; Mueller,Tiziano;
 Schade,Robert; Guidon,Manuel; Andermatt,Samuel; Holmberg,Nico;
 Schenter,Gregory K.; Hehn,Anna; Bussy,Augustin; Belleflamme,Fabian;
 Tabacchi,Gloria; Gloess,Andreas; Lass,Michael; Bethune,Iain;
 Mundy,Christopher J.; Plessl,Christian; Watkins,Matt;
 VandeVondele,Joost; Krack,Matthias; Hutter,Juerg. 
 The Journal of Chemical Physics, 152 (19), (2020). 
 CP2K: An electronic structure and molecular dynamics software package -
 Quickstep: Efficient and accurate electronic structure calculations.
 https://doi.org/10.1063/5.0007045

 Goerigk, Lars; Hansen, Andreas; Bauer, Christoph; Ehrlich, Stephan;
 Najibi, Asim; Grimme, Stefan. , 19 (48), (2017). 
 A look at the density functional theory zoo with the advanced GMTKN55 database
 for general main group thermochemistry, kinetics and noncovalent interactions.
 https://doi.org/10.1039/C7CP04913G

 Schuett, Ole; Messmer, Peter; Hutter, Juerg; VandeVondele, Joost. 
 Electronic Structure Calculations on Graphics Processing Units, John
 Wiley & Sons, Ltd, 173-190 (2016). 
 GPU-Accelerated Sparse Matrix-Matrix Multiplication for
 Linear Scaling Density Functional Theory.
 https://doi.org/10.1002/9781118670712.ch8

 Heinecke, A; Henry, G; Hutchinson, M; Pabst, H. 
 Proceedings of Intl. Supercomputing Conference, 981-991 (2016). 
 LIBXSMM: Accelerating Small Matrix Multiplications
 by Runtime Code Generation.
 https://doi.org/10.1109/SC.2016.83

 Borstnik, U; VandeVondele, J; Weber, V; Hutter, J. 
 PARALLEL COMPUTING, 40 (5-6), 47-58 (2014). 
 Sparse matrix multiplication: The distributed block-compressed sparse
 row library.
 https://doi.org/10.1016/j.parco.2014.03.012

 Hutter, J; Iannuzzi, M; Schiffmann, F; VandeVondele, J. 
 WIREs Comput Mol Sci., 4 (1), 15-25 (2014). 
 CP2K: atomistic simulations of condensed matter systems.
 https://doi.org/10.1002/wcms.1159

 Grimme, S; Ehrlich, S; Goerigk, L. 
 JOURNAL OF COMPUTATIONAL CHEMISTRY, 32, 1456 (2011). 
 Effect of the damping function in dispersion corrected density functional theory.
 https://doi.org/10.1002/jcc.21759

 Grimme, S; Antony, J; Ehrlich, S; Krieg, H. 
 JOURNAL OF CHEMICAL PHYSICS, 132 (15), 154104 (2010). 
 A consistent and accurate ab initio parametrization of density
 functional dispersion correction (DFT-D) for the 94 elements H-Pu.
 https://doi.org/10.1063/1.3382344

 VandeVondele, J; Hutter, J. 
 JOURNAL OF CHEMICAL PHYSICS, 127 (11), 114105 (2007). 
 Gaussian basis sets for accurate calculations on molecular systems in
 gas and condensed phases.
 https://doi.org/10.1063/1.2770708

 Krack, M. 
 THEORETICAL CHEMISTRY ACCOUNTS, 114 (1-3), 145-152 (2005). 
 Pseudopotentials for H to Kr optimized for gradient-corrected
 exchange-correlation functionals.
 https://doi.org/10.1007/s00214-005-0655-y

 VandeVondele, J; Krack, M; Mohamed, F; Parrinello, M; Chassaing, T;
 Hutter, J. COMPUTER PHYSICS COMMUNICATIONS, 167 (2), 103-128 (2005). 
 QUICKSTEP: Fast and accurate density functional calculations using a
 mixed Gaussian and plane waves approach.
 https://doi.org/10.1016/j.cpc.2004.12.014

 Frigo, M; Johnson, SG. 
 PROCEEDINGS OF THE IEEE, 93 (2), 216-231 (2005). 
 The design and implementation of FFTW3.
 https://doi.org/10.1109/JPROC.2004.840301

 VandeVondele, J; Hutter, J. 
 JOURNAL OF CHEMICAL PHYSICS, 118 (10), 4365-4369 (2003). 
 An efficient orbital transformation method for electronic structure
 calculations.
 https://doi.org/10.1063/1.1543154

 Hartwigsen, C; Goedecker, S; Hutter, J. 
 PHYSICAL REVIEW B, 58 (7), 3641-3662 (1998). 
 Relativistic separable dual-space Gaussian pseudopotentials from H to Rn.
 https://doi.org/10.1103/PhysRevB.58.3641

 Lippert, G; Hutter, J; Parrinello, M. 
 MOLECULAR PHYSICS, 92 (3), 477-487 (1997). 
 A hybrid Gaussian and plane wave density functional scheme.
 https://doi.org/10.1080/002689797170220

 Perdew, JP; Burke, K; Ernzerhof, M. 
 PHYSICAL REVIEW LETTERS, 77 (18), 3865-3868 (1996). 
 Generalized gradient approximation made simple.
 https://doi.org/10.1103/PhysRevLett.77.3865

 Goedecker, S; Teter, M; Hutter, J. 
 PHYSICAL REVIEW B, 54 (3), 1703-1710 (1996). 
 Separable dual-space Gaussian pseudopotentials.
 https://doi.org/10.1103/PhysRevB.54.1703


 -------------------------------------------------------------------------------
 -                                                                             -
 -                                T I M I N G                                  -
 -                                                                             -
 -------------------------------------------------------------------------------
 SUBROUTINE                       CALLS  ASD         SELF TIME        TOTAL TIME
                                MAXIMUM       AVERAGE  MAXIMUM  AVERAGE  MAXIMUM
 CP2K                                 1  1.0     0.07     0.07 10812.41 10812.45
 qs_energies                          1  2.0     0.00     0.00 10811.22 10811.25
 scf_env_do_scf                       1  3.0     0.00     0.00 10739.80 10739.95
 scf_env_do_scf_inner_loop          300  4.0     0.01     0.07 10739.80 10739.95
 qs_scf_new_mos                     300  5.0     0.01     0.01  5215.33  5217.44
 eigensolver                        600  6.0     0.05     0.07  4895.38  4895.67
 cp_fm_syevd                        604  7.0     0.04     0.05  3736.61  3737.02
 cp_fm_syevd_base                   604  8.0  3735.87  3736.75  3735.87  3736.75
 qs_ks_update_qs_env                300  5.0     0.00     0.00  3205.12  3205.18
 rebuild_ks_matrix                  300  6.0     0.00     0.00  3204.35  3204.41
 qs_ks_build_kohn_sham_matrix       300  7.0     0.05     0.06  3204.34  3204.41
 pw_transfer                      11109  9.5     1.04     1.23  1853.28  1968.51
 fft_wrap_pw1pw2                  10509 10.5     0.18     0.20  1844.21  1959.38
 fft_wrap_pw1pw2_110               6903 11.6   126.04   130.27  1772.88  1888.21
 qs_rho_update_rho                  301  5.0     0.00     0.00  1718.20  1720.25
 calculate_rho_elec                 602  6.0     3.88     3.92  1718.20  1720.25
 sum_up_and_integrate               300  8.0     3.94     4.03  1555.09  1555.15
 integrate_v_rspace                 600  9.0     0.03     0.03  1551.14  1551.22
 qs_vxc_create                      300  8.0     0.01     0.01  1531.53  1532.27
 xc_vxc_pw_create                   300  9.0    27.72    29.05  1531.52  1532.26
 fft3d_ps                         10509 12.5   701.15   713.51  1413.96  1530.82
 grid_collocate_task_list           602  7.0  1186.72  1265.94  1186.72  1265.94
 grid_integrate_task_list           600 10.0  1133.53  1212.22  1133.53  1212.22
 cp_fm_cholesky_restore            1800  7.0  1145.60  1153.92  1145.60  1153.92
 xc_rho_set_and_dset_create         300 10.0    12.11    12.35   812.24   843.38
 mp_alltoall_z22v                 10509 14.5   505.65   625.67   505.65   625.67
 density_rs2pw                      602  7.0     0.04     0.05   520.79   594.65
 gspace_mixing                      299  5.0     3.94     4.01   571.18   571.18
 yz_to_x                           4809 13.1    74.24    81.35   312.39   432.42
 x_to_yz                           5700 13.9   132.61   136.44   400.11   410.33
 rs_pw_transfer                    4812  9.5     0.10     0.13   311.07   385.41
 broyden_mixing                     299  6.0   350.67   357.21   379.91   382.38
 potential_pw2rs                    600 10.0     0.40     0.45   335.06   336.10
 calculate_dm_sparse                600  6.0     0.12     0.13   296.85   298.91
 xc_functional_eval                 300 11.0     0.00     0.01   265.52   296.53
 pbe_lsd_eval                       300 12.0   265.52   296.52   265.52   296.52
 cp_dbcsr_plus_fm_fm_t_native       600  7.0     0.04     0.05   293.81   295.94
 dbcsr_multiply_generic             641  8.1     0.22     0.24   226.32   232.01
 -------------------------------------------------------------------------------

 The number of warnings for this run is : 4
 
 -------------------------------------------------------------------------------
  **** **** ******  **  PROGRAM ENDED AT                 2023-12-04 05:14:39.100
 ***** ** ***  *** **   PROGRAM RAN ON                  pe88.int.triton.aalto.fi
 **    ****   ******    PROGRAM RAN BY                                   huangj4
 ***** **    ** ** **   PROGRAM PROCESS ID                                  9476
  **** **  *******  **  PROGRAM STOPPED IN /scratch/phys/sin/Jie/Github/cp2kTest
                                           /PDOS234/Cluster_444
