# Projected DOS for atomic kind I at iteration step i = 0, E(Fermi) =    -0.176036 a.u.
#     MO Eigenvalue [a.u.]      Occupation                 s                py                pz                px
       1         -0.963934        1.000000        0.00001571        0.00008005        0.00008059        0.00000770
       2         -0.953625        1.000000        0.00005060        0.00020996        0.00008654        0.00009368
       3         -0.952766        1.000000        0.00011426        0.00022321        0.00032683        0.00007291
       4         -0.951411        1.000000        0.00005565        0.00007806        0.00024750        0.00007366
       5         -0.949203        1.000000        0.00005371        0.00019221        0.00014015        0.00007762
       6         -0.937962        1.000000        0.00019304        0.00046344        0.00038382        0.00023470
       7         -0.931926        1.000000        0.00016225        0.00046846        0.00014485        0.00022166
       8         -0.699136        1.000000        0.00035422        0.00016323        0.00021191        0.00007030
       9         -0.693725        1.000000        0.00043285        0.00005139        0.00022425        0.00005018
      10         -0.692350        1.000000        0.00106832        0.00018422        0.00014129        0.00036358
      11         -0.690353        1.000000        0.00099243        0.00022843        0.00022689        0.00007743
      12         -0.689680        1.000000        0.00057228        0.00026569        0.00008555        0.00024603
      13         -0.685448        1.000000        0.00246437        0.00049750        0.00056582        0.00038897
      14         -0.679885        1.000000        0.00136101        0.00027708        0.00021153        0.00014516
      15         -0.639427        1.000000        0.95052271        0.00157236        0.01524258        0.01629732
      16         -0.620629        1.000000        0.94540547        0.00624092        0.00776990        0.00154082
      17         -0.599449        1.000000        0.87470852        0.00241540        0.00741709        0.00694099
      18         -0.598018        1.000000        0.83909386        0.00436667        0.00493547        0.00643127
      19         -0.592240        1.000000        0.15139618        0.00150943        0.00123408        0.00060422
      20         -0.592031        1.000000        0.71471212        0.00494266        0.00357969        0.00389544
      21         -0.590704        1.000000        0.87454386        0.00335681        0.00498899        0.00331024
      22         -0.589542        1.000000        0.71894939        0.00245532        0.00326046        0.00337782
      23         -0.589144        1.000000        0.77158507        0.00430086        0.00368641        0.00465953
      24         -0.586568        1.000000        0.72802263        0.00285925        0.00403832        0.00284350
      25         -0.584663        1.000000        0.77337675        0.00238613        0.00223835        0.00278531
      26         -0.581224        1.000000        0.50146165        0.00344143        0.00320562        0.00248691
      27         -0.580373        1.000000        0.30504869        0.00253177        0.00258047        0.00188393
      28         -0.579392        1.000000        0.44091481        0.00231681        0.00354166        0.00122287
      29         -0.578698        1.000000        0.62570664        0.00243665        0.00342803        0.00283019
      30         -0.577885        1.000000        0.70029870        0.00343142        0.00402257        0.00195723
      31         -0.577213        1.000000        0.28317710        0.00130374        0.00157718        0.00070439
      32         -0.575665        1.000000        0.20588600        0.00189507        0.00162794        0.00126822
      33         -0.575183        1.000000        0.65348294        0.00473298        0.00332470        0.00315392
      34         -0.574726        1.000000        0.80682064        0.00516825        0.00491069        0.00403072
      35         -0.573809        1.000000        0.80302534        0.00188831        0.00258963        0.00107062
      36         -0.572207        1.000000        0.87299909        0.00093130        0.00395855        0.00167784
      37         -0.572109        1.000000        0.69115797        0.00143604        0.00156806        0.00123295
      38         -0.571442        1.000000        0.73894322        0.00317890        0.00283992        0.00458117
      39         -0.570262        1.000000        0.69303815        0.00365098        0.00182308        0.00263919
      40         -0.569756        1.000000        0.92457127        0.00258519        0.00436576        0.00057493
      41         -0.568343        1.000000        0.48215804        0.00249265        0.00209823        0.00228507
      42         -0.568205        1.000000        0.39209367        0.00270722        0.00147381        0.00175116
      43         -0.567518        1.000000        0.86129561        0.00544196        0.00043146        0.00079504
      44         -0.566568        1.000000        0.42403072        0.00270410        0.00040992        0.00132902
      45         -0.565880        1.000000        0.49856278        0.00230993        0.00043138        0.00234616
      46         -0.564644        1.000000        0.88422981        0.00112437        0.00046083        0.00114023
      47         -0.563750        1.000000        0.89241437        0.00234690        0.00342945        0.00075326
      48         -0.563445        1.000000        0.80252398        0.00255151        0.00049288        0.00224837
      49         -0.561948        1.000000        0.52470717        0.00135628        0.00179095        0.00099817
      50         -0.561246        1.000000        0.95139791        0.00114034        0.00144350        0.00006787
      51         -0.560517        1.000000        0.62520296        0.00081122        0.00059257        0.00147450
      52         -0.560268        1.000000        0.90644423        0.00194146        0.00054674        0.00047916
      53         -0.559795        1.000000        0.86830319        0.00040985        0.00043978        0.00151206
      54         -0.558940        1.000000        0.95560435        0.00029937        0.00062075        0.00214946
      55         -0.558649        1.000000        0.72831627        0.00040909        0.00107539        0.00082732
      56         -0.558009        1.000000        0.78302640        0.00106550        0.00102787        0.00042202
      57         -0.557487        1.000000        0.88728817        0.00114700        0.00103749        0.00093914
      58         -0.556684        1.000000        0.95587394        0.00086441        0.00138918        0.00019421
      59         -0.555094        1.000000        0.72102572        0.00107316        0.00101337        0.00026649
      60         -0.554671        1.000000        0.77357266        0.00156374        0.00047230        0.00018519
      61         -0.553481        1.000000        0.18289157        0.00190654        0.00120848        0.00107297
      62         -0.553042        1.000000        0.28908527        0.00169386        0.00057998        0.00107538
      63         -0.548293        1.000000        0.27867005        0.00037209        0.00125764        0.00051035
      64         -0.540814        1.000000        0.34946629        0.00149270        0.00136392        0.00116917
      65         -0.484824        1.000000        0.00107718        0.00043161        0.00053722        0.00027460
      66         -0.478022        1.000000        0.00190991        0.00054728        0.00111402        0.00022329
      67         -0.477119        1.000000        0.00184085        0.00116415        0.00067410        0.00139484
      68         -0.474564        1.000000        0.00195309        0.00105053        0.00060808        0.00065881
      69         -0.470827        1.000000        0.00182901        0.00130873        0.00150314        0.00030585
      70         -0.464864        1.000000        0.00604071        0.00334680        0.00418972        0.00305536
      71         -0.461468        1.000000        0.17504734        0.04523679        0.03910179        0.04649839
      72         -0.459661        1.000000        0.15745179        0.04057820        0.03716239        0.03754375
      73         -0.459307        1.000000        0.02028050        0.00669521        0.00545632        0.00558061
      74         -0.455199        1.000000        0.14335140        0.05388336        0.04546147        0.03742017
      75         -0.452066        1.000000        0.15323112        0.05081628        0.03343055        0.04014860
      76         -0.451057        1.000000        0.17929678        0.03199195        0.03957148        0.04434871
      77         -0.446785        1.000000        0.14138882        0.03290262        0.03966938        0.03691560
      78         -0.444950        1.000000        0.14320264        0.03086827        0.03320188        0.03599402
      79         -0.441911        1.000000        0.15097270        0.03007834        0.03426021        0.02862409
      80         -0.412084        1.000000        0.00185244        0.00166243        0.00211735        0.00081670
      81         -0.410187        1.000000        0.00120096        0.00165224        0.00151179        0.00025462
      82         -0.408661        1.000000        0.00034795        0.00043353        0.00073466        0.00028857
      83         -0.407084        1.000000        0.00116677        0.00152174        0.00141089        0.00036015
      84         -0.406589        1.000000        0.00043807        0.00153117        0.00052252        0.00101289
      85         -0.406346        1.000000        0.00077052        0.00155301        0.00130997        0.00030030
      86         -0.404547        1.000000        0.00142650        0.00282782        0.00235799        0.00256941
      87         -0.404303        1.000000        0.00107850        0.00213089        0.00163932        0.00099653
      88         -0.404130        1.000000        0.00098518        0.00287173        0.00117051        0.00146687
      89         -0.403016        1.000000        0.00042952        0.00069401        0.00045048        0.00126225
      90         -0.402219        1.000000        0.00139552        0.00154502        0.00065161        0.00250192
      91         -0.400982        1.000000        0.00109896        0.00168220        0.00152700        0.00382196
      92         -0.397445        1.000000        0.00054511        0.00081116        0.00019632        0.00067280
      93         -0.395274        1.000000        0.00137481        0.00254622        0.00022882        0.00070507
      94         -0.317867        1.000000        0.03199464        0.01408436        0.50685964        0.43124047
      95         -0.291748        1.000000        0.02104118        0.25804120        0.57833859        0.03273878
      96         -0.280126        1.000000        0.01222250        0.05748667        0.25900379        0.44773587
      97         -0.275838        1.000000        0.01483500        0.34282417        0.31887743        0.12347514
      98         -0.274409        1.000000        0.01033803        0.25323974        0.28308211        0.26022823
      99         -0.272228        1.000000        0.01453931        0.59025541        0.07517427        0.05541426
     100         -0.270148        1.000000        0.01151555        0.54804626        0.09630163        0.10280155
     101         -0.268661        1.000000        0.01214765        0.59149144        0.06780702        0.06094153
     102         -0.266660        1.000000        0.01420411        0.38103583        0.15614615        0.19625672
     103         -0.264839        1.000000        0.01412390        0.14686141        0.11003094        0.46933082
     104         -0.263321        1.000000        0.01954211        0.14700435        0.06111429        0.50936295
     105         -0.260932        1.000000        0.01641332        0.06241172        0.40704206        0.31351409
     106         -0.259743        1.000000        0.01611947        0.13584921        0.43302524        0.16730086
     107         -0.257928        1.000000        0.00671151        0.52310924        0.17199459        0.20253682
     108         -0.255301        1.000000        0.02010761        0.18551089        0.41910716        0.11492514
     109         -0.254708        1.000000        0.01513538        0.15000994        0.34398803        0.25775877
     110         -0.249966        1.000000        0.01948208        0.11395243        0.15052803        0.48738680
     111         -0.246719        1.000000        0.01894133        0.21984763        0.32680267        0.23523986
     112         -0.245283        1.000000        0.01680648        0.13731516        0.19229960        0.40896046
     113         -0.244204        1.000000        0.02033130        0.25626679        0.21887664        0.26111809
     114         -0.242285        1.000000        0.01779946        0.29065636        0.31729705        0.13627560
     115         -0.238821        1.000000        0.01284041        0.28036151        0.20199940        0.34653314
     116         -0.238234        1.000000        0.01357629        0.15969074        0.24793240        0.41468610
     117         -0.237358        1.000000        0.01240374        0.19992694        0.22355026        0.39656390
     118         -0.236294        1.000000        0.01208383        0.31152566        0.20678852        0.29832597
     119         -0.235544        1.000000        0.00757099        0.38682579        0.34199229        0.14785192
     120         -0.234106        1.000000        0.01316507        0.34623845        0.21781026        0.21547905
     121         -0.232350        1.000000        0.01223939        0.36251503        0.22538570        0.22363445
     122         -0.229861        1.000000        0.01104739        0.19632520        0.33947431        0.30989332
     123         -0.227212        1.000000        0.00474703        0.28785312        0.46959447        0.15334800
     124         -0.225873        1.000000        0.00316783        0.35103467        0.25642851        0.32015751
     125         -0.224500        1.000000        0.00446514        0.35169109        0.28617463        0.29600611
     126         -0.223134        1.000000        0.00519455        0.27217725        0.36604892        0.25486425
     127         -0.222832        1.000000        0.00460641        0.30110369        0.29521960        0.33833799
     128         -0.219558        1.000000        0.00650095        0.30598424        0.35046047        0.23198423
     129         -0.218636        1.000000        0.00282491        0.58188227        0.21524195        0.15562055
     130         -0.216325        1.000000        0.00132926        0.17262244        0.66157535        0.13294079
     131         -0.214682        1.000000        0.00310687        0.44613845        0.34368096        0.17990955
     132         -0.212824        1.000000        0.00096268        0.27326188        0.34692399        0.35810940
     133         -0.212428        1.000000        0.00267069        0.32353673        0.35317907        0.28461734
     134         -0.210749        1.000000        0.00223998        0.34313839        0.40236788        0.23234966
     135         -0.210264        1.000000        0.00160929        0.32025041        0.29005055        0.35549768
     136         -0.208586        1.000000        0.00109165        0.32607136        0.19797798        0.45837908
     137         -0.208314        1.000000        0.00146524        0.21093481        0.51185161        0.25649539
     138         -0.206741        1.000000        0.00118751        0.26207495        0.38887833        0.33188179
     139         -0.206004        1.000000        0.00080351        0.26059979        0.24451242        0.48189272
     140         -0.205670        1.000000        0.00180962        0.37211910        0.41060051        0.18726593
     141         -0.203618        1.000000        0.00117460        0.37531838        0.43983645        0.16716903
     142         -0.203001        1.000000        0.00098844        0.28689478        0.47957070        0.22129784
     143         -0.201776        1.000000        0.00108492        0.35942263        0.30437348        0.32087825
     144         -0.200858        1.000000        0.00066089        0.22908642        0.43196484        0.32803188
     145         -0.200056        1.000000        0.00057076        0.22111890        0.39817651        0.37399811
     146         -0.199885        1.000000        0.00086581        0.42149565        0.13209911        0.43090884
     147         -0.199511        1.000000        0.00069678        0.35952633        0.25225944        0.37328858
     148         -0.196726        1.000000        0.00182424        0.40251954        0.32030259        0.25829776
     149         -0.195681        1.000000        0.00137960        0.44285684        0.19676946        0.35021171
     150         -0.195167        1.000000        0.00120311        0.36160899        0.33593102        0.28449976
     151         -0.194451        1.000000        0.00062675        0.36523140        0.15987491        0.46642669
     152         -0.194341        1.000000        0.00209844        0.39878831        0.34770067        0.23665262
     153         -0.193717        1.000000        0.00093237        0.30045295        0.27301388        0.41163068
     154         -0.192852        1.000000        0.00159759        0.36793102        0.33116788        0.27991422
     155         -0.192324        1.000000        0.00077850        0.54734717        0.19316645        0.25245191
     156         -0.192082        1.000000        0.00094652        0.27279897        0.19971944        0.51678479
     157         -0.191616        1.000000        0.00074432        0.24783359        0.35835162        0.37956591
     158         -0.191088        1.000000        0.00105555        0.47474540        0.23748075        0.28022335
     159         -0.190693        1.000000        0.00091911        0.18192244        0.32070670        0.48727822
     160         -0.190648        1.000000        0.00112371        0.36915676        0.24032969        0.38058156
     161         -0.189853        1.000000        0.00081271        0.34471841        0.25499454        0.39415358
     162         -0.189631        1.000000        0.00103978        0.26553508        0.31961189        0.39743174
     163         -0.189176        1.000000        0.00065032        0.28422796        0.36828160        0.34196684
     164         -0.189019        1.000000        0.00099727        0.34169320        0.37056359        0.27661581
     165         -0.188886        1.000000        0.00061092        0.44925565        0.26523188        0.27686461
     166         -0.188677        1.000000        0.00089437        0.38298707        0.26815992        0.33506599
     167         -0.188245        1.000000        0.00027632        0.63063218        0.26084668        0.10473980
     168         -0.187981        1.000000        0.00031169        0.34864861        0.44675005        0.19995807
     169         -0.187591        1.000000        0.00048012        0.26199444        0.38551431        0.34422701
     170         -0.187337        1.000000        0.00107586        0.16878514        0.32355870        0.48624150
     171         -0.187074        1.000000        0.00086598        0.10306938        0.40219538        0.48490874
     172         -0.186563        1.000000        0.00075638        0.26335483        0.31733715        0.41091539
     173         -0.185909        1.000000        0.00175216        0.39088183        0.37220194        0.20957300
     174         -0.185161        1.000000        0.00124323        0.25302202        0.29760282        0.43049487
     175         -0.184684        1.000000        0.00118857        0.19648648        0.38683603        0.39549457
     176         -0.183925        1.000000        0.00076315        0.28131251        0.21622785        0.49433319
     177         -0.183509        1.000000        0.00045548        0.17145098        0.43407048        0.38735207
     178         -0.183323        1.000000        0.00115706        0.27137063        0.34985721        0.36798604
     179         -0.182772        1.000000        0.00127023        0.30095420        0.38050586        0.30439529
     180         -0.182573        1.000000        0.00133780        0.36645267        0.25716249        0.36797180
     181         -0.181987        1.000000        0.00115500        0.33013083        0.34030607        0.29710265
     182         -0.181920        1.000000        0.00042024        0.47884209        0.36984923        0.14747529
     183         -0.181209        1.000000        0.00041701        0.26049000        0.16775319        0.55754613
     184         -0.180942        1.000000        0.00040907        0.35778743        0.20909657        0.42088353
     185         -0.180616        1.000000        0.00027532        0.43540581        0.25459152        0.30362792
     186         -0.180242        1.000000        0.00054165        0.23240044        0.38181908        0.36108349
     187         -0.180115        1.000000        0.00105610        0.38183857        0.30811882        0.30527140
     188         -0.179799        1.000000        0.00092759        0.33301590        0.24121580        0.35881018
     189         -0.178799        1.000000        0.00058931        0.31410830        0.37253499        0.29847490
     190         -0.178260        1.000000        0.00066751        0.29199363        0.25128554        0.42670334
     191         -0.177942        1.000000        0.00023664        0.38809445        0.18650166        0.41927375
     192         -0.177590        1.000000        0.00081172        0.17262098        0.31685777        0.48584699
     193         -0.176446        1.000000        0.00036392        0.51834713        0.35456398        0.11940185
     194         -0.176036        1.000000        0.00346539        0.38854994        0.39278987        0.17698563
     195         -0.176015        0.000000        0.00055907        0.33157604        0.39083551        0.26644242
     196         -0.175172        0.000000        0.00129958        0.41145209        0.25770720        0.23574696
     197         -0.172777        0.000000        0.00034248        0.30155678        0.26453246        0.30305570
     198         -0.171448        0.000000        0.00050801        0.22816919        0.42041617        0.25239039
     199         -0.170358        0.000000        0.00074208        0.27935673        0.36078255        0.24834045
     200         -0.169688        0.000000        0.00069330        0.21583768        0.29732511        0.35415202
     201         -0.167533        0.000000        0.00802721        0.02339007        0.47242784        0.48637709
     202         -0.062037        0.000000        0.02010718        0.03161330        0.06750651        0.13708297
     203         -0.053511        0.000000        0.02565157        0.12209812        0.11037638        0.03941908
     204         -0.052715        0.000000        0.02781347        0.04909927        0.10222849        0.10823365
     205         -0.047197        0.000000        0.02984458        0.13744041        0.06821513        0.05449078
     206         -0.046980        0.000000        0.02814888        0.08951153        0.07963540        0.09443391
     207         -0.045333        0.000000        0.03018482        0.15499783        0.06139737        0.04505058
     208         -0.042507        0.000000        0.02506889        0.10594674        0.11736736        0.06005162
     209         -0.039048        0.000000        0.02347275        0.09182926        0.15753345        0.03260000
     210         -0.038702        0.000000        0.02057695        0.08552426        0.18108091        0.02120264
     211         -0.036823        0.000000        0.02407007        0.06867769        0.07014359        0.14453096
     212         -0.035791        0.000000        0.02478279        0.03779265        0.16502741        0.07078097
     213         -0.031875        0.000000        0.02404661        0.06754568        0.09151009        0.12401766
     214         -0.030257        0.000000        0.02432487        0.03785096        0.10988124        0.13463189
     215         -0.028209        0.000000        0.02246949        0.04308255        0.16075801        0.08948537
     216         -0.023056        0.000000        0.02495089        0.01150644        0.08720880        0.18874642
     217         -0.021826        0.000000        0.01959476        0.07220203        0.04275394        0.17990252
     218         -0.016964        0.000000        0.01827937        0.01808642        0.20145678        0.08703201
     219         -0.015307        0.000000        0.02098555        0.14894146        0.07884639        0.07986758
     220         -0.014867        0.000000        0.01703480        0.03036658        0.21245380        0.05950719
     221         -0.012507        0.000000        0.02147413        0.03316605        0.06268118        0.21204768
     222         -0.010607        0.000000        0.01376535        0.25370038        0.03867208        0.01924865
     223         -0.005030        0.000000        0.01423739        0.24730877        0.00831791        0.05286428
     224         -0.004257        0.000000        0.01508262        0.21024970        0.02661525        0.06935446
     225         -0.003557        0.000000        0.01586983        0.12284292        0.04752346        0.13361155
     226          0.087876        0.000000        0.00001649        0.00036492        0.00051262        0.00047150
     227          0.094006        0.000000        0.00003368        0.00028308        0.00101263        0.00021838
     228          0.094806        0.000000        0.00002432        0.00038265        0.00055162        0.00016452
     229          0.103055        0.000000        0.00007511        0.00054650        0.00075661        0.00121935
     230          0.106462        0.000000        0.00006115        0.00108915        0.00052782        0.00037247
     231          0.108990        0.000000        0.00016215        0.00081074        0.00222813        0.00137060
     232          0.112688        0.000000        0.00008974        0.00099697        0.00095173        0.00055521
     233          0.167382        0.000000        0.00000578        0.00034533        0.00064597        0.00070601
     234          0.170644        0.000000        0.00001389        0.00016624        0.00028483        0.00015455
     235          0.184090        0.000000        0.00001155        0.00024329        0.00017160        0.00011452
     236          0.208637        0.000000        0.00000727        0.00025165        0.00003759        0.00004092
     237          0.276050        0.000000        0.00007011        0.00137861        0.00133776        0.00045731
     238          0.283042        0.000000        0.00016334        0.00286171        0.00065563        0.00079682
     239          0.288376        0.000000        0.00035041        0.00059955        0.00553300        0.00122918
     240          0.289474        0.000000        0.00070735        0.00501620        0.00841058        0.00066423
     241          0.290470        0.000000        0.00048567        0.00191541        0.00024688        0.00190843
     242          0.295983        0.000000        0.00026103        0.00472515        0.00055556        0.00147971
     243          0.298309        0.000000        0.00025809        0.00569040        0.00217692        0.00209857
     244          0.300047        0.000000        0.00036312        0.00433897        0.00042311        0.00364528
     245          0.304654        0.000000        0.00024026        0.00444501        0.00264152        0.00083106
     246          0.304854        0.000000        0.00050651        0.00882686        0.00081638        0.00137302
     247          0.307557        0.000000        0.00078023        0.01306409        0.00008959        0.00257415
     248          0.319162        0.000000        0.00071417        0.00585017        0.00812303        0.00120468
     249          0.325138        0.000000        0.00047518        0.00252654        0.00324634        0.00196041
     250          0.326619        0.000000        0.00032132        0.00459209        0.00495649        0.00162388
     251          0.328272        0.000000        0.00031678        0.00560708        0.00201612        0.00189247
     252          0.345799        0.000000        0.00056054        0.01094603        0.00163918        0.00290652
     253          0.347526        0.000000        0.00083482        0.01163772        0.00057252        0.00456167
     254          0.454082        0.000000        0.00003325        0.00062415        0.00071482        0.00003594
     255          0.455676        0.000000        0.00001856        0.00025120        0.00024513        0.00004554
     256          0.457280        0.000000        0.00001666        0.00015067        0.00013738        0.00008574
     257          0.458362        0.000000        0.00000739        0.00010273        0.00007000        0.00014491
     258          0.458467        0.000000        0.00001760        0.00016615        0.00007196        0.00013291
     259          0.458586        0.000000        0.00001025        0.00010440        0.00011714        0.00031344