100
Lattice="31.7900009155 0.0 0.0 0.0 31.0900001526 0.0 0.0 0.0 30.3899993896" Properties=species:S:1:pos:R:3 i=361 E=-1245.2902587755 pbc="F F F"
I       11.58559341      12.12913200       8.76339399
I       18.81467357      12.53395863       9.02378049
I       12.46762468      19.58941972       8.76027340
I       17.80502664      18.46365809       9.09046664
I       11.56964898       8.79764279      12.49352207
I       18.67083345       9.18181027      12.08784591
I        8.76202845      12.88447449      12.17491981
I       11.86940233      11.18901792      14.69076452
I       12.30641048      15.57379701      12.29648931
I       14.97599200      12.21325616      11.53155899
I       18.38452768      12.15968157      15.30730098
I       18.30001320      15.34933382      12.36047176
I       22.14365084      12.27961440      12.56042244
I        8.97562540      18.67836165      11.90219464
I       12.07340006      18.48446941      15.69348605
I       11.90342539      22.23113774      12.69956819
I       14.71430075      18.72866700      13.12261891
I       17.92912512      18.58743022      15.45130892
I       18.45850334      21.78020297      12.15589631
I       21.68990985      18.53857329      12.00146876
I       11.93055674       9.56868767      17.92293434
I       18.82186343       9.26291292      18.72099430
I        9.70075976      13.33838852      18.43301760
I       13.05805720      11.86388418      21.78496522
I       13.35275586      15.59984195      18.72368538
I       15.31289898      12.13431325      17.45559962
I       19.37480296      12.21624096      21.92368197
I       18.32020143      15.46554318      18.68956218
I       22.33700502      12.46471695      18.28791006
I       10.01040568      18.82585183      17.87558639
I       13.27301234      17.68757575      23.17972212
I       12.54402213      21.68475018      21.08064230
I       15.80855755      19.53898611      19.22197114
I       19.49815631      18.64788436      21.67474245
I       19.60663860      21.70622538      18.35049726
I       21.99568072      17.96207661      18.16885906
Pb      11.90246510      12.66501068      11.74377885
Pb      19.18695781      12.19825339      12.07765340
Pb      11.93952371      19.43646068      11.70853970
Pb      18.69567766      18.66803088      12.10989686
Pb      12.65248012      12.57544138      18.94088570
Pb      19.38866673      12.39140974      18.88376243
Pb      13.03416413      18.71981670      20.34624264
Pb      19.13095020      18.65929870      18.64544804
C       15.23270205      15.20130760       8.21849397
C       15.21287640       9.06584035      14.54613974
C        8.75913479      15.63778142      14.99378235
C       15.18747807      15.21996782      14.86816492
C       21.77012011      15.55170652      15.08068120
C       15.66786605      22.26019273      15.61712393
C       16.09046911      15.17106820      21.95280768
N       16.45962748      15.21666534       9.18494814
N       16.33356341       9.07647685      15.62077313
N       10.17779754      15.21381838      15.50606469
N       16.55317606      15.22999604      15.62749440
N       23.16499029      15.09969780      15.61328369
N       17.21564310      22.43784350      15.50777729
N       17.55965134      15.43712984      22.37384706
H       15.60942135      15.27641270       7.22594251
H       14.61443215      16.03121863       8.46171182
H       14.71654400      14.28292607       8.36398735
H       16.95183241      16.14848958       9.13790066
H       17.14829041      14.45969476       8.93867658
H       16.16851114      15.05387641      10.16748125
H       15.62112497       8.68019764      13.64541320
H       14.86635661      10.05793391      14.39574233
H       14.42325337       8.45076222      14.89841436
H       17.09123105       9.71801411      15.33554976
H       16.75745204       8.04283798      15.77210267
H       15.95828425       9.42551301      16.51514444
H        8.88754207      16.16841607      14.08146552
H        8.31333141      16.23735039      15.75104458
H        8.20153731      14.74571963      14.83873574
H       10.77062265      16.05496573      15.67535150
H       10.64658621      14.62731294      14.79108098
H       10.08571239      14.66190096      16.40256993
H       15.39158467      15.36125092      13.83599732
H       14.60455144      16.02038679      15.25206091
H       14.72731332      14.27984104      15.04378561
H       17.06012878      16.12947034      15.44953880
H       17.15740615      14.42532765      15.33546201
H       16.40677724      15.15336804      16.65448433
H       21.91932772      16.24758852      14.29193212
H       21.25340069      16.01744047      15.88258594
H       21.24416613      14.69925704      14.73043819
H       23.78948917      15.98236010      15.95855970
H       23.67777027      14.59505859      14.87587888
H       23.02602695      14.44765542      16.40602318
H       15.38621171      21.41484042      15.03689143
H       15.19547496      23.13841008      15.24765919
H       15.41755611      22.10055825      16.63737087
H       17.50515183      22.39013705      14.50964599
H       17.69102732      21.66027176      15.99753574
H       17.57452184      23.38444115      15.95001962
H       16.07421510      14.61945013      21.04637902
H       15.61336349      16.10923562      21.81990741
H       15.61505363      14.62891356      22.73012607
H       18.04013443      15.99006308      21.64822431
H       18.06885527      14.54259473      22.47342045
H       17.60649468      16.03933420      23.34555248
