# Projected DOS for atomic kind H at iteration step i = 0, E(Fermi) =    -0.176036 a.u.
#     MO Eigenvalue [a.u.]      Occupation                 s
       1         -0.963934        1.000000        0.27180606
       2         -0.953625        1.000000        0.26965994
       3         -0.952766        1.000000        0.28248910
       4         -0.951411        1.000000        0.27286637
       5         -0.949203        1.000000        0.26777357
       6         -0.937962        1.000000        0.28043125
       7         -0.931926        1.000000        0.27861714
       8         -0.699136        1.000000        0.33536488
       9         -0.693725        1.000000        0.34217865
      10         -0.692350        1.000000        0.33951956
      11         -0.690353        1.000000        0.33902286
      12         -0.689680        1.000000        0.34069355
      13         -0.685448        1.000000        0.34837272
      14         -0.679885        1.000000        0.34708623
      15         -0.639427        1.000000        0.00587726
      16         -0.620629        1.000000        0.00098543
      17         -0.599449        1.000000        0.01470417
      18         -0.598018        1.000000        0.01528555
      19         -0.592240        1.000000        0.27556682
      20         -0.592031        1.000000        0.07627976
      21         -0.590704        1.000000        0.02636220
      22         -0.589542        1.000000        0.06606520
      23         -0.589144        1.000000        0.04861499
      24         -0.586568        1.000000        0.07482232
      25         -0.584663        1.000000        0.05818994
      26         -0.581224        1.000000        0.14606289
      27         -0.580373        1.000000        0.22421328
      28         -0.579392        1.000000        0.17172808
      29         -0.578698        1.000000        0.10201815
      30         -0.577885        1.000000        0.07257069
      31         -0.577213        1.000000        0.22692144
      32         -0.575665        1.000000        0.25621850
      33         -0.575183        1.000000        0.09343825
      34         -0.574726        1.000000        0.02275982
      35         -0.573809        1.000000        0.04570598
      36         -0.572207        1.000000        0.02087882
      37         -0.572109        1.000000        0.08765713
      38         -0.571442        1.000000        0.05316267
      39         -0.570262        1.000000        0.08488961
      40         -0.569756        1.000000        0.01749167
      41         -0.568343        1.000000        0.14909377
      42         -0.568205        1.000000        0.18510050
      43         -0.567518        1.000000        0.03741486
      44         -0.566568        1.000000        0.18020918
      45         -0.565880        1.000000        0.15421403
      46         -0.564644        1.000000        0.02588091
      47         -0.563750        1.000000        0.01080754
      48         -0.563445        1.000000        0.05363809
      49         -0.561948        1.000000        0.14538949
      50         -0.561246        1.000000        0.00032212
      51         -0.560517        1.000000        0.10594168
      52         -0.560268        1.000000        0.01911180
      53         -0.559795        1.000000        0.02933017
      54         -0.558940        1.000000        0.00591866
      55         -0.558649        1.000000        0.07740877
      56         -0.558009        1.000000        0.05859420
      57         -0.557487        1.000000        0.02533447
      58         -0.556684        1.000000        0.00386401
      59         -0.555094        1.000000        0.07966422
      60         -0.554671        1.000000        0.05826220
      61         -0.553481        1.000000        0.25839103
      62         -0.553042        1.000000        0.22127179
      63         -0.548293        1.000000        0.22410872
      64         -0.540814        1.000000        0.19100497
      65         -0.484824        1.000000        0.18947097
      66         -0.478022        1.000000        0.18520828
      67         -0.477119        1.000000        0.18929359
      68         -0.474564        1.000000        0.19019378
      69         -0.470827        1.000000        0.18011833
      70         -0.464864        1.000000        0.17131983
      71         -0.461468        1.000000        0.00167249
      72         -0.459661        1.000000        0.01950902
      73         -0.459307        1.000000        0.15916929
      74         -0.455199        1.000000        0.00121550
      75         -0.452066        1.000000        0.00168615
      76         -0.451057        1.000000        0.00089109
      77         -0.446785        1.000000        0.00119373
      78         -0.444950        1.000000        0.00137104
      79         -0.441911        1.000000        0.00080803
      80         -0.412084        1.000000        0.42115335
      81         -0.410187        1.000000        0.41742903
      82         -0.408661        1.000000        0.42341314
      83         -0.407084        1.000000        0.42216816
      84         -0.406589        1.000000        0.42203717
      85         -0.406346        1.000000        0.41986262
      86         -0.404547        1.000000        0.42280993
      87         -0.404303        1.000000        0.41965930
      88         -0.404130        1.000000        0.42263574
      89         -0.403016        1.000000        0.42218501
      90         -0.402219        1.000000        0.42220405
      91         -0.400982        1.000000        0.42236997
      92         -0.397445        1.000000        0.42620023
      93         -0.395274        1.000000        0.42310472
      94         -0.317867        1.000000        0.00046596
      95         -0.291748        1.000000        0.00013074
      96         -0.280126        1.000000        0.00047370
      97         -0.275838        1.000000        0.00042319
      98         -0.274409        1.000000        0.00047987
      99         -0.272228        1.000000        0.00024204
     100         -0.270148        1.000000        0.00022930
     101         -0.268661        1.000000        0.00040629
     102         -0.266660        1.000000        0.00043204
     103         -0.264839        1.000000        0.00033958
     104         -0.263321        1.000000        0.00025298
     105         -0.260932        1.000000        0.00023237
     106         -0.259743        1.000000        0.00047606
     107         -0.257928        1.000000        0.00085584
     108         -0.255301        1.000000        0.00016739
     109         -0.254708        1.000000        0.00028857
     110         -0.249966        1.000000        0.00042343
     111         -0.246719        1.000000        0.00032181
     112         -0.245283        1.000000        0.00032878
     113         -0.244204        1.000000        0.00014357
     114         -0.242285        1.000000        0.00052838
     115         -0.238821        1.000000        0.00087021
     116         -0.238234        1.000000        0.00037634
     117         -0.237358        1.000000        0.00082654
     118         -0.236294        1.000000        0.00060991
     119         -0.235544        1.000000        0.00199614
     120         -0.234106        1.000000        0.00044641
     121         -0.232350        1.000000        0.00061916
     122         -0.229861        1.000000        0.00054281
     123         -0.227212        1.000000        0.00084316
     124         -0.225873        1.000000        0.00083891
     125         -0.224500        1.000000        0.00046486
     126         -0.223134        1.000000        0.00105190
     127         -0.222832        1.000000        0.00099185
     128         -0.219558        1.000000        0.00134425
     129         -0.218636        1.000000        0.00139417
     130         -0.216325        1.000000        0.00162817
     131         -0.214682        1.000000        0.00107897
     132         -0.212824        1.000000        0.00103014
     133         -0.212428        1.000000        0.00094974
     134         -0.210749        1.000000        0.00185052
     135         -0.210264        1.000000        0.00158479
     136         -0.208586        1.000000        0.00041668
     137         -0.208314        1.000000        0.00086648
     138         -0.206741        1.000000        0.00084243
     139         -0.206004        1.000000        0.00063891
     140         -0.205670        1.000000        0.00067572
     141         -0.203618        1.000000        0.00049323
     142         -0.203001        1.000000        0.00143190
     143         -0.201776        1.000000        0.00053554
     144         -0.200858        1.000000        0.00039422
     145         -0.200056        1.000000        0.00041171
     146         -0.199885        1.000000        0.00050461
     147         -0.199511        1.000000        0.00026884
     148         -0.196726        1.000000        0.00134660
     149         -0.195681        1.000000        0.00086579
     150         -0.195167        1.000000        0.00076621
     151         -0.194451        1.000000        0.00027712
     152         -0.194341        1.000000        0.00168449
     153         -0.193717        1.000000        0.00060207
     154         -0.192852        1.000000        0.00076328
     155         -0.192324        1.000000        0.00058023
     156         -0.192082        1.000000        0.00047156
     157         -0.191616        1.000000        0.00044557
     158         -0.191088        1.000000        0.00052590
     159         -0.190693        1.000000        0.00049120
     160         -0.190648        1.000000        0.00103444
     161         -0.189853        1.000000        0.00044273
     162         -0.189631        1.000000        0.00071032
     163         -0.189176        1.000000        0.00028862
     164         -0.189019        1.000000        0.00066768
     165         -0.188886        1.000000        0.00022310
     166         -0.188677        1.000000        0.00037691
     167         -0.188245        1.000000        0.00011209
     168         -0.187981        1.000000        0.00022691
     169         -0.187591        1.000000        0.00029178
     170         -0.187337        1.000000        0.00041527
     171         -0.187074        1.000000        0.00071474
     172         -0.186563        1.000000        0.00053283
     173         -0.185909        1.000000        0.00099724
     174         -0.185161        1.000000        0.00060027
     175         -0.184684        1.000000        0.00051109
     176         -0.183925        1.000000        0.00046729
     177         -0.183509        1.000000        0.00017260
     178         -0.183323        1.000000        0.00039635
     179         -0.182772        1.000000        0.00031115
     180         -0.182573        1.000000        0.00031739
     181         -0.181987        1.000000        0.00034423
     182         -0.181920        1.000000        0.00017460
     183         -0.181209        1.000000        0.00014062
     184         -0.180942        1.000000        0.00013888
     185         -0.180616        1.000000        0.00019399
     186         -0.180242        1.000000        0.00015021
     187         -0.180115        1.000000        0.00025800
     188         -0.179799        1.000000        0.00013501
     189         -0.178799        1.000000        0.00019214
     190         -0.178260        1.000000        0.00024642
     191         -0.177942        1.000000        0.00006334
     192         -0.177590        1.000000        0.00018335
     193         -0.176446        1.000000        0.00014809
     194         -0.176036        1.000000        0.00011636
     195         -0.176015        0.000000        0.00008802
     196         -0.175172        0.000000        0.00017176
     197         -0.172777        0.000000        0.00014115
     198         -0.171448        0.000000        0.00006988
     199         -0.170358        0.000000        0.00007718
     200         -0.169688        0.000000        0.00007803
     201         -0.167533        0.000000        0.00007205
     202         -0.062037        0.000000        0.00010600
     203         -0.053511        0.000000        0.00007875
     204         -0.052715        0.000000        0.00064562
     205         -0.047197        0.000000        0.00021974
     206         -0.046980        0.000000        0.00048663
     207         -0.045333        0.000000        0.00025910
     208         -0.042507        0.000000        0.00025129
     209         -0.039048        0.000000        0.00019007
     210         -0.038702        0.000000        0.00014650
     211         -0.036823        0.000000        0.00011742
     212         -0.035791        0.000000        0.00012449
     213         -0.031875        0.000000        0.00012087
     214         -0.030257        0.000000        0.00018023
     215         -0.028209        0.000000        0.00006364
     216         -0.023056        0.000000        0.00037106
     217         -0.021826        0.000000        0.00006496
     218         -0.016964        0.000000        0.00019417
     219         -0.015307        0.000000        0.00007343
     220         -0.014867        0.000000        0.00017535
     221         -0.012507        0.000000        0.00013091
     222         -0.010607        0.000000        0.00021426
     223         -0.005030        0.000000        0.00033849
     224         -0.004257        0.000000        0.00041448
     225         -0.003557        0.000000        0.00061678
     226          0.087876        0.000000        0.01779520
     227          0.094006        0.000000        0.01249452
     228          0.094806        0.000000        0.00328977
     229          0.103055        0.000000        0.01352311
     230          0.106462        0.000000        0.02508477
     231          0.108990        0.000000        0.00444335
     232          0.112688        0.000000        0.00466276
     233          0.167382        0.000000        0.64956841
     234          0.170644        0.000000        0.64254276
     235          0.184090        0.000000        0.65214539
     236          0.208637        0.000000        0.65092368
     237          0.276050        0.000000        0.66127133
     238          0.283042        0.000000        0.65924742
     239          0.288376        0.000000        0.66717864
     240          0.289474        0.000000        0.66071376
     241          0.290470        0.000000        0.66664486
     242          0.295983        0.000000        0.66548408
     243          0.298309        0.000000        0.66463936
     244          0.300047        0.000000        0.66370029
     245          0.304654        0.000000        0.64731367
     246          0.304854        0.000000        0.66028025
     247          0.307557        0.000000        0.66378320
     248          0.319162        0.000000        0.63364223
     249          0.325138        0.000000        0.64363487
     250          0.326619        0.000000        0.64368994
     251          0.328272        0.000000        0.64337207
     252          0.345799        0.000000        0.63273915
     253          0.347526        0.000000        0.63022797
     254          0.454082        0.000000        0.58825269
     255          0.455676        0.000000        0.58694805
     256          0.457280        0.000000        0.58308588
     257          0.458362        0.000000        0.58783554
     258          0.458467        0.000000        0.58459160
     259          0.458586        0.000000        0.58807846
     260          0.463001        0.000000        0.58541879
     261          0.463369        0.000000        0.58321812
     262          0.464789        0.000000        0.58516618
     263          0.467144        0.000000        0.58191188
     264          0.469134        0.000000        0.58456674
     265          0.469628        0.000000        0.58012970
     266          0.470465        0.000000        0.57824740
     267          0.472333        0.000000        0.58214217
     268          0.556888        0.000000        0.55416612
     269          0.561570        0.000000        0.55298825
     270          0.563176        0.000000        0.55304698
     271          0.563529        0.000000        0.55254477
     272          0.563847        0.000000        0.55199515
     273          0.568299        0.000000        0.55176824
     274          0.573270        0.000000        0.55101777
