# Projected DOS for atomic kind C at iteration step i = 0, E(Fermi) =    -0.176036 a.u.
#     MO Eigenvalue [a.u.]      Occupation                 s                py                pz                px
       1         -0.963934        1.000000        0.05933852        0.00417006        0.00514510        0.03601963
       2         -0.953625        1.000000        0.06376324        0.00000746        0.02281888        0.02421911
       3         -0.952766        1.000000        0.05844002        0.00322677        0.00464319        0.03602730
       4         -0.951411        1.000000        0.06205141        0.00052468        0.00023818        0.04463679
       5         -0.949203        1.000000        0.06473774        0.00133442        0.00328822        0.04272959
       6         -0.937962        1.000000        0.06277617        0.00000269        0.01078000        0.03368860
       7         -0.931926        1.000000        0.06398410        0.00000384        0.01730087        0.02771961
       8         -0.699136        1.000000        0.43478550        0.00018249        0.00001240        0.00047956
       9         -0.693725        1.000000        0.43737748        0.00000928        0.00001948        0.00127226
      10         -0.692350        1.000000        0.43087638        0.00012825        0.00043678        0.00058650
      11         -0.690353        1.000000        0.44005228        0.00000865        0.00000055        0.00073974
      12         -0.689680        1.000000        0.42994073        0.00000375        0.00000064        0.00125800
      13         -0.685448        1.000000        0.43708474        0.00000027        0.00029748        0.00146873
      14         -0.679885        1.000000        0.43759109        0.00000125        0.00084527        0.00075719
      15         -0.639427        1.000000        0.00022770        0.00063636        0.00000512        0.00001726
      16         -0.620629        1.000000        0.00035633        0.00025271        0.00003207        0.00043724
      17         -0.599449        1.000000        0.00019931        0.00192113        0.00149474        0.00027865
      18         -0.598018        1.000000        0.00017308        0.00118899        0.00064584        0.00072555
      19         -0.592240        1.000000        0.00025745        0.00027487        0.04024551        0.00527737
      20         -0.592031        1.000000        0.00009813        0.00455342        0.00647432        0.00130177
      21         -0.590704        1.000000        0.00002695        0.00221494        0.00142192        0.00025324
      22         -0.589542        1.000000        0.00060678        0.00190253        0.00761379        0.00109817
      23         -0.589144        1.000000        0.00034485        0.00176610        0.00428894        0.00183636
      24         -0.586568        1.000000        0.00010637        0.00105134        0.00669898        0.00404352
      25         -0.584663        1.000000        0.00021302        0.00410077        0.00348098        0.00132485
      26         -0.581224        1.000000        0.00011287        0.01359630        0.01106249        0.00138232
      27         -0.580373        1.000000        0.00007479        0.02123367        0.01638471        0.00068844
      28         -0.579392        1.000000        0.00006447        0.00179859        0.01873116        0.00943670
      29         -0.578698        1.000000        0.00034706        0.01423053        0.00381724        0.00250289
      30         -0.577885        1.000000        0.00002571        0.00194139        0.00686130        0.00309897
      31         -0.577213        1.000000        0.00048413        0.03783727        0.00296616        0.00408413
      32         -0.575665        1.000000        0.00001055        0.03144484        0.01377237        0.00042233
      33         -0.575183        1.000000        0.00000851        0.01031925        0.00496335        0.00049026
      34         -0.574726        1.000000        0.00003376        0.00167455        0.00179065        0.00012119
      35         -0.573809        1.000000        0.00005534        0.00249497        0.00435214        0.00205570
      36         -0.572207        1.000000        0.00004501        0.00335095        0.00079994        0.00035337
      37         -0.572109        1.000000        0.00015034        0.00145585        0.00763594        0.00780827
      38         -0.571442        1.000000        0.00020128        0.00619563        0.00227545        0.00155921
      39         -0.570262        1.000000        0.00007577        0.00767701        0.00554372        0.00174777
      40         -0.569756        1.000000        0.00002559        0.00180865        0.00121571        0.00029261
      41         -0.568343        1.000000        0.00015489        0.02764959        0.00144491        0.00137444
      42         -0.568205        1.000000        0.00006818        0.03528435        0.00077843        0.00074258
      43         -0.567518        1.000000        0.00010251        0.00692054        0.00132201        0.00018922
      44         -0.566568        1.000000        0.00031252        0.03314960        0.00211745        0.00184729
      45         -0.565880        1.000000        0.00017486        0.02647221        0.00323221        0.00093258
      46         -0.564644        1.000000        0.00004921        0.00096404        0.00263347        0.00102434
      47         -0.563750        1.000000        0.00016857        0.00036125        0.00218580        0.00039914
      48         -0.563445        1.000000        0.00011005        0.00324498        0.00488986        0.00121474
      49         -0.561948        1.000000        0.00066282        0.00142748        0.02943945        0.00071182
      50         -0.561246        1.000000        0.00000137        0.00003372        0.00003017        0.00002590
      51         -0.560517        1.000000        0.00023075        0.00683358        0.01656948        0.00229566
      52         -0.560268        1.000000        0.00004277        0.00075850        0.00199517        0.00066310
      53         -0.559795        1.000000        0.00013280        0.00143126        0.00307864        0.00065731
      54         -0.558940        1.000000        0.00015624        0.00003368        0.00030359        0.00013140
      55         -0.558649        1.000000        0.00008876        0.00033166        0.01646694        0.00128346
      56         -0.558009        1.000000        0.00018609        0.00625221        0.00661037        0.00088646
      57         -0.557487        1.000000        0.00022417        0.00330133        0.00225257        0.00070525
      58         -0.556684        1.000000        0.00003071        0.00034678        0.00041642        0.00024191
      59         -0.555094        1.000000        0.00006733        0.01021747        0.00730025        0.00072721
      60         -0.554671        1.000000        0.00003636        0.00163443        0.01316724        0.00027902
      61         -0.553481        1.000000        0.00007760        0.01727734        0.02880085        0.01091560
      62         -0.553042        1.000000        0.00001913        0.03305536        0.01347984        0.00482707
      63         -0.548293        1.000000        0.00038123        0.00016963        0.02749950        0.02523498
      64         -0.540814        1.000000        0.00008872        0.04982531        0.00023470        0.00002691
      65         -0.484824        1.000000        0.03058719        0.02840580        0.03535229        0.27289203
      66         -0.478022        1.000000        0.02610208        0.00442400        0.00128907        0.33509300
      67         -0.477119        1.000000        0.02814748        0.00022433        0.15971606        0.17799076
      68         -0.474564        1.000000        0.02763116        0.01004772        0.02132999        0.30705641
      69         -0.470827        1.000000        0.02832665        0.02139498        0.03079822        0.28715459
      70         -0.464864        1.000000        0.02198814        0.00011427        0.07837454        0.25700317
      71         -0.461468        1.000000        0.00025433        0.00001815        0.00052697        0.00284332
      72         -0.459661        1.000000        0.00260084        0.00028975        0.01438287        0.02217008
      73         -0.459307        1.000000        0.02130912        0.00010533        0.12453216        0.18266611
      74         -0.455199        1.000000        0.00008290        0.00026843        0.00070596        0.00109436
      75         -0.452066        1.000000        0.00017692        0.00033357        0.00148206        0.00156302
      76         -0.451057        1.000000        0.00014468        0.00019847        0.00020303        0.00093054
      77         -0.446785        1.000000        0.00012310        0.00021037        0.00122762        0.00122230
      78         -0.444950        1.000000        0.00013674        0.00010316        0.00122309        0.00167754
      79         -0.441911        1.000000        0.00010214        0.00013500        0.00042664        0.00133263
      80         -0.412084        1.000000        0.00000108        0.33047856        0.20530688        0.00012867
      81         -0.410187        1.000000        0.00000188        0.16205018        0.27808878        0.10383725
      82         -0.408661        1.000000        0.00001399        0.39378543        0.13136729        0.00964918
      83         -0.407084        1.000000        0.00002964        0.06252336        0.44917798        0.02595136
      84         -0.406589        1.000000        0.00002883        0.05415246        0.25756449        0.22596987
      85         -0.406346        1.000000        0.00001169        0.13340096        0.40437125        0.00010732
      86         -0.404547        1.000000        0.00000231        0.50780359        0.00898014        0.00913061
      87         -0.404303        1.000000        0.00004257        0.44883612        0.03488975        0.05497457
      88         -0.404130        1.000000        0.00001247        0.48379817        0.02062272        0.02650138
      89         -0.403016        1.000000        0.00000127        0.18599578        0.34115901        0.00812531
      90         -0.402219        1.000000        0.00000275        0.33518270        0.14738528        0.04724441
      91         -0.400982        1.000000        0.00003565        0.00145533        0.40420397        0.12050922
      92         -0.397445        1.000000        0.00001927        0.00931142        0.31387484        0.20464773
      93         -0.395274        1.000000        0.00000220        0.51928972        0.00580507        0.00371816
      94         -0.317867        1.000000        0.00007421        0.00063533        0.00018882        0.00020110
      95         -0.291748        1.000000        0.00002579        0.00012197        0.00004082        0.00002640
      96         -0.280126        1.000000        0.00003416        0.00009884        0.00012598        0.00007876
      97         -0.275838        1.000000        0.00016316        0.00009010        0.00011280        0.00028414
      98         -0.274409        1.000000        0.00008681        0.00032579        0.00017055        0.00015609
      99         -0.272228        1.000000        0.00002052        0.00041122        0.00009259        0.00005448
     100         -0.270148        1.000000        0.00009744        0.00024914        0.00009772        0.00008312
     101         -0.268661        1.000000        0.00002767        0.00036947        0.00020645        0.00002537
     102         -0.266660        1.000000        0.00004566        0.00025707        0.00011655        0.00011043
     103         -0.264839        1.000000        0.00005223        0.00016957        0.00003964        0.00010333
     104         -0.263321        1.000000        0.00020803        0.00045484        0.00006280        0.00005897
     105         -0.260932        1.000000        0.00017038        0.00004592        0.00021264        0.00006858
     106         -0.259743        1.000000        0.00002807        0.00023261        0.00010336        0.00029887
     107         -0.257928        1.000000        0.00009706        0.00008046        0.00002934        0.00041276
     108         -0.255301        1.000000        0.00002654        0.00012222        0.00009196        0.00001973
     109         -0.254708        1.000000        0.00001383        0.00006171        0.00017392        0.00004650
     110         -0.249966        1.000000        0.00033248        0.00059061        0.00010389        0.00030709
     111         -0.246719        1.000000        0.00009728        0.00024718        0.00013389        0.00015296
     112         -0.245283        1.000000        0.00011252        0.00020323        0.00027473        0.00004086
     113         -0.244204        1.000000        0.00007187        0.00010608        0.00004982        0.00005151
     114         -0.242285        1.000000        0.00001999        0.00001523        0.00039352        0.00007056
     115         -0.238821        1.000000        0.00032686        0.00054540        0.00021054        0.00060260
     116         -0.238234        1.000000        0.00036950        0.00076591        0.00011265        0.00013850
     117         -0.237358        1.000000        0.00018400        0.00049149        0.00009020        0.00082684
     118         -0.236294        1.000000        0.00029039        0.00060565        0.00017691        0.00029106
     119         -0.235544        1.000000        0.00016498        0.00023540        0.00066711        0.00141544
     120         -0.234106        1.000000        0.00012542        0.00013163        0.00012577        0.00022747
     121         -0.232350        1.000000        0.00018862        0.00014479        0.00028839        0.00041843
     122         -0.229861        1.000000        0.00031507        0.00005470        0.00002514        0.00034846
     123         -0.227212        1.000000        0.00023742        0.00021569        0.00043905        0.00015999
     124         -0.225873        1.000000        0.00079580        0.00065062        0.00054821        0.00036295
     125         -0.224500        1.000000        0.00017663        0.00041731        0.00028129        0.00009749
     126         -0.223134        1.000000        0.00016709        0.00021238        0.00047453        0.00030316
     127         -0.222832        1.000000        0.00040861        0.00024743        0.00052832        0.00025047
     128         -0.219558        1.000000        0.00004860        0.00046354        0.00025743        0.00044930
     129         -0.218636        1.000000        0.00008025        0.00006715        0.00011618        0.00024566
     130         -0.216325        1.000000        0.00014658        0.00017084        0.00089464        0.00081371
     131         -0.214682        1.000000        0.00003703        0.00031584        0.00037633        0.00016521
     132         -0.212824        1.000000        0.00020549        0.00061658        0.00065711        0.00017114
     133         -0.212428        1.000000        0.00005548        0.00023575        0.00023382        0.00018685
     134         -0.210749        1.000000        0.00017873        0.00041671        0.00025842        0.00042958
     135         -0.210264        1.000000        0.00013688        0.00007646        0.00063586        0.00070174
     136         -0.208586        1.000000        0.00005478        0.00011791        0.00034782        0.00015484
     137         -0.208314        1.000000        0.00018031        0.00007286        0.00046287        0.00013143
     138         -0.206741        1.000000        0.00023190        0.00020068        0.00041868        0.00029675
     139         -0.206004        1.000000        0.00018732        0.00016860        0.00041570        0.00003246
     140         -0.205670        1.000000        0.00021661        0.00010431        0.00023737        0.00025821
     141         -0.203618        1.000000        0.00008193        0.00012061        0.00013108        0.00008957
     142         -0.203001        1.000000        0.00013510        0.00005483        0.00048409        0.00028123
     143         -0.201776        1.000000        0.00010617        0.00008687        0.00030148        0.00012000
     144         -0.200858        1.000000        0.00006669        0.00023283        0.00007888        0.00006126
     145         -0.200056        1.000000        0.00011384        0.00025775        0.00025981        0.00009189
     146         -0.199885        1.000000        0.00006858        0.00004335        0.00015511        0.00019326
     147         -0.199511        1.000000        0.00002539        0.00005253        0.00010266        0.00009854
     148         -0.196726        1.000000        0.00003748        0.00003471        0.00006220        0.00014389
     149         -0.195681        1.000000        0.00013094        0.00015546        0.00007627        0.00012583
     150         -0.195167        1.000000        0.00022397        0.00022111        0.00011233        0.00016071
     151         -0.194451        1.000000        0.00005340        0.00021427        0.00013933        0.00004254
     152         -0.194341        1.000000        0.00005672        0.00010489        0.00008729        0.00022216
     153         -0.193717        1.000000        0.00005689        0.00021162        0.00027299        0.00007512
     154         -0.192852        1.000000        0.00017106        0.00015899        0.00029799        0.00037067
     155         -0.192324        1.000000        0.00004331        0.00010953        0.00006470        0.00006809
     156         -0.192082        1.000000        0.00008657        0.00010592        0.00004171        0.00014218
     157         -0.191616        1.000000        0.00017705        0.00015795        0.00016149        0.00013979
     158         -0.191088        1.000000        0.00016118        0.00035332        0.00017097        0.00008121
     159         -0.190693        1.000000        0.00005882        0.00012476        0.00017024        0.00002065
     160         -0.190648        1.000000        0.00001256        0.00011107        0.00029260        0.00008047
     161         -0.189853        1.000000        0.00008388        0.00021766        0.00017882        0.00011060
     162         -0.189631        1.000000        0.00005536        0.00011106        0.00014527        0.00008124
     163         -0.189176        1.000000        0.00015921        0.00008650        0.00015541        0.00005460
     164         -0.189019        1.000000        0.00004054        0.00019992        0.00021034        0.00017412
     165         -0.188886        1.000000        0.00005255        0.00028096        0.00004986        0.00005160
     166         -0.188677        1.000000        0.00004293        0.00014380        0.00042149        0.00008846
     167         -0.188245        1.000000        0.00012206        0.00002634        0.00011614        0.00004533
     168         -0.187981        1.000000        0.00002185        0.00018212        0.00006675        0.00007338
     169         -0.187591        1.000000        0.00019958        0.00034074        0.00002822        0.00015135
     170         -0.187337        1.000000        0.00006510        0.00035709        0.00005572        0.00007511
     171         -0.187074        1.000000        0.00013799        0.00040435        0.00004930        0.00003522
     172         -0.186563        1.000000        0.00009686        0.00023445        0.00005605        0.00008387
     173         -0.185909        1.000000        0.00019752        0.00044338        0.00010620        0.00028561
     174         -0.185161        1.000000        0.00014125        0.00035745        0.00014090        0.00013341
     175         -0.184684        1.000000        0.00011406        0.00052121        0.00009004        0.00024083
     176         -0.183925        1.000000        0.00002282        0.00011194        0.00026278        0.00012559
     177         -0.183509        1.000000        0.00011989        0.00026312        0.00024470        0.00007611
     178         -0.183323        1.000000        0.00004017        0.00008659        0.00005263        0.00024708
     179         -0.182772        1.000000        0.00002923        0.00011062        0.00016585        0.00009662
     180         -0.182573        1.000000        0.00013078        0.00002381        0.00010494        0.00022855
     181         -0.181987        1.000000        0.00007970        0.00018864        0.00017334        0.00011118
     182         -0.181920        1.000000        0.00006712        0.00022369        0.00007062        0.00005711
     183         -0.181209        1.000000        0.00003276        0.00010234        0.00027195        0.00008233
     184         -0.180942        1.000000        0.00017563        0.00025609        0.00013955        0.00003896
     185         -0.180616        1.000000        0.00006318        0.00003697        0.00004373        0.00004112
     186         -0.180242        1.000000        0.00002711        0.00000993        0.00006103        0.00007658
     187         -0.180115        1.000000        0.00014625        0.00009740        0.00009414        0.00005212
     188         -0.179799        1.000000        0.00001082        0.00002693        0.00032362        0.00006083
     189         -0.178799        1.000000        0.00000396        0.00003801        0.00006385        0.00005644
     190         -0.178260        1.000000        0.00003305        0.00006208        0.00004621        0.00003879
     191         -0.177942        1.000000        0.00004413        0.00003862        0.00004444        0.00002037
     192         -0.177590        1.000000        0.00005396        0.00007398        0.00021534        0.00008880
     193         -0.176446        1.000000        0.00011470        0.00026416        0.00004615        0.00005154
     194         -0.176036        1.000000        0.00003151        0.00008053        0.00002504        0.00002233
     195         -0.176015        0.000000        0.00008299        0.00008767        0.00001919        0.00000570
     196         -0.175172        0.000000        0.00001648        0.00009492        0.00004111        0.00002484
     197         -0.172777        0.000000        0.00001385        0.00003873        0.00004935        0.00002173
     198         -0.171448        0.000000        0.00001437        0.00008914        0.00000917        0.00002132
     199         -0.170358        0.000000        0.00001544        0.00003403        0.00002804        0.00000726
     200         -0.169688        0.000000        0.00001223        0.00000578        0.00002221        0.00000156
     201         -0.167533        0.000000        0.00000913        0.00002290        0.00001838        0.00001171
     202         -0.062037        0.000000        0.00001572        0.00002591        0.00002990        0.00001055
     203         -0.053511        0.000000        0.00003797        0.00001713        0.00001824        0.00003067
     204         -0.052715        0.000000        0.00001568        0.00003566        0.00003830        0.00009372
     205         -0.047197        0.000000        0.00001751        0.00003025        0.00002535        0.00006412
     206         -0.046980        0.000000        0.00001515        0.00000687        0.00001112        0.00002337
     207         -0.045333        0.000000        0.00001327        0.00001316        0.00002813        0.00005247
     208         -0.042507        0.000000        0.00001227        0.00002038        0.00001048        0.00005926
     209         -0.039048        0.000000        0.00001128        0.00000483        0.00003705        0.00001236
     210         -0.038702        0.000000        0.00001212        0.00001370        0.00001622        0.00002422
     211         -0.036823        0.000000        0.00002083        0.00002971        0.00001025        0.00000490
     212         -0.035791        0.000000        0.00004259        0.00001028        0.00000297        0.00001656
     213         -0.031875        0.000000        0.00001651        0.00000945        0.00000601        0.00003376
     214         -0.030257        0.000000        0.00000542        0.00000260        0.00000946        0.00002377
     215         -0.028209        0.000000        0.00001261        0.00000873        0.00001594        0.00000773
     216         -0.023056        0.000000        0.00000746        0.00002145        0.00003814        0.00005511
     217         -0.021826        0.000000        0.00002616        0.00003280        0.00002896        0.00004138
     218         -0.016964        0.000000        0.00000599        0.00000487        0.00000242        0.00000879
     219         -0.015307        0.000000        0.00001918        0.00000363        0.00000301        0.00001755
     220         -0.014867        0.000000        0.00002198        0.00000897        0.00000405        0.00003948
     221         -0.012507        0.000000        0.00002595        0.00002909        0.00001135        0.00003306
     222         -0.010607        0.000000        0.00000226        0.00001013        0.00001376        0.00001062
     223         -0.005030        0.000000        0.00001363        0.00000280        0.00001523        0.00003158
     224         -0.004257        0.000000        0.00001499        0.00000457        0.00002907        0.00007900
     225         -0.003557        0.000000        0.00001331        0.00000757        0.00001156        0.00007732
     226          0.087876        0.000000        0.08246160        0.04848149        0.06067064        0.43549467
     227          0.094006        0.000000        0.08432095        0.00758564        0.00283115        0.53158718
     228          0.094806        0.000000        0.07800896        0.03935385        0.05838373        0.46122661
     229          0.103055        0.000000        0.08223991        0.00019831        0.26012292        0.28262975
     230          0.106462        0.000000        0.08127869        0.01291965        0.03583392        0.48454215
     231          0.108990        0.000000        0.07726448        0.00017705        0.12879797        0.42108316
     232          0.112688        0.000000        0.07799344        0.00007378        0.21355963        0.33535222
     233          0.167382        0.000000        0.00376642        0.00012973        0.00118902        0.00962740
     234          0.170644        0.000000        0.00508687        0.00075890        0.00241445        0.01267763
     235          0.184090        0.000000        0.00333670        0.00045833        0.00292924        0.00416732
     236          0.208637        0.000000        0.00300221        0.00224057        0.00000519        0.00545405
     237          0.276050        0.000000        0.00012484        0.00003689        0.00383489        0.00097798
     238          0.283042        0.000000        0.00000228        0.00325048        0.00164240        0.00002417
     239          0.288376        0.000000        0.00004367        0.00055452        0.00664302        0.00020091
     240          0.289474        0.000000        0.00002974        0.00148681        0.00253237        0.00122632
     241          0.290470        0.000000        0.00001220        0.00044696        0.00301590        0.00262719
     242          0.295983        0.000000        0.00001196        0.00434980        0.00218032        0.00034063
     243          0.298309        0.000000        0.00002185        0.00154324        0.00402740        0.00129417
     244          0.300047        0.000000        0.00000393        0.00014283        0.00452730        0.00248212
     245          0.304654        0.000000        0.00275163        0.00292962        0.00007278        0.00044093
     246          0.304854        0.000000        0.00058183        0.00647862        0.00040794        0.00025073
     247          0.307557        0.000000        0.00002438        0.00754340        0.00026831        0.00000151
     248          0.319162        0.000000        0.00484925        0.00000382        0.00002828        0.00000200
     249          0.325138        0.000000        0.00379375        0.00345849        0.00038129        0.00003771
     250          0.326619        0.000000        0.00364708        0.00397576        0.00029801        0.00001887
     251          0.328272        0.000000        0.00352519        0.00081885        0.00280446        0.00028310
     252          0.345799        0.000000        0.00507358        0.00034247        0.00015007        0.00000977
     253          0.347526        0.000000        0.00603982        0.00000855        0.00001231        0.00010259
     254          0.454082        0.000000        0.00001509        0.05116177        0.26737387        0.07086159
     255          0.455676        0.000000        0.00066988        0.28851058        0.09821536        0.00309516
     256          0.457280        0.000000        0.00025817        0.09583416        0.28872067        0.00681325
     257          0.458362        0.000000        0.00010780        0.32008389        0.06804816        0.00611711
     258          0.458467        0.000000        0.00048725        0.36037708        0.01918208        0.01340075
     259          0.458586        0.000000        0.00049327        0.37233114        0.01521266        0.00357983