# Projected DOS for atomic kind C at iteration step i = 0, E(Fermi) =    -0.177063 a.u.
#     MO Eigenvalue [a.u.]      Occupation                 s                py                pz                px
       1         -0.963952        1.000000        0.05934411        0.00417018        0.00514518        0.03602089
       2         -0.953652        1.000000        0.06376406        0.00000746        0.02281908        0.02421990
       3         -0.952791        1.000000        0.05845059        0.00322824        0.00464255        0.03602935
       4         -0.951426        1.000000        0.06205655        0.00052478        0.00023824        0.04463829
       5         -0.949218        1.000000        0.06473346        0.00133435        0.00328869        0.04272912
       6         -0.937979        1.000000        0.06277856        0.00000265        0.01077969        0.03368983
       7         -0.931949        1.000000        0.06398555        0.00000386        0.01730269        0.02771831
       8         -0.699165        1.000000        0.43478169        0.00018251        0.00001237        0.00048006
       9         -0.693746        1.000000        0.43737040        0.00000936        0.00001969        0.00127303
      10         -0.692376        1.000000        0.43086004        0.00012790        0.00043729        0.00058518
      11         -0.690391        1.000000        0.44004683        0.00000817        0.00000056        0.00074046
      12         -0.689686        1.000000        0.42994287        0.00000385        0.00000066        0.00125436
      13         -0.685468        1.000000        0.43705917        0.00000024        0.00029779        0.00146925
      14         -0.679913        1.000000        0.43757824        0.00000119        0.00084402        0.00075855
      15         -0.639509        1.000000        0.00022987        0.00063649        0.00000505        0.00001730
      16         -0.621427        1.000000        0.00036592        0.00024557        0.00002966        0.00043250
      17         -0.600659        1.000000        0.00022868        0.00132488        0.00086567        0.00012116
      18         -0.598218        1.000000        0.00014659        0.00172989        0.00119325        0.00087202
      19         -0.592662        1.000000        0.00037404        0.00029213        0.03111660        0.00426693
      20         -0.592031        1.000000        0.00010524        0.00468880        0.00662150        0.00134647
      21         -0.590896        1.000000        0.00020253        0.00132069        0.01138426        0.00137330
      22         -0.590500        1.000000        0.00029170        0.00178416        0.00658841        0.00110464
      23         -0.589279        1.000000        0.00042238        0.00150321        0.00414624        0.00167327
      24         -0.586684        1.000000        0.00010672        0.00130547        0.00602698        0.00373253
      25         -0.584889        1.000000        0.00021155        0.00463816        0.00337450        0.00151470
      26         -0.581555        1.000000        0.00010441        0.01251704        0.01174971        0.00154893
      27         -0.580470        1.000000        0.00007685        0.02188760        0.01595573        0.00060168
      28         -0.579475        1.000000        0.00013686        0.00299012        0.01935415        0.01010855
      29         -0.578976        1.000000        0.00023018        0.00929829        0.00307813        0.00180739
      30         -0.578110        1.000000        0.00010772        0.00891339        0.00151875        0.00096537
      31         -0.577701        1.000000        0.00010146        0.00622818        0.00515587        0.00263380
      32         -0.577273        1.000000        0.00035947        0.02740559        0.00294968        0.00305649
      33         -0.575692        1.000000        0.00001158        0.02550296        0.01223461        0.00051258
      34         -0.575409        1.000000        0.00001567        0.01532934        0.00756664        0.00062752
      35         -0.574116        1.000000        0.00005613        0.00406014        0.00506366        0.00220180
      36         -0.572536        1.000000        0.00003326        0.00210040        0.00217813        0.00166971
      37         -0.572082        1.000000        0.00027104        0.00546410        0.00358104        0.00402591
      38         -0.571982        1.000000        0.00009336        0.00369394        0.00378634        0.00382327
      39         -0.570427        1.000000        0.00003543        0.00445502        0.00359331        0.00088886
      40         -0.570189        1.000000        0.00007197        0.00648657        0.00292963        0.00073307
      41         -0.569252        1.000000        0.00009972        0.01230479        0.00235723        0.00191042
      42         -0.568442        1.000000        0.00004479        0.00234954        0.00134158        0.00025561
      43         -0.568349        1.000000        0.00011188        0.04862464        0.00016447        0.00041189
      44         -0.566849        1.000000        0.00029022        0.02677699        0.00382902        0.00216760
      45         -0.566093        1.000000        0.00026076        0.03898871        0.00241007        0.00107200
      46         -0.564756        1.000000        0.00000752        0.00009996        0.00013687        0.00001003
      47         -0.564400        1.000000        0.00000890        0.00014286        0.00035168        0.00007315
      48         -0.564086        1.000000        0.00022826        0.00056924        0.00288894        0.00043435
      49         -0.563934        1.000000        0.00005206        0.00227929        0.00547204        0.00190239
      50         -0.563027        1.000000        0.00008973        0.00343656        0.00190286        0.00027836
      51         -0.562501        1.000000        0.00052806        0.00102329        0.02127372        0.00039483
      52         -0.561421        1.000000        0.00002331        0.00053699        0.00156896        0.00052843
      53         -0.560335        1.000000        0.00041708        0.00825934        0.02028589        0.00311035
      54         -0.559738        1.000000        0.00014977        0.00138387        0.01034118        0.00096108
      55         -0.559064        1.000000        0.00012940        0.00330331        0.00203887        0.00041490
      56         -0.558898        1.000000        0.00025125        0.00424623        0.01853039        0.00135405
      57         -0.558043        1.000000        0.00010909        0.00001381        0.00005624        0.00005429
      58         -0.556931        1.000000        0.00003152        0.00056366        0.00015156        0.00024712
      59         -0.555390        1.000000        0.00006702        0.00806156        0.01082850        0.00071414
      60         -0.555165        1.000000        0.00007775        0.00420688        0.01207759        0.00049238
      61         -0.553526        1.000000        0.00007784        0.00830531        0.03636147        0.01387160
      62         -0.553100        1.000000        0.00001308        0.04344573        0.00640024        0.00220480
      63         -0.548389        1.000000        0.00036111        0.00067982        0.02783261        0.02530354
      64         -0.540507        1.000000        0.00011257        0.04852147        0.00014755        0.00012083
      65         -0.484850        1.000000        0.03058154        0.02840682        0.03534500        0.27291482
      66         -0.478039        1.000000        0.02609645        0.00441813        0.00129442        0.33510568
      67         -0.477142        1.000000        0.02814829        0.00022312        0.15977550        0.17793602
      68         -0.474568        1.000000        0.02764742        0.01007392        0.02134819        0.30700323
      69         -0.470849        1.000000        0.02832225        0.02135743        0.03077767        0.28721159
      70         -0.464883        1.000000        0.02203875        0.00011049        0.07855105        0.25758086
      71         -0.461439        1.000000        0.00026439        0.00001888        0.00056307        0.00293439
      72         -0.459508        1.000000        0.00706870        0.00021806        0.04182558        0.06026212
      73         -0.459320        1.000000        0.01661725        0.00017258        0.09627645        0.14261503
      74         -0.455697        1.000000        0.00012034        0.00027448        0.00087863        0.00140718
      75         -0.453477        1.000000        0.00021494        0.00016706        0.00030212        0.00148952
      76         -0.452562        1.000000        0.00021951        0.00036312        0.00170066        0.00185837
      77         -0.447634        1.000000        0.00009850        0.00022154        0.00096712        0.00114409
      78         -0.445228        1.000000        0.00018070        0.00010402        0.00157941        0.00211840
      79         -0.442188        1.000000        0.00009208        0.00010030        0.00040775        0.00112337
      80         -0.412127        1.000000        0.00000111        0.32994710        0.20584514        0.00012166
      81         -0.410211        1.000000        0.00000192        0.16258107        0.27755899        0.10383579
      82         -0.408695        1.000000        0.00001393        0.39256890        0.13256973        0.00964817
      83         -0.407130        1.000000        0.00002878        0.06639473        0.44624364        0.02499953
      84         -0.406614        1.000000        0.00002839        0.05472714        0.25717991        0.22576904
      85         -0.406368        1.000000        0.00001208        0.13460510        0.40316083        0.00010393
      86         -0.404581        1.000000        0.00000254        0.50668494        0.00968112        0.00974964
      87         -0.404349        1.000000        0.00004595        0.44478219        0.03748727        0.05662361
      88         -0.404169        1.000000        0.00001161        0.48452551        0.02057853        0.02534802
      89         -0.403016        1.000000        0.00000132        0.18519688        0.34190249        0.00819377
      90         -0.402218        1.000000        0.00000252        0.33600521        0.14662480        0.04723400
      91         -0.401002        1.000000        0.00003551        0.00141984        0.40421339        0.12052295
      92         -0.397469        1.000000        0.00001902        0.00871120        0.31427642        0.20485856
      93         -0.395316        1.000000        0.00000197        0.51985488        0.00544256        0.00347082
      94         -0.318014        1.000000        0.00007380        0.00063298        0.00019003        0.00020142
      95         -0.291899        1.000000        0.00003267        0.00012679        0.00004086        0.00003042
      96         -0.280335        1.000000        0.00003908        0.00009606        0.00013886        0.00006974
      97         -0.276957        1.000000        0.00019466        0.00007304        0.00011674        0.00038171
      98         -0.275710        1.000000        0.00009632        0.00039993        0.00015901        0.00010996
      99         -0.273171        1.000000        0.00002367        0.00022962        0.00017630        0.00004787
     100         -0.270765        1.000000        0.00007440        0.00028596        0.00009708        0.00007149
     101         -0.269732        1.000000        0.00001981        0.00047607        0.00013193        0.00001835
     102         -0.267184        1.000000        0.00007038        0.00031032        0.00008413        0.00012808
     103         -0.265334        1.000000        0.00003811        0.00012266        0.00004574        0.00009178
     104         -0.262774        1.000000        0.00021656        0.00052105        0.00007241        0.00005780
     105         -0.261211        1.000000        0.00014767        0.00004174        0.00021472        0.00006283
     106         -0.260330        1.000000        0.00002143        0.00019712        0.00010713        0.00024226
     107         -0.258140        1.000000        0.00010345        0.00007532        0.00003609        0.00047202
     108         -0.256462        1.000000        0.00002879        0.00009369        0.00010024        0.00003541
     109         -0.255786        1.000000        0.00001892        0.00006027        0.00013663        0.00002005
     110         -0.250599        1.000000        0.00031101        0.00057589        0.00011150        0.00029463
     111         -0.248720        1.000000        0.00010351        0.00027701        0.00011369        0.00014099
     112         -0.247005        1.000000        0.00008442        0.00015700        0.00024978        0.00002678
     113         -0.245618        1.000000        0.00007451        0.00008978        0.00009395        0.00005592
     114         -0.243260        1.000000        0.00001720        0.00001164        0.00036172        0.00006600
     115         -0.240633        1.000000        0.00007291        0.00012261        0.00008135        0.00032470
     116         -0.238647        1.000000        0.00053274        0.00104350        0.00023659        0.00038774
     117         -0.237682        1.000000        0.00024664        0.00052078        0.00009536        0.00039348
     118         -0.236452        1.000000        0.00025996        0.00065794        0.00007298        0.00022088
     119         -0.236225        1.000000        0.00015263        0.00035515        0.00070753        0.00185117
     120         -0.234906        1.000000        0.00023001        0.00014889        0.00020490        0.00034533
     121         -0.232850        1.000000        0.00018431        0.00013933        0.00030537        0.00045678
     122         -0.230106        1.000000        0.00033099        0.00008244        0.00003992        0.00034174
     123         -0.227876        1.000000        0.00034904        0.00033396        0.00055523        0.00015083
     124         -0.226350        1.000000        0.00072263        0.00054352        0.00046008        0.00033790
     125         -0.224700        1.000000        0.00014571        0.00048605        0.00027258        0.00007977
     126         -0.223492        1.000000        0.00023197        0.00021891        0.00037589        0.00038145
     127         -0.222918        1.000000        0.00027485        0.00019018        0.00067127        0.00022566
     128         -0.219868        1.000000        0.00004587        0.00049703        0.00026602        0.00051338
     129         -0.218764        1.000000        0.00008532        0.00006361        0.00008684        0.00023859
     130         -0.216983        1.000000        0.00014342        0.00014251        0.00089364        0.00074817
     131         -0.214888        1.000000        0.00004317        0.00033143        0.00037462        0.00018581
     132         -0.213318        1.000000        0.00021159        0.00062588        0.00063815        0.00017171
     133         -0.212266        1.000000        0.00007340        0.00021500        0.00026216        0.00020450
     134         -0.210954        1.000000        0.00022549        0.00034702        0.00043455        0.00058559
     135         -0.210655        1.000000        0.00009650        0.00014120        0.00045344        0.00049622
     136         -0.209030        1.000000        0.00004716        0.00014567        0.00035232        0.00014199
     137         -0.208479        1.000000        0.00013820        0.00010367        0.00048311        0.00010380
     138         -0.207249        1.000000        0.00020651        0.00014264        0.00061000        0.00029374
     139         -0.206484        1.000000        0.00028764        0.00020320        0.00040767        0.00004543
     140         -0.205641        1.000000        0.00027329        0.00008092        0.00018935        0.00024970
     141         -0.203961        1.000000        0.00008101        0.00014710        0.00014148        0.00008961
     142         -0.203259        1.000000        0.00010399        0.00003866        0.00043993        0.00033574
     143         -0.202098        1.000000        0.00006129        0.00004486        0.00030047        0.00013037
     144         -0.201462        1.000000        0.00008727        0.00024877        0.00009500        0.00003738
     145         -0.200314        1.000000        0.00004212        0.00003923        0.00019146        0.00007001
     146         -0.199599        1.000000        0.00014604        0.00009869        0.00016625        0.00016804
     147         -0.198947        1.000000        0.00007396        0.00019969        0.00011704        0.00017316
     148         -0.197179        1.000000        0.00004424        0.00011422        0.00010147        0.00011882
     149         -0.195816        1.000000        0.00011759        0.00016202        0.00008617        0.00006562
     150         -0.195595        1.000000        0.00020471        0.00021030        0.00010250        0.00027535
     151         -0.194755        1.000000        0.00010750        0.00031997        0.00018371        0.00003749
     152         -0.194592        1.000000        0.00006168        0.00015634        0.00012695        0.00024848
     153         -0.194116        1.000000        0.00010799        0.00012348        0.00047224        0.00019026
     154         -0.194049        1.000000        0.00016416        0.00008146        0.00003428        0.00025787
     155         -0.192854        1.000000        0.00010997        0.00016386        0.00014811        0.00013554
     156         -0.192734        1.000000        0.00005023        0.00009631        0.00009691        0.00008826
     157         -0.192655        1.000000        0.00004251        0.00011811        0.00001900        0.00004283
     158         -0.192097        1.000000        0.00002761        0.00022983        0.00009887        0.00001833
     159         -0.191663        1.000000        0.00010091        0.00026127        0.00005587        0.00008598
     160         -0.191201        1.000000        0.00012428        0.00003692        0.00022495        0.00007642
     161         -0.190689        1.000000        0.00002949        0.00021258        0.00028256        0.00015224
     162         -0.190393        1.000000        0.00010274        0.00019221        0.00012538        0.00007518
     163         -0.190173        1.000000        0.00015609        0.00024768        0.00010899        0.00010998
     164         -0.189945        1.000000        0.00005468        0.00012516        0.00032116        0.00011690
     165         -0.189721        1.000000        0.00003071        0.00016642        0.00013737        0.00006125
     166         -0.189591        1.000000        0.00003069        0.00029699        0.00010628        0.00006880
     167         -0.189347        1.000000        0.00006591        0.00018132        0.00024427        0.00013056
     168         -0.188895        1.000000        0.00007755        0.00013999        0.00011084        0.00003964
     169         -0.188480        1.000000        0.00018042        0.00029683        0.00005056        0.00011465
     170         -0.187449        1.000000        0.00018051        0.00045353        0.00011270        0.00006916
     171         -0.187166        1.000000        0.00008531        0.00014196        0.00013151        0.00006164
     172         -0.186245        1.000000        0.00033916        0.00080902        0.00002764        0.00027088
     173         -0.185901        1.000000        0.00005183        0.00006774        0.00003603        0.00003595
     174         -0.185268        1.000000        0.00007677        0.00016804        0.00025524        0.00009233
     175         -0.185167        1.000000        0.00009946        0.00047103        0.00004741        0.00026173
     176         -0.184669        1.000000        0.00003307        0.00008600        0.00024206        0.00041248
     177         -0.184537        1.000000        0.00011345        0.00018857        0.00017240        0.00007864
     178         -0.184045        1.000000        0.00001325        0.00007024        0.00015399        0.00001943
     179         -0.183577        1.000000        0.00003210        0.00006253        0.00003650        0.00016318
     180         -0.183253        1.000000        0.00011811        0.00004017        0.00011618        0.00011112
     181         -0.182830        1.000000        0.00003898        0.00028899        0.00009148        0.00013373
     182         -0.182704        1.000000        0.00011286        0.00027595        0.00035502        0.00012185
     183         -0.181208        1.000000        0.00005913        0.00013526        0.00006524        0.00004778
     184         -0.180827        1.000000        0.00012061        0.00023526        0.00046162        0.00007123
     185         -0.180628        1.000000        0.00009842        0.00019159        0.00007207        0.00004127
     186         -0.180124        1.000000        0.00014442        0.00013108        0.00005646        0.00003044
     187         -0.179712        1.000000        0.00004049        0.00007213        0.00002851        0.00005595
     188         -0.179556        1.000000        0.00001953        0.00002814        0.00005994        0.00004617
     189         -0.179216        1.000000        0.00005635        0.00014074        0.00007066        0.00005647
     190         -0.179074        1.000000        0.00006952        0.00007239        0.00007937        0.00003881
     191         -0.178870        1.000000        0.00005431        0.00010964        0.00017245        0.00003861
     192         -0.178197        1.000000        0.00002545        0.00003811        0.00008608        0.00002050
     193         -0.177940        1.000000        0.00002817        0.00005486        0.00001490        0.00000750
     194         -0.177609        1.000000        0.00003105        0.00003741        0.00001504        0.00003046
     195         -0.177063        1.000000        0.00001689        0.00001477        0.00004061        0.00006949
     196         -0.176969        0.000000        0.00000503        0.00003153        0.00001924        0.00005014
     197         -0.175375        0.000000        0.00001332        0.00003117        0.00002425        0.00003891
     198         -0.173044        0.000000        0.00000813        0.00001253        0.00003785        0.00000875
     199         -0.171759        0.000000        0.00000729        0.00002234        0.00000986        0.00000851
     200         -0.170731        0.000000        0.00000671        0.00002723        0.00002168        0.00000258
     201         -0.167833        0.000000        0.00000704        0.00002132        0.00001972        0.00001086
     202         -0.062066        0.000000        0.00001575        0.00002613        0.00002968        0.00001088
     203         -0.054521        0.000000        0.00003800        0.00001804        0.00001853        0.00003021
     204         -0.053360        0.000000        0.00001365        0.00003347        0.00003665        0.00009252
     205         -0.047584        0.000000        0.00002379        0.00001395        0.00000566        0.00004948
     206         -0.047422        0.000000        0.00001105        0.00002419        0.00003445        0.00005008
     207         -0.045527        0.000000        0.00001177        0.00001401        0.00002759        0.00004521
     208         -0.042808        0.000000        0.00001144        0.00001934        0.00001165        0.00005252
     209         -0.039553        0.000000        0.00001125        0.00000453        0.00003860        0.00001165
     210         -0.038932        0.000000        0.00001385        0.00001391        0.00001213        0.00002832
     211         -0.037283        0.000000        0.00001927        0.00002861        0.00001277        0.00000463
     212         -0.035900        0.000000        0.00004273        0.00000986        0.00000285        0.00001659
     213         -0.032514        0.000000        0.00001285        0.00001194        0.00000499        0.00003301
     214         -0.031344        0.000000        0.00000660        0.00000390        0.00000710        0.00002096
     215         -0.029662        0.000000        0.00001549        0.00000606        0.00001622        0.00001340
     216         -0.023261        0.000000        0.00001434        0.00001889        0.00004287        0.00005270
     217         -0.023067        0.000000        0.00001877        0.00003441        0.00002797        0.00004103
     218         -0.017316        0.000000        0.00000313        0.00000424        0.00000218        0.00000896
     219         -0.016519        0.000000        0.00003022        0.00000537        0.00000172        0.00001001
     220         -0.015096        0.000000        0.00001427        0.00000732        0.00000480        0.00004539
     221         -0.012364        0.000000        0.00002330        0.00002934        0.00001137        0.00002947
     222         -0.010501        0.000000        0.00000241        0.00001032        0.00001429        0.00001093
     223         -0.005951        0.000000        0.00001730        0.00000141        0.00001786        0.00004297
     224         -0.004803        0.000000        0.00001386        0.00000547        0.00002925        0.00005981
     225         -0.003814        0.000000        0.00001065        0.00000816        0.00000827        0.00008422
     226          0.087853        0.000000        0.08245823        0.04848042        0.06066854        0.43548197
     227          0.093990        0.000000        0.08431943        0.00758697        0.00283350        0.53158100
     228          0.094785        0.000000        0.07800521        0.03935180        0.05838100        0.46122265
     229          0.103032        0.000000        0.08223875        0.00019828        0.26011101        0.28262652
     230          0.106456        0.000000        0.08127016        0.01291807        0.03583637        0.48453031
     231          0.108973        0.000000        0.07726516        0.00017766        0.12879376        0.42108763
     232          0.112669        0.000000        0.07799220        0.00007376        0.21355666        0.33534876
     233          0.167344        0.000000        0.00376808        0.00012994        0.00118979        0.00963254
     234          0.170605        0.000000        0.00509082        0.00075908        0.00241574        0.01269572
     235          0.184046        0.000000        0.00333873        0.00045840        0.00293335        0.00417315
     236          0.208632        0.000000        0.00300247        0.00224047        0.00000519        0.00545215
     237          0.276027        0.000000        0.00012522        0.00003707        0.00383563        0.00097794
     238          0.283006        0.000000        0.00000232        0.00325765        0.00164037        0.00002456
     239          0.288344        0.000000        0.00004368        0.00055466        0.00664675        0.00020064
     240          0.289447        0.000000        0.00002965        0.00148240        0.00253280        0.00122672
     241          0.290444        0.000000        0.00001226        0.00044601        0.00301476        0.00262822
     242          0.295964        0.000000        0.00001193        0.00436032        0.00216914        0.00033611
     243          0.298296        0.000000        0.00002200        0.00152421        0.00404003        0.00129848
     244          0.300018        0.000000        0.00000407        0.00013808        0.00453288        0.00248091
     245          0.304635        0.000000        0.00269879        0.00302268        0.00008084        0.00043671
     246          0.304825        0.000000        0.00063547        0.00638519        0.00040031        0.00025540
     247          0.307504        0.000000        0.00002409        0.00755126        0.00026284        0.00000133
     248          0.319131        0.000000        0.00484981        0.00000382        0.00002841        0.00000202
     249          0.325104        0.000000        0.00379502        0.00345933        0.00038126        0.00003755
     250          0.326584        0.000000        0.00364681        0.00397654        0.00029616        0.00001890
     251          0.328243        0.000000        0.00352629        0.00082086        0.00280159        0.00028353
     252          0.345786        0.000000        0.00507458        0.00034211        0.00015048        0.00000979
     253          0.347481        0.000000        0.00603964        0.00000825        0.00001228        0.00010299
     254          0.454056        0.000000        0.00001510        0.05094966        0.26762615        0.07082379
     255          0.455661        0.000000        0.00067280        0.28727271        0.09945439        0.00306638
     256          0.457241        0.000000        0.00025888        0.09706768        0.28749206        0.00684215
     257          0.458328        0.000000        0.00011042        0.32075492        0.06733956        0.00612999
     258          0.458394        0.000000        0.00047910        0.36013596        0.01950347        0.01333302
     259          0.458548        0.000000        0.00048468        0.37180970        0.01568006        0.00366348