# Projected DOS for atomic kind H at iteration step i = 0, E(Fermi) =    -0.177063 a.u.
#     MO Eigenvalue [a.u.]      Occupation                 s
       1         -0.963952        1.000000        0.27181345
       2         -0.953652        1.000000        0.26967112
       3         -0.952791        1.000000        0.28249978
       4         -0.951426        1.000000        0.27286670
       5         -0.949218        1.000000        0.26779467
       6         -0.937979        1.000000        0.28042867
       7         -0.931949        1.000000        0.27863212
       8         -0.699165        1.000000        0.33537187
       9         -0.693746        1.000000        0.34218965
      10         -0.692376        1.000000        0.33951798
      11         -0.690391        1.000000        0.33902793
      12         -0.689686        1.000000        0.34066356
      13         -0.685468        1.000000        0.34836797
      14         -0.679913        1.000000        0.34709859
      15         -0.639509        1.000000        0.00587168
      16         -0.621427        1.000000        0.00095264
      17         -0.600659        1.000000        0.00664127
      18         -0.598218        1.000000        0.02255677
      19         -0.592662        1.000000        0.21053793
      20         -0.592031        1.000000        0.07902864
      21         -0.590896        1.000000        0.08868033
      22         -0.590500        1.000000        0.06167757
      23         -0.589279        1.000000        0.04488327
      24         -0.586684        1.000000        0.07008486
      25         -0.584889        1.000000        0.06182600
      26         -0.581555        1.000000        0.14514201
      27         -0.580470        1.000000        0.22493550
      28         -0.579475        1.000000        0.18425369
      29         -0.578976        1.000000        0.07120936
      30         -0.578110        1.000000        0.05765756
      31         -0.577701        1.000000        0.07665840
      32         -0.577273        1.000000        0.17676292
      33         -0.575692        1.000000        0.21579280
      34         -0.575409        1.000000        0.13700101
      35         -0.574116        1.000000        0.05942388
      36         -0.572536        1.000000        0.03304812
      37         -0.572082        1.000000        0.06788263
      38         -0.571982        1.000000        0.05493790
      39         -0.570427        1.000000        0.05034531
      40         -0.570189        1.000000        0.05771272
      41         -0.569252        1.000000        0.07791210
      42         -0.568442        1.000000        0.01776297
      43         -0.568349        1.000000        0.24961864
      44         -0.566849        1.000000        0.16277617
      45         -0.566093        1.000000        0.20699311
      46         -0.564756        1.000000        0.00036037
      47         -0.564400        1.000000        0.00200329
      48         -0.564086        1.000000        0.01481068
      49         -0.563934        1.000000        0.05130007
      50         -0.563027        1.000000        0.03363847
      51         -0.562501        1.000000        0.10686820
      52         -0.561421        1.000000        0.01656509
      53         -0.560335        1.000000        0.13967522
      54         -0.559738        1.000000        0.05580307
      55         -0.559064        1.000000        0.02271341
      56         -0.558898        1.000000        0.10453179
      57         -0.558043        1.000000        0.00392870
      58         -0.556931        1.000000        0.00246380
      59         -0.555390        1.000000        0.08318503
      60         -0.555165        1.000000        0.06802552
      61         -0.553526        1.000000        0.26671907
      62         -0.553100        1.000000        0.22246809
      63         -0.548389        1.000000        0.22834104
      64         -0.540507        1.000000        0.18492105
      65         -0.484850        1.000000        0.18947491
      66         -0.478039        1.000000        0.18521469
      67         -0.477142        1.000000        0.18930563
      68         -0.474568        1.000000        0.19021456
      69         -0.470849        1.000000        0.18012093
      70         -0.464883        1.000000        0.17172866
      71         -0.461439        1.000000        0.00173427
      72         -0.459508        1.000000        0.05343534
      73         -0.459320        1.000000        0.12379173
      74         -0.455697        1.000000        0.00146481
      75         -0.453477        1.000000        0.00122778
      76         -0.452562        1.000000        0.00195644
      77         -0.447634        1.000000        0.00104866
      78         -0.445228        1.000000        0.00169863
      79         -0.442188        1.000000        0.00071072
      80         -0.412127        1.000000        0.42115402
      81         -0.410211        1.000000        0.41745577
      82         -0.408695        1.000000        0.42341587
      83         -0.407130        1.000000        0.42215360
      84         -0.406614        1.000000        0.42202639
      85         -0.406368        1.000000        0.41986970
      86         -0.404581        1.000000        0.42274359
      87         -0.404349        1.000000        0.41956382
      88         -0.404169        1.000000        0.42277310
      89         -0.403016        1.000000        0.42217324
      90         -0.402218        1.000000        0.42215686
      91         -0.401002        1.000000        0.42237491
      92         -0.397469        1.000000        0.42620810
      93         -0.395316        1.000000        0.42313421
      94         -0.318014        1.000000        0.00046502
      95         -0.291899        1.000000        0.00013222
      96         -0.280335        1.000000        0.00047869
      97         -0.276957        1.000000        0.00052509
      98         -0.275710        1.000000        0.00045941
      99         -0.273171        1.000000        0.00021133
     100         -0.270765        1.000000        0.00022694
     101         -0.269732        1.000000        0.00038248
     102         -0.267184        1.000000        0.00046989
     103         -0.265334        1.000000        0.00027640
     104         -0.262774        1.000000        0.00031577
     105         -0.261211        1.000000        0.00020951
     106         -0.260330        1.000000        0.00038054
     107         -0.258140        1.000000        0.00098652
     108         -0.256462        1.000000        0.00017631
     109         -0.255786        1.000000        0.00016685
     110         -0.250599        1.000000        0.00042524
     111         -0.248720        1.000000        0.00034307
     112         -0.247005        1.000000        0.00029353
     113         -0.245618        1.000000        0.00013996
     114         -0.243260        1.000000        0.00050727
     115         -0.240633        1.000000        0.00043016
     116         -0.238647        1.000000        0.00076456
     117         -0.237682        1.000000        0.00042304
     118         -0.236452        1.000000        0.00046678
     119         -0.236225        1.000000        0.00245029
     120         -0.234906        1.000000        0.00055384
     121         -0.232850        1.000000        0.00062565
     122         -0.230106        1.000000        0.00056346
     123         -0.227876        1.000000        0.00084101
     124         -0.226350        1.000000        0.00074871
     125         -0.224700        1.000000        0.00047260
     126         -0.223492        1.000000        0.00132808
     127         -0.222918        1.000000        0.00077017
     128         -0.219868        1.000000        0.00134698
     129         -0.218764        1.000000        0.00133929
     130         -0.216983        1.000000        0.00175030
     131         -0.214888        1.000000        0.00110084
     132         -0.213318        1.000000        0.00108932
     133         -0.212266        1.000000        0.00102118
     134         -0.210954        1.000000        0.00153063
     135         -0.210655        1.000000        0.00162066
     136         -0.209030        1.000000        0.00042469
     137         -0.208479        1.000000        0.00094843
     138         -0.207249        1.000000        0.00092958
     139         -0.206484        1.000000        0.00078520
     140         -0.205641        1.000000        0.00047747
     141         -0.203961        1.000000        0.00052164
     142         -0.203259        1.000000        0.00137080
     143         -0.202098        1.000000        0.00053645
     144         -0.201462        1.000000        0.00044803
     145         -0.200314        1.000000        0.00038517
     146         -0.199599        1.000000        0.00044401
     147         -0.198947        1.000000        0.00069797
     148         -0.197179        1.000000        0.00101108
     149         -0.195816        1.000000        0.00060360
     150         -0.195595        1.000000        0.00111230
     151         -0.194755        1.000000        0.00035757
     152         -0.194592        1.000000        0.00162603
     153         -0.194116        1.000000        0.00053245
     154         -0.194049        1.000000        0.00058611
     155         -0.192854        1.000000        0.00033580
     156         -0.192734        1.000000        0.00051565
     157         -0.192655        1.000000        0.00064963
     158         -0.192097        1.000000        0.00049370
     159         -0.191663        1.000000        0.00048168
     160         -0.191201        1.000000        0.00055008
     161         -0.190689        1.000000        0.00079588
     162         -0.190393        1.000000        0.00039965
     163         -0.190173        1.000000        0.00039340
     164         -0.189945        1.000000        0.00036940
     165         -0.189721        1.000000        0.00041910
     166         -0.189591        1.000000        0.00064307
     167         -0.189347        1.000000        0.00066734
     168         -0.188895        1.000000        0.00010574
     169         -0.188480        1.000000        0.00034454
     170         -0.187449        1.000000        0.00044180
     171         -0.187166        1.000000        0.00046956
     172         -0.186245        1.000000        0.00060123
     173         -0.185901        1.000000        0.00052134
     174         -0.185268        1.000000        0.00078942
     175         -0.185167        1.000000        0.00055724
     176         -0.184669        1.000000        0.00055877
     177         -0.184537        1.000000        0.00025483
     178         -0.184045        1.000000        0.00041788
     179         -0.183577        1.000000        0.00039039
     180         -0.183253        1.000000        0.00018744
     181         -0.182830        1.000000        0.00030295
     182         -0.182704        1.000000        0.00042286
     183         -0.181208        1.000000        0.00027485
     184         -0.180827        1.000000        0.00014241
     185         -0.180628        1.000000        0.00018093
     186         -0.180124        1.000000        0.00015001
     187         -0.179712        1.000000        0.00021555
     188         -0.179556        1.000000        0.00009971
     189         -0.179216        1.000000        0.00014281
     190         -0.179074        1.000000        0.00016360
     191         -0.178870        1.000000        0.00013856
     192         -0.178197        1.000000        0.00012447
     193         -0.177940        1.000000        0.00009150
     194         -0.177609        1.000000        0.00014832
     195         -0.177063        1.000000        0.00018836
     196         -0.176969        0.000000        0.00010917
     197         -0.175375        0.000000        0.00010244
     198         -0.173044        0.000000        0.00014940
     199         -0.171759        0.000000        0.00008833
     200         -0.170731        0.000000        0.00007955
     201         -0.167833        0.000000        0.00007401
     202         -0.062066        0.000000        0.00010757
     203         -0.054521        0.000000        0.00007074
     204         -0.053360        0.000000        0.00063711
     205         -0.047584        0.000000        0.00039609
     206         -0.047422        0.000000        0.00036946
     207         -0.045527        0.000000        0.00022997
     208         -0.042808        0.000000        0.00024728
     209         -0.039553        0.000000        0.00019247
     210         -0.038932        0.000000        0.00012702
     211         -0.037283        0.000000        0.00011825
     212         -0.035900        0.000000        0.00012721
     213         -0.032514        0.000000        0.00011739
     214         -0.031344        0.000000        0.00015774
     215         -0.029662        0.000000        0.00008477
     216         -0.023261        0.000000        0.00033923
     217         -0.023067        0.000000        0.00009329
     218         -0.017316        0.000000        0.00020276
     219         -0.016519        0.000000        0.00007200
     220         -0.015096        0.000000        0.00018493
     221         -0.012364        0.000000        0.00013062
     222         -0.010501        0.000000        0.00021370
     223         -0.005951        0.000000        0.00034001
     224         -0.004803        0.000000        0.00041093
     225         -0.003814        0.000000        0.00060783
     226          0.087853        0.000000        0.01780466
     227          0.093990        0.000000        0.01249362
     228          0.094785        0.000000        0.00328888
     229          0.103032        0.000000        0.01353629
     230          0.106456        0.000000        0.02510761
     231          0.108973        0.000000        0.00444577
     232          0.112669        0.000000        0.00466435
     233          0.167344        0.000000        0.64952686
     234          0.170605        0.000000        0.64248494
     235          0.184046        0.000000        0.65210231
     236          0.208632        0.000000        0.65093546
     237          0.276027        0.000000        0.66127011
     238          0.283006        0.000000        0.65922700
     239          0.288344        0.000000        0.66718185
     240          0.289447        0.000000        0.66070008
     241          0.290444        0.000000        0.66663415
     242          0.295964        0.000000        0.66546209
     243          0.298296        0.000000        0.66463629
     244          0.300018        0.000000        0.66370562
     245          0.304635        0.000000        0.64766094
     246          0.304825        0.000000        0.65994553
     247          0.307504        0.000000        0.66372962
     248          0.319131        0.000000        0.63362460
     249          0.325104        0.000000        0.64363037
     250          0.326584        0.000000        0.64369556
     251          0.328243        0.000000        0.64334143
     252          0.345786        0.000000        0.63273372
     253          0.347481        0.000000        0.63020108
     254          0.454056        0.000000        0.58824758
     255          0.455661        0.000000        0.58696828
     256          0.457241        0.000000        0.58305751
     257          0.458328        0.000000        0.58783853
     258          0.458394        0.000000        0.58458293
     259          0.458548        0.000000        0.58807145
     260          0.463013        0.000000        0.58548878
     261          0.463352        0.000000        0.58322156
     262          0.464786        0.000000        0.58515465
     263          0.467130        0.000000        0.58192176
     264          0.469121        0.000000        0.58460350
     265          0.469598        0.000000        0.58012293
     266          0.470437        0.000000        0.57822278
     267          0.472301        0.000000        0.58211313
     268          0.556855        0.000000        0.55417373
     269          0.561544        0.000000        0.55298374
     270          0.563138        0.000000        0.55303035
     271          0.563500        0.000000        0.55255250
     272          0.563823        0.000000        0.55198322
     273          0.568269        0.000000        0.55175793
     274          0.573284        0.000000        0.55103677
