# Projected DOS for atomic kind N at iteration step i = 0, E(Fermi) =    -0.176036 a.u.
#     MO Eigenvalue [a.u.]      Occupation                 s                py                pz                px
       1         -0.963934        1.000000        0.62215393        0.00108507        0.00009080        0.00000576
       2         -0.953625        1.000000        0.61839742        0.00061423        0.00002630        0.00005147
       3         -0.952766        1.000000        0.61412090        0.00000130        0.00007254        0.00022752
       4         -0.951411        1.000000        0.61879096        0.00035110        0.00003948        0.00004343
       5         -0.949203        1.000000        0.61879492        0.00012025        0.00069067        0.00005818
       6         -0.937962        1.000000        0.61092816        0.00000183        0.00010470        0.00000305
       7         -0.931926        1.000000        0.61124374        0.00001122        0.00010359        0.00000785
       8         -0.699136        1.000000        0.01569363        0.02826235        0.01875363        0.16561486
       9         -0.693725        1.000000        0.01755224        0.00094209        0.00130918        0.19856719
      10         -0.692350        1.000000        0.01860095        0.00172964        0.10266120        0.10367471
      11         -0.690353        1.000000        0.01546421        0.01344152        0.01713146        0.17257058
      12         -0.689680        1.000000        0.01899815        0.00390190        0.00731964        0.19663337
      13         -0.685448        1.000000        0.01792665        0.00001151        0.04785576        0.14294061
      14         -0.679885        1.000000        0.01845732        0.00001027        0.08028564        0.11288046
      15         -0.639427        1.000000        0.00025066        0.00564888        0.00007298        0.00030263
      16         -0.620629        1.000000        0.00002792        0.00059434        0.00073461        0.00007523
      17         -0.599449        1.000000        0.00007322        0.00869357        0.01034226        0.00304633
      18         -0.598018        1.000000        0.00048188        0.01158687        0.00903459        0.00280883
      19         -0.592240        1.000000        0.00016212        0.00330736        0.43168214        0.06976030
      20         -0.592031        1.000000        0.00027674        0.04053367        0.06386183        0.01473894
      21         -0.590704        1.000000        0.00007904        0.02615825        0.01268676        0.00322180
      22         -0.589542        1.000000        0.00076300        0.02185546        0.07772906        0.01435249
      23         -0.589144        1.000000        0.00046786        0.02018843        0.03449650        0.02229932
      24         -0.586568        1.000000        0.00027566        0.01171726        0.07513512        0.03393220
      25         -0.584663        1.000000        0.00035762        0.04537729        0.03575564        0.01103531
      26         -0.581224        1.000000        0.00033628        0.13274534        0.11135377        0.01273822
      27         -0.580373        1.000000        0.00014841        0.21865563        0.17033041        0.00799103
      28         -0.579392        1.000000        0.00013226        0.01851726        0.20143394        0.08974553
      29         -0.578698        1.000000        0.00086014        0.13042444        0.03007823        0.02193230
      30         -0.577885        1.000000        0.00006775        0.02503245        0.07853475        0.02717137
      31         -0.577213        1.000000        0.00186790        0.36722202        0.02302476        0.02876781
      32         -0.575665        1.000000        0.00008502        0.33009441        0.13625314        0.00375609
      33         -0.575183        1.000000        0.00004791        0.10460256        0.04791780        0.00372706
      34         -0.574726        1.000000        0.00004555        0.02232748        0.01563615        0.00092102
      35         -0.573809        1.000000        0.00011371        0.02644626        0.04060863        0.01709128
      36         -0.572207        1.000000        0.00004212        0.02911485        0.00845505        0.00157477
      37         -0.572109        1.000000        0.00021346        0.01620721        0.08447435        0.06813003
      38         -0.571442        1.000000        0.00047581        0.06887072        0.02051296        0.00961777
      39         -0.570262        1.000000        0.00013358        0.07480658        0.05378265        0.01672531
      40         -0.569756        1.000000        0.00002709        0.01857793        0.00877112        0.00512862
      41         -0.568343        1.000000        0.00058643        0.25453930        0.01491469        0.01228421
      42         -0.568205        1.000000        0.00057180        0.32697574        0.00989459        0.00729619
      43         -0.567518        1.000000        0.00020345        0.05526065        0.01147172        0.00283047
      44         -0.566568        1.000000        0.00092173        0.30239243        0.02061891        0.01054517
      45         -0.565880        1.000000        0.00050543        0.24377471        0.02837336        0.00941118
      46         -0.564644        1.000000        0.00002299        0.01115066        0.02240102        0.01189757
      47         -0.563750        1.000000        0.00012410        0.00241075        0.01644897        0.00073354
      48         -0.563445        1.000000        0.00029031        0.03105475        0.03854228        0.01934375
      49         -0.561948        1.000000        0.00187566        0.00818326        0.23455285        0.02744662
      50         -0.561246        1.000000        0.00000112        0.00033968        0.00016601        0.00012314
      51         -0.560517        1.000000        0.00065289        0.05179265        0.12524914        0.04193036
      52         -0.560268        1.000000        0.00006528        0.00626215        0.01991537        0.00911669
      53         -0.559795        1.000000        0.00018631        0.02026069        0.03131289        0.01050167
      54         -0.558940        1.000000        0.00001788        0.00095036        0.01090040        0.00025477
      55         -0.558649        1.000000        0.00029259        0.00625162        0.13563766        0.00872454
      56         -0.558009        1.000000        0.00028407        0.05144734        0.04963931        0.01228614
      57         -0.557487        1.000000        0.00017944        0.02955376        0.01933649        0.00167179
      58         -0.556684        1.000000        0.00002390        0.00180027        0.00397904        0.00139253
      59         -0.555094        1.000000        0.00011503        0.08942905        0.05698694        0.01066859
      60         -0.554671        1.000000        0.00003387        0.01415199        0.10673239        0.00349178
      61         -0.553481        1.000000        0.00018093        0.14687269        0.26760688        0.07742690
      62         -0.553042        1.000000        0.00010300        0.27199272        0.11805416        0.03971703
      63         -0.548293        1.000000        0.00077511        0.00108435        0.27178445        0.15980028
      64         -0.540814        1.000000        0.00015283        0.38668604        0.00064769        0.00039093
      65         -0.484824        1.000000        0.00825769        0.03484761        0.05656549        0.34077963
      66         -0.478022        1.000000        0.00818145        0.00368039        0.00320840        0.42755503
      67         -0.477119        1.000000        0.00708345        0.00019089        0.20217837        0.22810002
      68         -0.474564        1.000000        0.00697212        0.01429847        0.03949127        0.37713903
      69         -0.470827        1.000000        0.00895191        0.03351700        0.04777870        0.35264215
      70         -0.464864        1.000000        0.00837175        0.00032129        0.09496664        0.33068910
      71         -0.461468        1.000000        0.00002066        0.00056082        0.00218641        0.00206852
      72         -0.459661        1.000000        0.00096906        0.00008190        0.01503207        0.03120642
      73         -0.459307        1.000000        0.00753530        0.00034461        0.14379805        0.24281319
      74         -0.455199        1.000000        0.00002075        0.00036667        0.00043018        0.00149204
      75         -0.452066        1.000000        0.00002302        0.00044621        0.00099013        0.00288451
      76         -0.451057        1.000000        0.00003189        0.00004712        0.00017985        0.00099404
      77         -0.446785        1.000000        0.00001516        0.00015266        0.00102708        0.00229527
      78         -0.444950        1.000000        0.00000771        0.00006046        0.00076943        0.00296693
      79         -0.441911        1.000000        0.00001410        0.00002743        0.00050881        0.00165058
      80         -0.412084        1.000000        0.00011043        0.02340113        0.01249041        0.00008402
      81         -0.410187        1.000000        0.00001098        0.01157925        0.01554052        0.00607517
      82         -0.408661        1.000000        0.00001035        0.03031699        0.00894062        0.00051205
      83         -0.407084        1.000000        0.00000324        0.00366671        0.03014315        0.00137353
      84         -0.406589        1.000000        0.00000029        0.00390105        0.01776752        0.01497173
      85         -0.406346        1.000000        0.00001261        0.00951038        0.02839455        0.00001241
      86         -0.404547        1.000000        0.00004644        0.04051574        0.00056673        0.00051120
      87         -0.404303        1.000000        0.00002625        0.02978367        0.00260084        0.00303795
      88         -0.404130        1.000000        0.00004527        0.03632686        0.00148780        0.00171760
      89         -0.403016        1.000000        0.00003902        0.01112254        0.02736384        0.00062405
      90         -0.402219        1.000000        0.00012294        0.02347965        0.01353838        0.00401635
      91         -0.400982        1.000000        0.00000929        0.00016298        0.03286886        0.00995345
      92         -0.397445        1.000000        0.00000522        0.00092646        0.02487674        0.01773570
      93         -0.395274        1.000000        0.00000050        0.04221477        0.00030541        0.00052543
      94         -0.317867        1.000000        0.00005488        0.00026433        0.00002659        0.00013028
      95         -0.291748        1.000000        0.00001257        0.00014143        0.00004509        0.00003626
      96         -0.280126        1.000000        0.00039044        0.00063364        0.00049039        0.00007078
      97         -0.275838        1.000000        0.00015409        0.00033905        0.00035402        0.00017983
      98         -0.274409        1.000000        0.00008320        0.00020655        0.00023909        0.00013639
      99         -0.272228        1.000000        0.00012056        0.00095485        0.00024334        0.00000909
     100         -0.270148        1.000000        0.00012997        0.00141336        0.00031932        0.00012668
     101         -0.268661        1.000000        0.00005759        0.00078155        0.00015305        0.00006596
     102         -0.266660        1.000000        0.00020722        0.00077028        0.00027280        0.00032259
     103         -0.264839        1.000000        0.00028198        0.00039322        0.00019273        0.00016529
     104         -0.263321        1.000000        0.00006418        0.00030594        0.00020685        0.00014664
     105         -0.260932        1.000000        0.00001096        0.00008132        0.00000814        0.00005915
     106         -0.259743        1.000000        0.00025446        0.00018474        0.00063592        0.00014236
     107         -0.257928        1.000000        0.00096405        0.00226147        0.00005648        0.00143208
     108         -0.255301        1.000000        0.00002952        0.00021775        0.00004907        0.00003640
     109         -0.254708        1.000000        0.00014636        0.00019263        0.00029542        0.00012582
     110         -0.249966        1.000000        0.00023472        0.00019450        0.00033211        0.00039937
     111         -0.246719        1.000000        0.00024235        0.00023828        0.00011178        0.00021653
     112         -0.245283        1.000000        0.00004642        0.00022945        0.00041745        0.00004665
     113         -0.244204        1.000000        0.00005619        0.00013957        0.00019985        0.00014385
     114         -0.242285        1.000000        0.00013528        0.00018163        0.00121555        0.00034495
     115         -0.238821        1.000000        0.00100039        0.00027286        0.00040733        0.00075424
     116         -0.238234        1.000000        0.00009586        0.00027566        0.00046946        0.00008256
     117         -0.237358        1.000000        0.00135915        0.00035398        0.00059601        0.00048227
     118         -0.236294        1.000000        0.00073078        0.00051738        0.00015143        0.00020074
     119         -0.235544        1.000000        0.00402268        0.00099601        0.00025784        0.00270343
     120         -0.234106        1.000000        0.00043416        0.00107377        0.00052932        0.00047217
     121         -0.232350        1.000000        0.00070837        0.00087258        0.00046681        0.00052450
     122         -0.229861        1.000000        0.00053070        0.00028973        0.00037978        0.00041228
     123         -0.227212        1.000000        0.00039615        0.00041029        0.00020928        0.00101264
     124         -0.225873        1.000000        0.00092892        0.00019497        0.00020935        0.00035319
     125         -0.224500        1.000000        0.00017895        0.00027242        0.00118510        0.00099861
     126         -0.223134        1.000000        0.00127053        0.00183658        0.00090188        0.00064908
     127         -0.222832        1.000000        0.00091206        0.00103003        0.00069924        0.00006106
     128         -0.219558        1.000000        0.00139253        0.00111539        0.00160597        0.00169194
     129         -0.218636        1.000000        0.00075514        0.00899050        0.00160169        0.00143682
     130         -0.216325        1.000000        0.00218475        0.00038715        0.00210783        0.00120078
     131         -0.214682        1.000000        0.00101220        0.00089435        0.00032051        0.00046010
     132         -0.212824        1.000000        0.00043600        0.00105688        0.00107555        0.00020935
     133         -0.212428        1.000000        0.00090749        0.00039316        0.00212911        0.00018634
     134         -0.210749        1.000000        0.00171044        0.00330477        0.00165693        0.00026673
     135         -0.210264        1.000000        0.00207428        0.00077240        0.00209951        0.00131715
     136         -0.208586        1.000000        0.00011223        0.00017373        0.00106266        0.00029421
     137         -0.208314        1.000000        0.00044601        0.00056340        0.00242503        0.00059203
     138         -0.206741        1.000000        0.00050266        0.00003934        0.00146527        0.00111639
     139         -0.206004        1.000000        0.00016855        0.00086914        0.00029282        0.00043588
     140         -0.205670        1.000000        0.00066828        0.00045841        0.00064197        0.00057839
     141         -0.203618        1.000000        0.00026157        0.00109237        0.00091450        0.00015935
     142         -0.203001        1.000000        0.00092879        0.00086960        0.00128233        0.00095219
     143         -0.201776        1.000000        0.00031362        0.00046157        0.00059064        0.00018705
     144         -0.200858        1.000000        0.00018723        0.00048498        0.00023215        0.00021243
     145         -0.200056        1.000000        0.00014168        0.00045766        0.00028013        0.00013614
     146         -0.199885        1.000000        0.00044082        0.00027002        0.00012048        0.00043349
     147         -0.199511        1.000000        0.00014865        0.00015483        0.00045280        0.00006908
     148         -0.196726        1.000000        0.00091899        0.00119931        0.00164336        0.00034936
     149         -0.195681        1.000000        0.00041121        0.00235645        0.00061563        0.00029164
     150         -0.195167        1.000000        0.00022050        0.00202565        0.00131889        0.00013753
     151         -0.194451        1.000000        0.00007337        0.00008201        0.00040146        0.00004062
     152         -0.194341        1.000000        0.00083605        0.00377492        0.00301347        0.00043886
     153         -0.193717        1.000000        0.00026569        0.00060768        0.00078309        0.00010862
     154         -0.192852        1.000000        0.00011460        0.00354470        0.00060545        0.00055737
     155         -0.192324        1.000000        0.00033275        0.00044615        0.00037176        0.00057741
     156         -0.192082        1.000000        0.00030344        0.00046862        0.00024464        0.00025834
     157         -0.191616        1.000000        0.00038998        0.00014066        0.00013486        0.00033192
     158         -0.191088        1.000000        0.00008749        0.00191381        0.00039165        0.00003908
     159         -0.190693        1.000000        0.00016934        0.00109581        0.00113712        0.00002661
     160         -0.190648        1.000000        0.00051000        0.00088098        0.00045160        0.00098758
     161         -0.189853        1.000000        0.00022580        0.00032496        0.00031304        0.00044420
     162         -0.189631        1.000000        0.00043533        0.00095458        0.00101281        0.00015965
     163         -0.189176        1.000000        0.00009156        0.00022607        0.00021405        0.00018053
     164         -0.189019        1.000000        0.00024987        0.00173917        0.00050986        0.00015188
     165         -0.188886        1.000000        0.00006471        0.00045930        0.00033794        0.00004068
     166         -0.188677        1.000000        0.00012315        0.00040117        0.00035619        0.00015090
     167         -0.188245        1.000000        0.00002982        0.00015774        0.00005507        0.00009171
     168         -0.187981        1.000000        0.00010130        0.00007071        0.00017183        0.00003554
     169         -0.187591        1.000000        0.00018685        0.00012244        0.00015786        0.00012741
     170         -0.187337        1.000000        0.00025562        0.00050754        0.00034490        0.00017746
     171         -0.187074        1.000000        0.00038033        0.00046015        0.00035316        0.00018206
     172         -0.186563        1.000000        0.00029050        0.00020124        0.00014243        0.00035669
     173         -0.185909        1.000000        0.00042658        0.00290339        0.00066286        0.00030246
     174         -0.185161        1.000000        0.00039932        0.00069600        0.00039087        0.00082155
     175         -0.184684        1.000000        0.00017442        0.00118283        0.00013616        0.00028149
     176         -0.183925        1.000000        0.00032160        0.00033231        0.00039870        0.00021922
     177         -0.183509        1.000000        0.00007571        0.00004010        0.00012309        0.00007225
     178         -0.183323        1.000000        0.00037547        0.00038936        0.00029216        0.00018780
     179         -0.182772        1.000000        0.00008504        0.00116295        0.00067063        0.00006245
     180         -0.182573        1.000000        0.00006959        0.00060589        0.00023172        0.00006966
     181         -0.181987        1.000000        0.00024132        0.00012490        0.00013482        0.00015895
     182         -0.181920        1.000000        0.00000961        0.00002587        0.00004810        0.00007847
     183         -0.181209        1.000000        0.00009337        0.00007489        0.00002975        0.00004645
     184         -0.180942        1.000000        0.00004469        0.00008977        0.00012696        0.00002823
     185         -0.180616        1.000000        0.00006816        0.00005903        0.00009408        0.00014914
     186         -0.180242        1.000000        0.00008410        0.00014437        0.00005579        0.00010976
     187         -0.180115        1.000000        0.00002631        0.00016483        0.00000835        0.00007168
     188         -0.179799        1.000000        0.00003567        0.00005498        0.00005770        0.00005541
     189         -0.178799        1.000000        0.00011085        0.00007600        0.00004809        0.00015265
     190         -0.178260        1.000000        0.00009110        0.00039978        0.00003004        0.00015426
     191         -0.177942        1.000000        0.00001078        0.00001205        0.00002768        0.00003319
     192         -0.177590        1.000000        0.00004627        0.00012348        0.00009681        0.00008365
     193         -0.176446        1.000000        0.00000822        0.00001492        0.00002230        0.00011080
     194         -0.176036        1.000000        0.00002574        0.00003906        0.00010560        0.00005352
     195         -0.176015        0.000000        0.00001736        0.00001812        0.00004703        0.00001355
     196         -0.175172        0.000000        0.00005719        0.00017791        0.00006413        0.00007579
     197         -0.172777        0.000000        0.00001750        0.00005334        0.00006933        0.00006209
     198         -0.171448        0.000000        0.00001478        0.00001753        0.00000732        0.00001135
     199         -0.170358        0.000000        0.00000654        0.00003481        0.00005431        0.00003804
     200         -0.169688        0.000000        0.00001713        0.00003223        0.00002294        0.00001045
     201         -0.167533        0.000000        0.00002771        0.00008178        0.00000651        0.00003351
     202         -0.062037        0.000000        0.00003057        0.00004657        0.00001456        0.00001153
     203         -0.053511        0.000000        0.00003739        0.00002783        0.00003648        0.00002990
     204         -0.052715        0.000000        0.00039430        0.00011466        0.00013641        0.00016689
     205         -0.047197        0.000000        0.00014185        0.00006977        0.00009234        0.00002218
     206         -0.046980        0.000000        0.00011752        0.00015067        0.00036846        0.00007433
     207         -0.045333        0.000000        0.00011805        0.00005822        0.00012960        0.00001483
     208         -0.042507        0.000000        0.00010445        0.00004742        0.00013841        0.00002823
     209         -0.039048        0.000000        0.00000986        0.00002354        0.00010079        0.00006709
     210         -0.038702        0.000000        0.00003551        0.00003989        0.00007260        0.00000628
     211         -0.036823        0.000000        0.00001053        0.00003809        0.00006687        0.00002803
     212         -0.035791        0.000000        0.00002540        0.00006904        0.00002395        0.00002153
     213         -0.031875        0.000000        0.00002589        0.00007003        0.00006859        0.00003073
     214         -0.030257        0.000000        0.00004585        0.00009265        0.00005926        0.00003889
     215         -0.028209        0.000000        0.00002987        0.00001317        0.00002796        0.00001452
     216         -0.023056        0.000000        0.00016749        0.00007702        0.00015000        0.00005711
     217         -0.021826        0.000000        0.00000679        0.00000829        0.00000692        0.00003085
     218         -0.016964        0.000000        0.00004777        0.00013338        0.00003796        0.00002206
     219         -0.015307        0.000000        0.00002090        0.00000998        0.00004069        0.00000341
     220         -0.014867        0.000000        0.00006780        0.00002468        0.00006884        0.00002716
     221         -0.012507        0.000000        0.00001680        0.00003991        0.00004359        0.00006130
     222         -0.010607        0.000000        0.00006717        0.00002240        0.00011203        0.00001942
     223         -0.005030        0.000000        0.00007233        0.00014854        0.00019490        0.00001394
     224         -0.004257        0.000000        0.00009543        0.00043384        0.00002226        0.00003670
     225         -0.003557        0.000000        0.00019549        0.00032748        0.00012976        0.00003506
     226          0.087876        0.000000        0.11994971        0.04555332        0.02514263        0.16272196
     227          0.094006        0.000000        0.11583499        0.00013319        0.00445705        0.23908427
     228          0.094806        0.000000        0.09821939        0.02077816        0.02869442        0.21076252
     229          0.103055        0.000000        0.11783147        0.00437501        0.11832754        0.11803830
     230          0.106462        0.000000        0.12627826        0.00168144        0.00334432        0.22685026
     231          0.108990        0.000000        0.10228009        0.00019700        0.06177173        0.19925189
     232          0.112688        0.000000        0.10516180        0.00017956        0.09641559        0.16398835
     233          0.167382        0.000000        0.04313127        0.14775062        0.03263326        0.11004293
     234          0.170644        0.000000        0.03674683        0.06173897        0.22926764        0.00810293
     235          0.184090        0.000000        0.04620283        0.22798356        0.01017829        0.05200584
     236          0.208637        0.000000        0.04018958        0.22660480        0.03557487        0.03563351
     237          0.276050        0.000000        0.00467530        0.00025278        0.26137673        0.06400115
     238          0.283042        0.000000        0.00002030        0.21740486        0.11288040        0.00047773
     239          0.288376        0.000000        0.00184607        0.06600845        0.23867729        0.01088373
     240          0.289474        0.000000        0.00051390        0.07996483        0.17176407        0.06671025
     241          0.290470        0.000000        0.00057653        0.01486730        0.17161958        0.13549082
     242          0.295983        0.000000        0.00051673        0.18938053        0.11232570        0.01815133
     243          0.298309        0.000000        0.00108424        0.07240212        0.18608346        0.05855272
     244          0.300047        0.000000        0.00010932        0.01820877        0.19093644        0.11096492
     245          0.304654        0.000000        0.15142606        0.16146080        0.01302477        0.01211948
     246          0.304854        0.000000        0.03133131        0.26202126        0.02075168        0.00616861
     247          0.307557        0.000000        0.00010765        0.29175619        0.01526307        0.00455963
     248          0.319162        0.000000        0.24977067        0.00867629        0.01160788        0.07500638
     249          0.325138        0.000000        0.18460358        0.06985260        0.03724647        0.04866468
     250          0.326619        0.000000        0.18046575        0.06910127        0.02680994        0.06036632
     251          0.328272        0.000000        0.18018612        0.01054177        0.03224257        0.11630142
     252          0.345799        0.000000        0.24158000        0.00398733        0.02921184        0.07081759
     253          0.347526        0.000000        0.24116075        0.00009568        0.03940579        0.06518912
     254          0.454082        0.000000        0.00009036        0.00254338        0.01443134        0.00381388
     255          0.455676        0.000000        0.00067164        0.01326531        0.00771277        0.00033771
     256          0.457280        0.000000        0.00003640        0.00700596        0.01736539        0.00047937
     257          0.458362        0.000000        0.00041935        0.01404044        0.00294154        0.00001806
     258          0.458467        0.000000        0.00001138        0.01953481        0.00096323        0.00105084
     259          0.458586        0.000000        0.00075565        0.01799235        0.00093020        0.00005886