# Projected DOS for atomic kind N at iteration step i = 0, E(Fermi) =    -0.177063 a.u.
#     MO Eigenvalue [a.u.]      Occupation                 s                py                pz                px
       1         -0.963952        1.000000        0.62213964        0.00108474        0.00009094        0.00000577
       2         -0.953652        1.000000        0.61838417        0.00061415        0.00002635        0.00005149
       3         -0.952791        1.000000        0.61409677        0.00000129        0.00007270        0.00022716
       4         -0.951426        1.000000        0.61878301        0.00035146        0.00003968        0.00004326
       5         -0.949218        1.000000        0.61877901        0.00011992        0.00068995        0.00005834
       6         -0.937979        1.000000        0.61092748        0.00000179        0.00010431        0.00000305
       7         -0.931949        1.000000        0.61122612        0.00001098        0.00010374        0.00000791
       8         -0.699165        1.000000        0.01569615        0.02825760        0.01874835        0.16561187
       9         -0.693746        1.000000        0.01755538        0.00094060        0.00131128        0.19855031
      10         -0.692376        1.000000        0.01859969        0.00172877        0.10267359        0.10366176
      11         -0.690391        1.000000        0.01547022        0.01342919        0.01713475        0.17256909
      12         -0.689686        1.000000        0.01899126        0.00390861        0.00732215        0.19665651
      13         -0.685468        1.000000        0.01792676        0.00001145        0.04785150        0.14292941
      14         -0.679913        1.000000        0.01845639        0.00001002        0.08027595        0.11287881
      15         -0.639509        1.000000        0.00025075        0.00564007        0.00007299        0.00030299
      16         -0.621427        1.000000        0.00002754        0.00056439        0.00071561        0.00007885
      17         -0.600659        1.000000        0.00002340        0.00399974        0.00430262        0.00152262
      18         -0.598218        1.000000        0.00053254        0.01573217        0.01454549        0.00412693
      19         -0.592662        1.000000        0.00031352        0.00404988        0.32698661        0.05150577
      20         -0.592031        1.000000        0.00030322        0.04350722        0.06424533        0.01595683
      21         -0.590896        1.000000        0.00039656        0.01433588        0.12350436        0.02131298
      22         -0.590500        1.000000        0.00021385        0.02216711        0.07004075        0.01428759
      23         -0.589279        1.000000        0.00049142        0.01719639        0.03365687        0.02054076
      24         -0.586684        1.000000        0.00030277        0.01421098        0.06810558        0.03014023
      25         -0.584889        1.000000        0.00035296        0.04908794        0.03550665        0.01348558
      26         -0.581555        1.000000        0.00031430        0.12270097        0.11767119        0.01468598
      27         -0.580470        1.000000        0.00015184        0.22501140        0.16609392        0.00713295
      28         -0.579475        1.000000        0.00023114        0.02908998        0.20404381        0.09947859
      29         -0.578976        1.000000        0.00058892        0.08422799        0.02717565        0.01357099
      30         -0.578110        1.000000        0.00035044        0.08202759        0.01640454        0.00653618
      31         -0.577701        1.000000        0.00038177        0.06109674        0.05768496        0.02092326
      32         -0.577273        1.000000        0.00129405        0.27526340        0.02617460        0.02277296
      33         -0.575692        1.000000        0.00007985        0.26849056        0.11932341        0.00452593
      34         -0.575409        1.000000        0.00006888        0.16289123        0.07195392        0.00526731
      35         -0.574116        1.000000        0.00019055        0.04306121        0.04831483        0.01811059
      36         -0.572536        1.000000        0.00013880        0.02294796        0.02688444        0.01210782
      37         -0.572082        1.000000        0.00040038        0.05851079        0.04036274        0.02969920
      38         -0.571982        1.000000        0.00017913        0.03482558        0.03700883        0.03461045
      39         -0.570427        1.000000        0.00004742        0.04117651        0.03540703        0.00883933
      40         -0.570189        1.000000        0.00007602        0.06571696        0.02527960        0.00996065
      41         -0.569252        1.000000        0.00018141        0.11348211        0.02178480        0.01864805
      42         -0.568442        1.000000        0.00008020        0.01844691        0.01209906        0.00270738
      43         -0.568349        1.000000        0.00096254        0.45036933        0.00306571        0.00478138
      44         -0.566849        1.000000        0.00081127        0.24510569        0.03482483        0.01746107
      45         -0.566093        1.000000        0.00082492        0.35224241        0.02158184        0.00881615
      46         -0.564756        1.000000        0.00000121        0.00014264        0.00017217        0.00020619
      47         -0.564400        1.000000        0.00000331        0.00064965        0.00187461        0.00090489
      48         -0.564086        1.000000        0.00020070        0.00384933        0.02180693        0.00113998
      49         -0.563934        1.000000        0.00005193        0.02024340        0.04587539        0.02257181
      50         -0.563027        1.000000        0.00020317        0.03519979        0.01552995        0.00555298
      51         -0.562501        1.000000        0.00156664        0.00616848        0.17103084        0.02081455
      52         -0.561421        1.000000        0.00010531        0.00629363        0.01415364        0.00867905
      53         -0.560335        1.000000        0.00086579        0.06926346        0.16885865        0.05299266
      54         -0.559738        1.000000        0.00028820        0.01930136        0.08523934        0.00484721
      55         -0.559064        1.000000        0.00009592        0.02815299        0.01722278        0.00088601
      56         -0.558898        1.000000        0.00057996        0.03348871        0.14551283        0.01949658
      57         -0.558043        1.000000        0.00000407        0.00255931        0.00509896        0.00007011
      58         -0.556931        1.000000        0.00001037        0.00237341        0.00150317        0.00057737
      59         -0.555390        1.000000        0.00011332        0.07082290        0.08600955        0.00986161
      60         -0.555165        1.000000        0.00009318        0.03703419        0.09740206        0.00699276
      61         -0.553526        1.000000        0.00023336        0.07150011        0.33689148        0.09895594
      62         -0.553100        1.000000        0.00005274        0.35892443        0.05444714        0.01946749
      63         -0.548389        1.000000        0.00074012        0.00497987        0.27343094        0.16176614
      64         -0.540507        1.000000        0.00020405        0.37563657        0.00091281        0.00007191
      65         -0.484850        1.000000        0.00825928        0.03484959        0.05655436        0.34078532
      66         -0.478039        1.000000        0.00818160        0.00368189        0.00321022        0.42755851
      67         -0.477142        1.000000        0.00708594        0.00019109        0.20217878        0.22807694
      68         -0.474568        1.000000        0.00697854        0.01429985        0.03949867        0.37707374
      69         -0.470849        1.000000        0.00895186        0.03350976        0.04776207        0.35264806
      70         -0.464883        1.000000        0.00839625        0.00032303        0.09518502        0.33146720
      71         -0.461439        1.000000        0.00002316        0.00055931        0.00222164        0.00217783
      72         -0.459508        1.000000        0.00259892        0.00012989        0.04522376        0.08336378
      73         -0.459320        1.000000        0.00584187        0.00030133        0.11267836        0.18798599
      74         -0.455697        1.000000        0.00003160        0.00035784        0.00061316        0.00198256
      75         -0.453477        1.000000        0.00005120        0.00007133        0.00035718        0.00171036
      76         -0.452562        1.000000        0.00003023        0.00043671        0.00117289        0.00334510
      77         -0.447634        1.000000        0.00001763        0.00013912        0.00095834        0.00190308
      78         -0.445228        1.000000        0.00000824        0.00008287        0.00100377        0.00381357
      79         -0.442188        1.000000        0.00001059        0.00003138        0.00044416        0.00140442
      80         -0.412127        1.000000        0.00011033        0.02336775        0.01252716        0.00008269
      81         -0.410211        1.000000        0.00001107        0.01161522        0.01551079        0.00607371
      82         -0.408695        1.000000        0.00001033        0.03023451        0.00902410        0.00051227
      83         -0.407130        1.000000        0.00000316        0.00390676        0.02994644        0.00132014
      84         -0.406614        1.000000        0.00000030        0.00394532        0.01773128        0.01496723
      85         -0.406368        1.000000        0.00001264        0.00960055        0.02830790        0.00001211
      86         -0.404581        1.000000        0.00004866        0.04039042        0.00061403        0.00055013
      87         -0.404349        1.000000        0.00002399        0.02940261        0.00278697        0.00310727
      88         -0.404169        1.000000        0.00004540        0.03658089        0.00148374        0.00166290
      89         -0.403016        1.000000        0.00003926        0.01106462        0.02741413        0.00062890
      90         -0.402218        1.000000        0.00012304        0.02351550        0.01346139        0.00402633
      91         -0.401002        1.000000        0.00000931        0.00015942        0.03287455        0.00995941
      92         -0.397469        1.000000        0.00000526        0.00087190        0.02490166        0.01775571
      93         -0.395316        1.000000        0.00000050        0.04226864        0.00028356        0.00049587
      94         -0.318014        1.000000        0.00005479        0.00026378        0.00002650        0.00013009
      95         -0.291899        1.000000        0.00001500        0.00014604        0.00004743        0.00004239
      96         -0.280335        1.000000        0.00037762        0.00064035        0.00050180        0.00007679
      97         -0.276957        1.000000        0.00020003        0.00031619        0.00030888        0.00023032
      98         -0.275710        1.000000        0.00005089        0.00018970        0.00020442        0.00009513
      99         -0.273171        1.000000        0.00009593        0.00136496        0.00024696        0.00002272
     100         -0.270765        1.000000        0.00010811        0.00110835        0.00037113        0.00008585
     101         -0.269732        1.000000        0.00006638        0.00054731        0.00012024        0.00003934
     102         -0.267184        1.000000        0.00021877        0.00097680        0.00021216        0.00037159
     103         -0.265334        1.000000        0.00020097        0.00031674        0.00028416        0.00010067
     104         -0.262774        1.000000        0.00010205        0.00014204        0.00018548        0.00013366
     105         -0.261211        1.000000        0.00001011        0.00005324        0.00001499        0.00005119
     106         -0.260330        1.000000        0.00016928        0.00012549        0.00061653        0.00008327
     107         -0.258140        1.000000        0.00113253        0.00245417        0.00008057        0.00160207
     108         -0.256462        1.000000        0.00004147        0.00010788        0.00022310        0.00005413
     109         -0.255786        1.000000        0.00005247        0.00020961        0.00009865        0.00002805
     110         -0.250599        1.000000        0.00023774        0.00018739        0.00030053        0.00039185
     111         -0.248720        1.000000        0.00028758        0.00031780        0.00016601        0.00023254
     112         -0.247005        1.000000        0.00004081        0.00021132        0.00039894        0.00004889
     113         -0.245618        1.000000        0.00000842        0.00011662        0.00024271        0.00011263
     114         -0.243260        1.000000        0.00011584        0.00014888        0.00115350        0.00031380
     115         -0.240633        1.000000        0.00047574        0.00013136        0.00024285        0.00043505
     116         -0.238647        1.000000        0.00052135        0.00041997        0.00061765        0.00032129
     117         -0.237682        1.000000        0.00038166        0.00029670        0.00046589        0.00017621
     118         -0.236452        1.000000        0.00027525        0.00088558        0.00021744        0.00015570
     119         -0.236225        1.000000        0.00522312        0.00115373        0.00043566        0.00269925
     120         -0.234906        1.000000        0.00068930        0.00064896        0.00036667        0.00081339
     121         -0.232850        1.000000        0.00079232        0.00071955        0.00048419        0.00055187
     122         -0.230106        1.000000        0.00054527        0.00026295        0.00033717        0.00047659
     123         -0.227876        1.000000        0.00023659        0.00026663        0.00014297        0.00087039
     124         -0.226350        1.000000        0.00089179        0.00014222        0.00027341        0.00047930
     125         -0.224700        1.000000        0.00012071        0.00021457        0.00097097        0.00073191
     126         -0.223492        1.000000        0.00181693        0.00232998        0.00114962        0.00073902
     127         -0.222918        1.000000        0.00058089        0.00072917        0.00056929        0.00006475
     128         -0.219868        1.000000        0.00145516        0.00098287        0.00162329        0.00180637
     129         -0.218764        1.000000        0.00071697        0.00842853        0.00200025        0.00150331
     130         -0.216983        1.000000        0.00218290        0.00098367        0.00193307        0.00121573
     131         -0.214888        1.000000        0.00101432        0.00097970        0.00027061        0.00049523
     132         -0.213318        1.000000        0.00046879        0.00116433        0.00134338        0.00027374
     133         -0.212266        1.000000        0.00100916        0.00046843        0.00228549        0.00020393
     134         -0.210954        1.000000        0.00183153        0.00220385        0.00057592        0.00053952
     135         -0.210655        1.000000        0.00162672        0.00172999        0.00277853        0.00089819
     136         -0.209030        1.000000        0.00013870        0.00019680        0.00085665        0.00024957
     137         -0.208479        1.000000        0.00060224        0.00078156        0.00289965        0.00054218
     138         -0.207249        1.000000        0.00046168        0.00022702        0.00116835        0.00132043
     139         -0.206484        1.000000        0.00024592        0.00088596        0.00034600        0.00048078
     140         -0.205641        1.000000        0.00047620        0.00027593        0.00056314        0.00035120
     141         -0.203961        1.000000        0.00032597        0.00072562        0.00105025        0.00016457
     142         -0.203259        1.000000        0.00096553        0.00086810        0.00115167        0.00103134
     143         -0.202098        1.000000        0.00033481        0.00041905        0.00073243        0.00022372
     144         -0.201462        1.000000        0.00021019        0.00057877        0.00021786        0.00021950
     145         -0.200314        1.000000        0.00016473        0.00063649        0.00056390        0.00014894
     146         -0.199599        1.000000        0.00036870        0.00013980        0.00014111        0.00037064
     147         -0.198947        1.000000        0.00037303        0.00046938        0.00039216        0.00015653
     148         -0.197179        1.000000        0.00065828        0.00124153        0.00141655        0.00022391
     149         -0.195816        1.000000        0.00026201        0.00106161        0.00074085        0.00014400
     150         -0.195595        1.000000        0.00049235        0.00251840        0.00190204        0.00020731
     151         -0.194755        1.000000        0.00016478        0.00009246        0.00033684        0.00011037
     152         -0.194592        1.000000        0.00084267        0.00356455        0.00211822        0.00049332
     153         -0.194116        1.000000        0.00018315        0.00065660        0.00045402        0.00023760
     154         -0.194049        1.000000        0.00026222        0.00150425        0.00125198        0.00006066
     155         -0.192854        1.000000        0.00022988        0.00038856        0.00043836        0.00013235
     156         -0.192734        1.000000        0.00025747        0.00039347        0.00039033        0.00054702
     157         -0.192655        1.000000        0.00027044        0.00129683        0.00038685        0.00069223
     158         -0.192097        1.000000        0.00003324        0.00192112        0.00053664        0.00011211
     159         -0.191663        1.000000        0.00016613        0.00194831        0.00016211        0.00002599
     160         -0.191201        1.000000        0.00031446        0.00030156        0.00030002        0.00079311
     161         -0.190689        1.000000        0.00043590        0.00071907        0.00036638        0.00065836
     162         -0.190393        1.000000        0.00022683        0.00071126        0.00013342        0.00014318
     163         -0.190173        1.000000        0.00011667        0.00065244        0.00017283        0.00022697
     164         -0.189945        1.000000        0.00014974        0.00055482        0.00023613        0.00009647
     165         -0.189721        1.000000        0.00017915        0.00040579        0.00045625        0.00005532
     166         -0.189591        1.000000        0.00026662        0.00148619        0.00060824        0.00017412
     167         -0.189347        1.000000        0.00033981        0.00070875        0.00138559        0.00023096
     168         -0.188895        1.000000        0.00002090        0.00016534        0.00007639        0.00013688
     169         -0.188480        1.000000        0.00012006        0.00043384        0.00010077        0.00008474
     170         -0.187449        1.000000        0.00025294        0.00084632        0.00023019        0.00022023
     171         -0.187166        1.000000        0.00030891        0.00017646        0.00008348        0.00030639
     172         -0.186245        1.000000        0.00024602        0.00068117        0.00017184        0.00040490
     173         -0.185901        1.000000        0.00031307        0.00057319        0.00061519        0.00016588
     174         -0.185268        1.000000        0.00039874        0.00278621        0.00047698        0.00016970
     175         -0.185167        1.000000        0.00024812        0.00066822        0.00033766        0.00049904
     176         -0.184669        1.000000        0.00052639        0.00029199        0.00039446        0.00044532
     177         -0.184537        1.000000        0.00019058        0.00008309        0.00012861        0.00016958
     178         -0.184045        1.000000        0.00018467        0.00049589        0.00040662        0.00017044
     179         -0.183577        1.000000        0.00007939        0.00168120        0.00069777        0.00007470
     180         -0.183253        1.000000        0.00006176        0.00017484        0.00006797        0.00004150
     181         -0.182830        1.000000        0.00004909        0.00001903        0.00009607        0.00018889
     182         -0.182704        1.000000        0.00023158        0.00028609        0.00011910        0.00011496
     183         -0.181208        1.000000        0.00013356        0.00031198        0.00003108        0.00012965
     184         -0.180827        1.000000        0.00002613        0.00003497        0.00017540        0.00002006
     185         -0.180628        1.000000        0.00004819        0.00009219        0.00000148        0.00004175
     186         -0.180124        1.000000        0.00002485        0.00008549        0.00003069        0.00006947
     187         -0.179712        1.000000        0.00012225        0.00003336        0.00008807        0.00021899
     188         -0.179556        1.000000        0.00001481        0.00004987        0.00002467        0.00007903
     189         -0.179216        1.000000        0.00004752        0.00002974        0.00003814        0.00003979
     190         -0.179074        1.000000        0.00005009        0.00002601        0.00003582        0.00007788
     191         -0.178870        1.000000        0.00002470        0.00007097        0.00004646        0.00006598
     192         -0.178197        1.000000        0.00002302        0.00007321        0.00007751        0.00010407
     193         -0.177940        1.000000        0.00004337        0.00012949        0.00004546        0.00003429
     194         -0.177609        1.000000        0.00001937        0.00029890        0.00008517        0.00004287
     195         -0.177063        1.000000        0.00009434        0.00025744        0.00008337        0.00010060
     196         -0.176969        0.000000        0.00005494        0.00008336        0.00011441        0.00005868
     197         -0.175375        0.000000        0.00004376        0.00004475        0.00002306        0.00002151
     198         -0.173044        0.000000        0.00003505        0.00009136        0.00006430        0.00005025
     199         -0.171759        0.000000        0.00002547        0.00003002        0.00003997        0.00001946
     200         -0.170731        0.000000        0.00001253        0.00004154        0.00006422        0.00005967
     201         -0.167833        0.000000        0.00002407        0.00008060        0.00000630        0.00003703
     202         -0.062066        0.000000        0.00003082        0.00004850        0.00001462        0.00001190
     203         -0.054521        0.000000        0.00003540        0.00002174        0.00003658        0.00002669
     204         -0.053360        0.000000        0.00038967        0.00012998        0.00012595        0.00015766
     205         -0.047584        0.000000        0.00016194        0.00008238        0.00026520        0.00005230
     206         -0.047422        0.000000        0.00012915        0.00013803        0.00023336        0.00005729
     207         -0.045527        0.000000        0.00010321        0.00005266        0.00010963        0.00001368
     208         -0.042808        0.000000        0.00009604        0.00004892        0.00013825        0.00003028
     209         -0.039553        0.000000        0.00000569        0.00001885        0.00011480        0.00006821
     210         -0.038932        0.000000        0.00003738        0.00003745        0.00005551        0.00000637
     211         -0.037283        0.000000        0.00001075        0.00003469        0.00006793        0.00002735
     212         -0.035900        0.000000        0.00002489        0.00007385        0.00002050        0.00002226
     213         -0.032514        0.000000        0.00003070        0.00007634        0.00005879        0.00002305
     214         -0.031344        0.000000        0.00003469        0.00008413        0.00005978        0.00003174
     215         -0.029662        0.000000        0.00003304        0.00001917        0.00003271        0.00002722
     216         -0.023261        0.000000        0.00015493        0.00008006        0.00012097        0.00004679
     217         -0.023067        0.000000        0.00001653        0.00000917        0.00003374        0.00004003
     218         -0.017316        0.000000        0.00005789        0.00012245        0.00003277        0.00002302
     219         -0.016519        0.000000        0.00001394        0.00002390        0.00004149        0.00000518
     220         -0.015096        0.000000        0.00007067        0.00002282        0.00008026        0.00002882
     221         -0.012364        0.000000        0.00001751        0.00003650        0.00004573        0.00005752
     222         -0.010501        0.000000        0.00006723        0.00002299        0.00011041        0.00001935
     223         -0.005951        0.000000        0.00006601        0.00020218        0.00017882        0.00002008
     224         -0.004803        0.000000        0.00008992        0.00041085        0.00006547        0.00001863
     225         -0.003814        0.000000        0.00020435        0.00029363        0.00010220        0.00004634
     226          0.087853        0.000000        0.11997112        0.04555993        0.02513977        0.16271451
     227          0.093990        0.000000        0.11584328        0.00013412        0.00445697        0.23908980
     228          0.094785        0.000000        0.09822452        0.02077999        0.02869507        0.21077057
     229          0.103032        0.000000        0.11785595        0.00437930        0.11832553        0.11802706
     230          0.106456        0.000000        0.12630952        0.00167738        0.00334260        0.22682963
     231          0.108973        0.000000        0.10228805        0.00019702        0.06176349        0.19925861
     232          0.112669        0.000000        0.10516877        0.00017965        0.09641257        0.16399377
     233          0.167344        0.000000        0.04313339        0.14775224        0.03264024        0.11006716
     234          0.170605        0.000000        0.03673876        0.06174949        0.22929299        0.00811318
     235          0.184046        0.000000        0.04619540        0.22799878        0.01018597        0.05202218
     236          0.208632        0.000000        0.04018497        0.22661316        0.03557189        0.03562723
     237          0.276027        0.000000        0.00469432        0.00025678        0.26134963        0.06402486
     238          0.283006        0.000000        0.00001922        0.21761571        0.11267127        0.00048982
     239          0.288344        0.000000        0.00184084        0.06600003        0.23872097        0.01086186
     240          0.289447        0.000000        0.00052056        0.07973757        0.17197217        0.06674615
     241          0.290444        0.000000        0.00058159        0.01484496        0.17163403        0.13550764
     242          0.295964        0.000000        0.00052038        0.19009137        0.11186505        0.01792956
     243          0.298296        0.000000        0.00109294        0.07169441        0.18657049        0.05877627
     244          0.300018        0.000000        0.00011254        0.01787108        0.19126033        0.11101231
     245          0.304635        0.000000        0.14839474        0.16401749        0.01322941        0.01195046
     246          0.304825        0.000000        0.03435453        0.25942649        0.02061107        0.00632790
     247          0.307504        0.000000        0.00010123        0.29211965        0.01497934        0.00448209
     248          0.319131        0.000000        0.24977558        0.00870827        0.01161562        0.07497353
     249          0.325104        0.000000        0.18460705        0.06981217        0.03721397        0.04874251
     250          0.326584        0.000000        0.18045106        0.06919500        0.02678446        0.06032846
     251          0.328243        0.000000        0.18018113        0.01057868        0.03220497        0.11633629
     252          0.345786        0.000000        0.24157921        0.00398059        0.02924840        0.07079311
     253          0.347481        0.000000        0.24117067        0.00008868        0.03939040        0.06522070
     254          0.454056        0.000000        0.00009016        0.00253425        0.01444630        0.00381452
     255          0.455661        0.000000        0.00066925        0.01319152        0.00779712        0.00033468
     256          0.457241        0.000000        0.00003754        0.00707853        0.01728396        0.00048240
     257          0.458328        0.000000        0.00042143        0.01408649        0.00291260        0.00001870
     258          0.458394        0.000000        0.00001097        0.01953110        0.00098005        0.00104471
     259          0.458548        0.000000        0.00075557        0.01796110        0.00095160        0.00005605