# Projected DOS for atomic kind Pb at iteration step i = 0, E(Fermi) =    -0.177063 a.u.
#     MO Eigenvalue [a.u.]      Occupation                 s                py                pz                px
       1         -0.963952        1.000000        0.00000004        0.00000025        0.00000025        0.00000046
       2         -0.953652        1.000000        0.00000005        0.00000024        0.00000049        0.00000039
       3         -0.952791        1.000000        0.00000029        0.00000402        0.00000643        0.00000341
       4         -0.951426        1.000000        0.00000004        0.00000173        0.00000078        0.00000018
       5         -0.949218        1.000000        0.00000016        0.00000331        0.00000413        0.00000115
       6         -0.937979        1.000000        0.00000028        0.00000321        0.00000314        0.00000194
       7         -0.931949        1.000000        0.00000034        0.00000384        0.00000449        0.00000217
       8         -0.699165        1.000000        0.00001063        0.00001336        0.00001138        0.00001598
       9         -0.693746        1.000000        0.00000379        0.00000727        0.00000142        0.00000123
      10         -0.692376        1.000000        0.00000807        0.00000704        0.00001030        0.00000353
      11         -0.690391        1.000000        0.00001135        0.00000730        0.00001076        0.00001367
      12         -0.689686        1.000000        0.00001777        0.00002433        0.00002011        0.00001870
      13         -0.685468        1.000000        0.00003810        0.00004319        0.00002442        0.00002091
      14         -0.679913        1.000000        0.00003111        0.00002755        0.00002436        0.00000834
      15         -0.639509        1.000000        0.00115644        0.00008025        0.00169503        0.00047285
      16         -0.621427        1.000000        0.02152755        0.00241800        0.01063307        0.00000943
      17         -0.600659        1.000000        0.04657541        0.00177113        0.00305370        0.00855632
      18         -0.598218        1.000000        0.10659193        0.00075823        0.00188635        0.00425922
      19         -0.592662        1.000000        0.03464028        0.00463658        0.00013567        0.00061050
      20         -0.592031        1.000000        0.04147933        0.00626797        0.00298821        0.00863231
      21         -0.590896        1.000000        0.03894886        0.00668419        0.00064274        0.00099422
      22         -0.590500        1.000000        0.03361885        0.00714640        0.00042713        0.00229470
      23         -0.589279        1.000000        0.07952389        0.00967481        0.00342807        0.00079391
      24         -0.586684        1.000000        0.03805292        0.00498240        0.00110663        0.01525807
      25         -0.584889        1.000000        0.04724740        0.00658182        0.00585480        0.00311620
      26         -0.581555        1.000000        0.05048965        0.00467642        0.00362813        0.00220302
      27         -0.580470        1.000000        0.02034138        0.00199265        0.00430695        0.00084579
      28         -0.579475        1.000000        0.02780477        0.00594213        0.00397386        0.00113957
      29         -0.578976        1.000000        0.05639617        0.00271782        0.00954714        0.00397353
      30         -0.578110        1.000000        0.08359732        0.00566592        0.00397518        0.00852174
      31         -0.577701        1.000000        0.05316358        0.00665546        0.00522310        0.01079589
      32         -0.577273        1.000000        0.02526855        0.00203525        0.00409276        0.00378640
      33         -0.575692        1.000000        0.01462608        0.00367753        0.00570944        0.00205333
      34         -0.575409        1.000000        0.02767183        0.00836884        0.00743562        0.00201420
      35         -0.574116        1.000000        0.02132943        0.02178863        0.00646525        0.00486117
      36         -0.572536        1.000000        0.02172419        0.01513089        0.00677507        0.01011203
      37         -0.572082        1.000000        0.02948077        0.00432807        0.01493143        0.01000134
      38         -0.571982        1.000000        0.01657245        0.01370704        0.01411150        0.00198761
      39         -0.570427        1.000000        0.02241518        0.00637157        0.00634000        0.00590368
      40         -0.570189        1.000000        0.01721213        0.00686915        0.00877860        0.00283734
      41         -0.569252        1.000000        0.05167312        0.00600057        0.00378912        0.01022261
      42         -0.568442        1.000000        0.00279749        0.00169743        0.00793179        0.00230334
      43         -0.568349        1.000000        0.00330917        0.00226458        0.00137748        0.00254027
      44         -0.566849        1.000000        0.01350592        0.00080298        0.00622792        0.00772302
      45         -0.566093        1.000000        0.00816692        0.00042942        0.00200647        0.00592899
      46         -0.564756        1.000000        0.00009045        0.00009377        0.02628146        0.01390380
      47         -0.564400        1.000000        0.00042052        0.02408726        0.00716907        0.00755939
      48         -0.564086        1.000000        0.02793086        0.00200352        0.02472283        0.00997628
      49         -0.563934        1.000000        0.00807255        0.00439535        0.00289759        0.02273894
      50         -0.563027        1.000000        0.00446644        0.00346954        0.00364854        0.02838277
      51         -0.562501        1.000000        0.00277544        0.00137406        0.01495314        0.00671199
      52         -0.561421        1.000000        0.00117393        0.01476924        0.00076825        0.01386794
      53         -0.560335        1.000000        0.00379208        0.00198357        0.00102145        0.01068009
      54         -0.559738        1.000000        0.00168185        0.00810502        0.00740736        0.00654723
      55         -0.559064        1.000000        0.00080802        0.01242125        0.01175801        0.00289621
      56         -0.558898        1.000000        0.00369383        0.00967729        0.00168275        0.00810589
      57         -0.558043        1.000000        0.00757245        0.00009940        0.00434508        0.01230033
      58         -0.556931        1.000000        0.00004490        0.02220154        0.00441364        0.00204883
      59         -0.555390        1.000000        0.00193198        0.00946152        0.00899798        0.00254391
      60         -0.555165        1.000000        0.00231213        0.01212301        0.00578098        0.00373132
      61         -0.553526        1.000000        0.00123881        0.00198950        0.00106847        0.00107084
      62         -0.553100        1.000000        0.00097442        0.00083355        0.00259125        0.00086210
      63         -0.548389        1.000000        0.00156518        0.00003343        0.00619571        0.00053926
      64         -0.540507        1.000000        0.00804063        0.00056214        0.00820718        0.00157476
      65         -0.484850        1.000000        0.00049046        0.00000523        0.00001080        0.00001994
      66         -0.478039        1.000000        0.00141328        0.00005506        0.00000100        0.00000481
      67         -0.477142        1.000000        0.00195616        0.00001764        0.00002660        0.00000836
      68         -0.474568        1.000000        0.00152292        0.00000931        0.00003731        0.00003471
      69         -0.470849        1.000000        0.00433276        0.00000363        0.00001220        0.00003003
      70         -0.464883        1.000000        0.01848145        0.00005426        0.00004328        0.00003659
      71         -0.461439        1.000000        0.68144341        0.00081131        0.00142403        0.00037278
      72         -0.459508        1.000000        0.48778092        0.00077199        0.00091762        0.00027467
      73         -0.459320        1.000000        0.21557695        0.00033468        0.00034528        0.00014388
      74         -0.455697        1.000000        0.70802632        0.00196124        0.00141034        0.00205601
      75         -0.453477        1.000000        0.70089123        0.00090030        0.00060118        0.00047784
      76         -0.452562        1.000000        0.70924423        0.00164369        0.00028070        0.00126951
      77         -0.447634        1.000000        0.74015446        0.00073001        0.00086101        0.00072470
      78         -0.445228        1.000000        0.74347463        0.00037463        0.00041925        0.00044096
      79         -0.442188        1.000000        0.75333799        0.00037129        0.00021267        0.00025172
      80         -0.412127        1.000000        0.00016096        0.00009333        0.00009768        0.00003509
      81         -0.410211        1.000000        0.00054378        0.00004438        0.00006212        0.00008848
      82         -0.408695        1.000000        0.00015003        0.00001708        0.00000541        0.00001703
      83         -0.407130        1.000000        0.00038932        0.00000580        0.00003770        0.00008268
      84         -0.406614        1.000000        0.00002733        0.00003907        0.00002072        0.00001396
      85         -0.406368        1.000000        0.00030341        0.00005682        0.00000605        0.00000795
      86         -0.404581        1.000000        0.00029062        0.00004246        0.00004761        0.00004927
      87         -0.404349        1.000000        0.00019831        0.00000903        0.00002201        0.00007719
      88         -0.404169        1.000000        0.00024688        0.00003730        0.00002767        0.00004085
      89         -0.403016        1.000000        0.00029362        0.00011358        0.00003263        0.00010647
      90         -0.402218        1.000000        0.00033620        0.00011102        0.00007901        0.00019756
      91         -0.401002        1.000000        0.00015994        0.00007467        0.00004101        0.00001917
      92         -0.397469        1.000000        0.00008657        0.00000759        0.00006820        0.00001207
      93         -0.395316        1.000000        0.00005332        0.00004230        0.00006235        0.00002128
      94         -0.318014        1.000000        0.00152341        0.00200098        0.00927215        0.00133718
      95         -0.291899        1.000000        0.00183328        0.05438412        0.04813501        0.00147424
      96         -0.280335        1.000000        0.00502646        0.00892242        0.06978669        0.13633642
      97         -0.276957        1.000000        0.00364794        0.01071213        0.14227739        0.01894883
      98         -0.275710        1.000000        0.00424934        0.02880141        0.07248363        0.08981342
      99         -0.273171        1.000000        0.00353497        0.21687350        0.01362007        0.03496359
     100         -0.270765        1.000000        0.00280852        0.20326122        0.01933920        0.02138232
     101         -0.269732        1.000000        0.00248372        0.22270431        0.01814622        0.02037647
     102         -0.267184        1.000000        0.00386057        0.13896500        0.03179738        0.06224680
     103         -0.265334        1.000000        0.00554076        0.03451291        0.04751236        0.18060356
     104         -0.262774        1.000000        0.00076058        0.03866071        0.01724276        0.20424015
     105         -0.261211        1.000000        0.00020029        0.02331153        0.11657158        0.06462928
     106         -0.260330        1.000000        0.00062441        0.01704508        0.17622981        0.06248101
     107         -0.258140        1.000000        0.00038542        0.03556488        0.02106730        0.01830662
     108         -0.256462        1.000000        0.00019396        0.01011824        0.11976661        0.11312530
     109         -0.255786        1.000000        0.00044223        0.02228104        0.23843128        0.01311661
     110         -0.250599        1.000000        0.00035438        0.02366540        0.05641686        0.14387083
     111         -0.248720        1.000000        0.00016628        0.03077382        0.09424568        0.04547867
     112         -0.247005        1.000000        0.00058129        0.05469302        0.05268966        0.13536061
     113         -0.245618        1.000000        0.00042733        0.08558970        0.03484265        0.11644296
     114         -0.243260        1.000000        0.00014349        0.11168190        0.11072382        0.01202451
     115         -0.240633        1.000000        0.00137176        0.10787480        0.05249183        0.04461610
     116         -0.238647        1.000000        0.00054411        0.01103818        0.05685358        0.04655107
     117         -0.237682        1.000000        0.00051278        0.09249548        0.05319293        0.03080981
     118         -0.236452        1.000000        0.00207756        0.07478554        0.04711261        0.03988416
     119         -0.236225        1.000000        0.00301775        0.02271309        0.02326681        0.02790517
     120         -0.234906        1.000000        0.00305742        0.11952521        0.02595662        0.05025492
     121         -0.232850        1.000000        0.00534606        0.08974905        0.01870751        0.05847459
     122         -0.230106        1.000000        0.00815722        0.01991441        0.05959219        0.04824261
     123         -0.227876        1.000000        0.00713713        0.01489497        0.05148159        0.00539172
     124         -0.226350        1.000000        0.00291154        0.00695985        0.02606643        0.02422847
     125         -0.224700        1.000000        0.00553039        0.01444853        0.01087752        0.04137812
     126         -0.223492        1.000000        0.00770335        0.01769723        0.02006929        0.02623384
     127         -0.222918        1.000000        0.00531307        0.02507573        0.01939908        0.02817958
     128         -0.219868        1.000000        0.01436990        0.01583039        0.03869286        0.02023336
     129         -0.218764        1.000000        0.00203208        0.01225489        0.01154008        0.00335468
     130         -0.216983        1.000000        0.00177046        0.00345032        0.01289754        0.00304820
     131         -0.214888        1.000000        0.00261661        0.00622371        0.00977819        0.00379133
     132         -0.213318        1.000000        0.00108680        0.00671781        0.00378083        0.00163269
     133         -0.212266        1.000000        0.00748818        0.00789112        0.01058804        0.00729160
     134         -0.210954        1.000000        0.00067934        0.00365647        0.00135671        0.00325682
     135         -0.210655        1.000000        0.00390140        0.00468178        0.00741107        0.00746106
     136         -0.209030        1.000000        0.00205033        0.00543002        0.00152841        0.00306133
     137         -0.208479        1.000000        0.00362975        0.00279092        0.00488247        0.00365684
     138         -0.207249        1.000000        0.00158190        0.00337727        0.00319952        0.00217234
     139         -0.206484        1.000000        0.00134542        0.00423735        0.00154873        0.00352425
     140         -0.205641        1.000000        0.00352122        0.00447647        0.00477983        0.00772775
     141         -0.203961        1.000000        0.00328265        0.00101698        0.00435326        0.00500281
     142         -0.203259        1.000000        0.00042644        0.00231397        0.00171163        0.00055846
     143         -0.202098        1.000000        0.00393779        0.00470207        0.00092085        0.00120216
     144         -0.201462        1.000000        0.00152845        0.00264332        0.00169884        0.00109652
     145         -0.200314        1.000000        0.00566792        0.00229084        0.00433547        0.00205718
     146         -0.199599        1.000000        0.00418082        0.00158945        0.00258868        0.00615935
     147         -0.198947        1.000000        0.00423466        0.00144483        0.00215718        0.00160940
     148         -0.197179        1.000000        0.00548280        0.00100776        0.00199537        0.00310179
     149         -0.195816        1.000000        0.00157794        0.00053738        0.00077240        0.00120099
     150         -0.195595        1.000000        0.00573321        0.00072500        0.00101989        0.00248926
     151         -0.194755        1.000000        0.00272704        0.00180081        0.00128198        0.00242409
     152         -0.194592        1.000000        0.00295234        0.00025723        0.00054044        0.00120617
     153         -0.194116        1.000000        0.00458806        0.00094868        0.00282868        0.00147984
     154         -0.194049        1.000000        0.00329533        0.00061964        0.00068010        0.00144980
     155         -0.192854        1.000000        0.00290303        0.00101202        0.00194074        0.00112764
     156         -0.192734        1.000000        0.00062690        0.00034340        0.00052065        0.00153474
     157         -0.192655        1.000000        0.00407965        0.00106332        0.00208696        0.00088823
     158         -0.192097        1.000000        0.00283998        0.00086621        0.00190564        0.00029429
     159         -0.191663        1.000000        0.00106598        0.00072848        0.00118972        0.00138762
     160         -0.191201        1.000000        0.00039675        0.00108911        0.00057650        0.00083086
     161         -0.190689        1.000000        0.00199900        0.00037422        0.00132572        0.00096713
     162         -0.190393        1.000000        0.00436239        0.00125457        0.00091299        0.00099546
     163         -0.190173        1.000000        0.00258023        0.00062002        0.00105595        0.00125519
     164         -0.189945        1.000000        0.00113131        0.00083389        0.00083108        0.00070850
     165         -0.189721        1.000000        0.00116668        0.00095461        0.00060053        0.00060946
     166         -0.189591        1.000000        0.00436353        0.00054652        0.00203159        0.00065339
     167         -0.189347        1.000000        0.00357990        0.00156436        0.00190150        0.00264077
     168         -0.188895        1.000000        0.00072447        0.00037788        0.00059070        0.00048589
     169         -0.188480        1.000000        0.00461887        0.00072788        0.00145234        0.00203602
     170         -0.187449        1.000000        0.01551985        0.00269736        0.00283519        0.00867963
     171         -0.187166        1.000000        0.00806662        0.00089736        0.00236857        0.00137472
     172         -0.186245        1.000000        0.01870966        0.00311281        0.00339375        0.00638231
     173         -0.185901        1.000000        0.00328406        0.00088678        0.00036076        0.00192350
     174         -0.185268        1.000000        0.00407467        0.00028092        0.00127821        0.00123887
     175         -0.185167        1.000000        0.00474645        0.00075039        0.00087566        0.00120219
     176         -0.184669        1.000000        0.00515112        0.00075547        0.00129581        0.00033239
     177         -0.184537        1.000000        0.00108346        0.00015797        0.00076635        0.00041511
     178         -0.184045        1.000000        0.00311133        0.00035313        0.00070176        0.00031891
     179         -0.183577        1.000000        0.00735340        0.00093901        0.00173126        0.00029368
     180         -0.183253        1.000000        0.00216729        0.00047675        0.00102391        0.00061811
     181         -0.182830        1.000000        0.00170532        0.00055335        0.00042597        0.00017449
     182         -0.182704        1.000000        0.01153869        0.00092587        0.00364216        0.00154204
     183         -0.181208        1.000000        0.04007565        0.00355324        0.00250545        0.00466878
     184         -0.180827        1.000000        0.00232522        0.00016428        0.00041687        0.00162478
     185         -0.180628        1.000000        0.02312631        0.00071177        0.00266322        0.00344944
     186         -0.180124        1.000000        0.01620083        0.00114498        0.00121778        0.00233654
     187         -0.179712        1.000000        0.00929841        0.00088239        0.00093376        0.00093345
     188         -0.179556        1.000000        0.01541839        0.00141874        0.00132744        0.00126194
     189         -0.179216        1.000000        0.01199617        0.00066771        0.00082041        0.00128115
     190         -0.179074        1.000000        0.01880135        0.00180964        0.00131496        0.00071774
     191         -0.178870        1.000000        0.02576277        0.00054600        0.00194340        0.00301568
     192         -0.178197        1.000000        0.03260322        0.00161801        0.00380987        0.00315348
     193         -0.177940        1.000000        0.05500688        0.00746724        0.00432776        0.00217686
     194         -0.177609        1.000000        0.01156208        0.00123689        0.00144799        0.00202449
     195         -0.177063        1.000000        0.01383560        0.00103209        0.00085568        0.00099508
     196         -0.176969        0.000000        0.01589506        0.00098012        0.00196567        0.00110591
     197         -0.175375        0.000000        0.08783047        0.00417262        0.00489809        0.00318624
     198         -0.173044        0.000000        0.11362838        0.00303941        0.00305238        0.00463894
     199         -0.171759        0.000000        0.11286241        0.00174713        0.00123087        0.00525007
     200         -0.170731        0.000000        0.10378849        0.00115591        0.00150582        0.00218330
     201         -0.167833        0.000000        0.00218699        0.00043230        0.00021744        0.00030700
     202         -0.062066        0.000000        0.00635894        0.01625353        0.02995797        0.69015668
     203         -0.054521        0.000000        0.00847454        0.51182399        0.13384133        0.05035825
     204         -0.053360        0.000000        0.01337629        0.11854357        0.25136114        0.32897729
     205         -0.047584        0.000000        0.00790696        0.38555180        0.08774628        0.22997493
     206         -0.047422        0.000000        0.00807317        0.22358047        0.34248897        0.13551341
     207         -0.045527        0.000000        0.00728416        0.42184310        0.18662232        0.09246928
     208         -0.042808        0.000000        0.00317582        0.23327993        0.34270258        0.11451002
     209         -0.039553        0.000000        0.00198038        0.25149114        0.39601231        0.04686436
     210         -0.038932        0.000000        0.00387090        0.23309698        0.43726521        0.01693289
     211         -0.037283        0.000000        0.00122839        0.16301210        0.14789709        0.38211521
     212         -0.035900        0.000000        0.00262907        0.20011762        0.36606240        0.13185308
     213         -0.032514        0.000000        0.00025553        0.14084300        0.28512087        0.26829299
     214         -0.031344        0.000000        0.00007271        0.08543940        0.38341476        0.22583369
     215         -0.029662        0.000000        0.00019744        0.04807854        0.25839247        0.38666906
     216         -0.023261        0.000000        0.00043610        0.07358721        0.13722981        0.47647372
     217         -0.023067        0.000000        0.00092894        0.09213425        0.09128936        0.50579650
     218         -0.017316        0.000000        0.00027102        0.09378816        0.43332623        0.14717742
     219         -0.016519        0.000000        0.00055112        0.34062747        0.25231082        0.08299681
     220         -0.015096        0.000000        0.00066163        0.03012745        0.57055535        0.07783905
     221         -0.012364        0.000000        0.00037292        0.04486432        0.11816289        0.50415832
     222         -0.010501        0.000000        0.00039899        0.47826218        0.12595065        0.06856935
     223         -0.005951        0.000000        0.00011581        0.60744466        0.01549710        0.05976273
     224         -0.004803        0.000000        0.00047050        0.51460747        0.01722380        0.14584875
     225         -0.003814        0.000000        0.00143502        0.22555328        0.08722682        0.36572556
     226          0.087853        0.000000        0.00001407        0.00007755        0.00005623        0.00021256
     227          0.093990        0.000000        0.00000263        0.00009454        0.00000507        0.00001985
     228          0.094785        0.000000        0.00000133        0.00004416        0.00005573        0.00005725
     229          0.103032        0.000000        0.00000281        0.00004411        0.00001706        0.00005287
     230          0.106456        0.000000        0.00000245        0.00003287        0.00006724        0.00003271
     231          0.108973        0.000000        0.00000154        0.00012749        0.00002408        0.00000811
     232          0.112669        0.000000        0.00000006        0.00000382        0.00000710        0.00000838
     233          0.167344        0.000000        0.00002627        0.00001680        0.00000711        0.00040740
     234          0.170605        0.000000        0.00000381        0.00000653        0.00002497        0.00000803
     235          0.184046        0.000000        0.00000292        0.00001546        0.00000198        0.00003096
     236          0.208632        0.000000        0.00000391        0.00002294        0.00000083        0.00000597
     237          0.276027        0.000000        0.00001534        0.00003022        0.00000754        0.00014965
     238          0.283006        0.000000        0.00000032        0.00010793        0.00038833        0.00007546
     239          0.288344        0.000000        0.00000619        0.00012330        0.00011184        0.00001062
     240          0.289447        0.000000        0.00000095        0.00003410        0.00014384        0.00008156
     241          0.290444        0.000000        0.00000462        0.00001309        0.00005683        0.00006739
     242          0.295964        0.000000        0.00000138        0.00014165        0.00008185        0.00001154
     243          0.298296        0.000000        0.00000395        0.00005301        0.00005222        0.00001785
     244          0.300018        0.000000        0.00000377        0.00006056        0.00006537        0.00002308
     245          0.304635        0.000000        0.00002433        0.00004102        0.00001126        0.00021912
     246          0.304825        0.000000        0.00000402        0.00011355        0.00002867        0.00006330
     247          0.307504        0.000000        0.00000195        0.00008014        0.00009131        0.00001155
     248          0.319131        0.000000        0.00000148        0.00011288        0.00027213        0.00013481
     249          0.325104        0.000000        0.00000835        0.00004194        0.00002307        0.00004455
     250          0.326584        0.000000        0.00000917        0.00006998        0.00002955        0.00002451
     251          0.328243        0.000000        0.00000505        0.00002128        0.00006123        0.00000436
     252          0.345786        0.000000        0.00000277        0.00001824        0.00000942        0.00000542
     253          0.347481        0.000000        0.00000662        0.00001098        0.00011262        0.00002043
     254          0.454056        0.000000        0.00000066        0.00000580        0.00000828        0.00003311
     255          0.455661        0.000000        0.00000087        0.00000477        0.00000027        0.00000715
     256          0.457241        0.000000        0.00000018        0.00000488        0.00000487        0.00000035
     257          0.458328        0.000000        0.00000118        0.00002157        0.00003265        0.00000710
     258          0.458394        0.000000        0.00000051        0.00000222        0.00000730        0.00000236
     259          0.458548        0.000000        0.00000086        0.00001422        0.00000580        0.00000202