# Projected DOS for atomic kind I at iteration step i = 0, E(Fermi) =    -0.177063 a.u.
#     MO Eigenvalue [a.u.]      Occupation                 s                py                pz                px
       1         -0.963952        1.000000        0.00001577        0.00008005        0.00008060        0.00000769
       2         -0.953652        1.000000        0.00005067        0.00021007        0.00008660        0.00009373
       3         -0.952791        1.000000        0.00011429        0.00022328        0.00032689        0.00007295
       4         -0.951426        1.000000        0.00005584        0.00007806        0.00024768        0.00007372
       5         -0.949218        1.000000        0.00005380        0.00019214        0.00014017        0.00007763
       6         -0.937979        1.000000        0.00019335        0.00046351        0.00038383        0.00023471
       7         -0.931949        1.000000        0.00016237        0.00046889        0.00014487        0.00022175
       8         -0.699165        1.000000        0.00035985        0.00016337        0.00021248        0.00007049
       9         -0.693746        1.000000        0.00044013        0.00005143        0.00022468        0.00005033
      10         -0.692376        1.000000        0.00108660        0.00018518        0.00014216        0.00036493
      11         -0.690391        1.000000        0.00099536        0.00022911        0.00022771        0.00007755
      12         -0.689686        1.000000        0.00057695        0.00026620        0.00008578        0.00024633
      13         -0.685468        1.000000        0.00250608        0.00049791        0.00056643        0.00038941
      14         -0.679913        1.000000        0.00137242        0.00027741        0.00021173        0.00014531
      15         -0.639509        1.000000        0.95046970        0.00157417        0.01522858        0.01629579
      16         -0.621427        1.000000        0.94660026        0.00616061        0.00773389        0.00150452
      17         -0.600659        1.000000        0.90482458        0.00185569        0.00727547        0.00705767
      18         -0.598218        1.000000        0.80923231        0.00500794        0.00467950        0.00614887
      19         -0.592662        1.000000        0.32545744        0.00179972        0.00182752        0.00144889
      20         -0.592031        1.000000        0.71271484        0.00456971        0.00381368        0.00373070
      21         -0.590896        1.000000        0.68122543        0.00252572        0.00363733        0.00283065
      22         -0.590500        1.000000        0.76888866        0.00247745        0.00420560        0.00278544
      23         -0.589279        1.000000        0.76850301        0.00487287        0.00365129        0.00503833
      24         -0.586684        1.000000        0.73626542        0.00310262        0.00418978        0.00302603
      25         -0.584889        1.000000        0.75908573        0.00276013        0.00233332        0.00302256
      26         -0.581555        1.000000        0.50311997        0.00339876        0.00338752        0.00266200
      27         -0.580470        1.000000        0.30373835        0.00254465        0.00249001        0.00189276
      28         -0.579475        1.000000        0.40454642        0.00238866        0.00307029        0.00144740
      29         -0.578976        1.000000        0.70521374        0.00300278        0.00484867        0.00311324
      30         -0.578110        1.000000        0.71123918        0.00426857        0.00448455        0.00376601
      31         -0.577701        1.000000        0.68434288        0.00314318        0.00385449        0.00195698
      32         -0.577273        1.000000        0.42373152        0.00201134        0.00187497        0.00116003
      33         -0.575692        1.000000        0.32171363        0.00239790        0.00187957        0.00146825
      34         -0.575409        1.000000        0.54577131        0.00346767        0.00230000        0.00224900
      35         -0.574116        1.000000        0.75842482        0.00208861        0.00281391        0.00174541
      36         -0.572536        1.000000        0.83675592        0.00210969        0.00410204        0.00218154
      37         -0.572082        1.000000        0.72373363        0.00210030        0.00256495        0.00266170
      38         -0.571982        1.000000        0.77597252        0.00093140        0.00216727        0.00159141
      39         -0.570427        1.000000        0.80615202        0.00350546        0.00260623        0.00191765
      40         -0.570189        1.000000        0.78829244        0.00303335        0.00241815        0.00159165
      41         -0.569252        1.000000        0.67108599        0.00240311        0.00273360        0.00341126
      42         -0.568442        1.000000        0.92344971        0.00562113        0.00042835        0.00068272
      43         -0.568349        1.000000        0.22793563        0.00317341        0.00053003        0.00075894
      44         -0.566849        1.000000        0.47290030        0.00213276        0.00063584        0.00202840
      45         -0.566093        1.000000        0.34651871        0.00218743        0.00030762        0.00126447
      46         -0.564756        1.000000        0.95607929        0.00023667        0.00162450        0.00055308
      47         -0.564400        1.000000        0.95226107        0.00151020        0.00022892        0.00075122
      48         -0.564086        1.000000        0.88326172        0.00198490        0.00337985        0.00081164
      49         -0.563934        1.000000        0.80808074        0.00196901        0.00039725        0.00170019
      50         -0.563027        1.000000        0.85997513        0.00208740        0.00055689        0.00158143
      51         -0.562501        1.000000        0.64025780        0.00147693        0.00189221        0.00088979
      52         -0.561421        1.000000        0.91809342        0.00173676        0.00049417        0.00064188
      53         -0.560335        1.000000        0.51588979        0.00073878        0.00064922        0.00151657
      54         -0.559738        1.000000        0.79549639        0.00049432        0.00098227        0.00097048
      55         -0.559064        1.000000        0.89424023        0.00103679        0.00116718        0.00071469
      56         -0.558898        1.000000        0.64625892        0.00116426        0.00110686        0.00031841
      57         -0.558043        1.000000        0.96041485        0.00035713        0.00063266        0.00238352
      58         -0.556931        1.000000        0.96100590        0.00107476        0.00108691        0.00020156
      59         -0.555390        1.000000        0.70509500        0.00114562        0.00094622        0.00021415
      60         -0.555165        1.000000        0.74762845        0.00115785        0.00073156        0.00013240
      61         -0.553526        1.000000        0.15747395        0.00153633        0.00148223        0.00122369
      62         -0.553100        1.000000        0.28380498        0.00217348        0.00032856        0.00100792
      63         -0.548389        1.000000        0.26598885        0.00042592        0.00125021        0.00056626
      64         -0.540507        1.000000        0.36697628        0.00140451        0.00142685        0.00115882
      65         -0.484850        1.000000        0.00105306        0.00043309        0.00053923        0.00027654
      66         -0.478039        1.000000        0.00186848        0.00054841        0.00112155        0.00022583
      67         -0.477142        1.000000        0.00182083        0.00117155        0.00067542        0.00140212
      68         -0.474568        1.000000        0.00192159        0.00105654        0.00061577        0.00066372
      69         -0.470849        1.000000        0.00182693        0.00131454        0.00150659        0.00031173
      70         -0.464883        1.000000        0.00566960        0.00326421        0.00410686        0.00296245
      71         -0.461439        1.000000        0.17420454        0.04540686        0.03916887        0.04667124
      72         -0.459508        1.000000        0.12337183        0.03306011        0.02956172        0.03013500
      73         -0.459320        1.000000        0.05461112        0.01576930        0.01328104        0.01365716
      74         -0.455697        1.000000        0.14287306        0.05461583        0.04505923        0.03686736
      75         -0.453477        1.000000        0.17558282        0.03133934        0.04041317        0.04420263
      76         -0.452562        1.000000        0.15208816        0.05166563        0.03298104        0.03974402
      77         -0.447634        1.000000        0.14053616        0.03185762        0.04025250        0.03838545
      78         -0.445228        1.000000        0.14526851        0.02972004        0.03190419        0.03780819
      79         -0.442188        1.000000        0.14845954        0.03185307        0.03455855        0.02663037
      80         -0.412127        1.000000        0.00182206        0.00167174        0.00213911        0.00082306
      81         -0.410211        1.000000        0.00118794        0.00165111        0.00151513        0.00026273
      82         -0.408695        1.000000        0.00034687        0.00043385        0.00074248        0.00028944
      83         -0.407130        1.000000        0.00116615        0.00153132        0.00142668        0.00036356
      84         -0.406614        1.000000        0.00043403        0.00154459        0.00053018        0.00101513
      85         -0.406368        1.000000        0.00075763        0.00155922        0.00131967        0.00030442
      86         -0.404581        1.000000        0.00140224        0.00275223        0.00233333        0.00261717
      87         -0.404349        1.000000        0.00108519        0.00212547        0.00170411        0.00095503
      88         -0.404169        1.000000        0.00097501        0.00300140        0.00118085        0.00148033
      89         -0.403016        1.000000        0.00042322        0.00069566        0.00045155        0.00126865
      90         -0.402218        1.000000        0.00137950        0.00156897        0.00066092        0.00251716
      91         -0.401002        1.000000        0.00109088        0.00168294        0.00153020        0.00383190
      92         -0.397469        1.000000        0.00053635        0.00081362        0.00019678        0.00067098
      93         -0.395316        1.000000        0.00139103        0.00254529        0.00022679        0.00070462
      94         -0.318014        1.000000        0.03193873        0.01396073        0.50606329        0.43186510
      95         -0.291899        1.000000        0.02084878        0.26158157        0.57926728        0.03186188
      96         -0.280335        1.000000        0.01218354        0.06901210        0.25595206        0.44036132
      97         -0.276957        1.000000        0.01359360        0.40685825        0.31450438        0.08711081
      98         -0.275710        1.000000        0.01070944        0.19293900        0.26647561        0.33276339
      99         -0.273171        1.000000        0.01292003        0.63607377        0.04085286        0.03874185
     100         -0.270765        1.000000        0.01214987        0.54120635        0.10387608        0.09354713
     101         -0.269732        1.000000        0.01355284        0.57913464        0.07151451        0.07028539
     102         -0.267184        1.000000        0.01383293        0.45733525        0.14275902        0.14636093
     103         -0.265334        1.000000        0.01414192        0.11519849        0.13948974        0.46152305
     104         -0.262774        1.000000        0.02038303        0.08545894        0.07823571        0.55327128
     105         -0.261211        1.000000        0.01692000        0.06771251        0.39034309        0.31950572
     106         -0.260330        1.000000        0.01692775        0.09381681        0.45199169        0.17894040
     107         -0.258140        1.000000        0.00561774        0.56587486        0.14809814        0.19814230
     108         -0.256462        1.000000        0.01754685        0.14151867        0.35675129        0.24011806
     109         -0.255786        1.000000        0.02010128        0.12445197        0.44437817        0.13600590
     110         -0.250599        1.000000        0.01957356        0.11896379        0.15601681        0.47830257
     111         -0.248720        1.000000        0.01676915        0.31229872        0.32308153        0.17520396
     112         -0.247005        1.000000        0.01699710        0.15871088        0.16412149        0.41533449
     113         -0.245618        1.000000        0.02003593        0.23734956        0.17498335        0.32939401
     114         -0.243260        1.000000        0.01778116        0.29432945        0.31361101        0.13700880
     115         -0.240633        1.000000        0.01642142        0.20876841        0.29643445        0.26970449
     116         -0.238647        1.000000        0.00885395        0.18265108        0.19698628        0.49167636
     117         -0.237682        1.000000        0.01345143        0.15476894        0.23536733        0.41640155
     118         -0.236452        1.000000        0.01069398        0.22205713        0.26511237        0.33506414
     119         -0.236225        1.000000        0.00607423        0.43414189        0.33070473        0.13714778
     120         -0.234906        1.000000        0.01423809        0.43538256        0.19744663        0.15013726
     121         -0.232850        1.000000        0.01256387        0.37237428        0.22601059        0.21251469
     122         -0.230106        1.000000        0.01129341        0.19592951        0.33673934        0.31715077
     123         -0.227876        1.000000        0.00469662        0.31650304        0.43196482        0.16418347
     124         -0.226350        1.000000        0.00351005        0.31924345        0.32760535        0.28487529
     125         -0.224700        1.000000        0.00491184        0.30368206        0.27802254        0.33765412
     126         -0.223492        1.000000        0.00493819        0.33943508        0.33782306        0.23752811
     127         -0.222918        1.000000        0.00430012        0.27899597        0.31284389        0.32181631
     128         -0.219868        1.000000        0.00597549        0.30752065        0.35290723        0.23593315
     129         -0.218764        1.000000        0.00280120        0.55130456        0.25160119        0.15064860
     130         -0.216983        1.000000        0.00127658        0.21161178        0.62540767        0.13054405
     131         -0.214888        1.000000        0.00300666        0.45341729        0.33593029        0.18044019
     132         -0.213318        1.000000        0.00100742        0.29431304        0.31119757        0.37427694
     133         -0.212266        1.000000        0.00279229        0.31036392        0.35005509        0.29778651
     134         -0.210954        1.000000        0.00154098        0.32786297        0.35614513        0.29722749
     135         -0.210655        1.000000        0.00200582        0.33355023        0.33649562        0.29465156
     136         -0.209030        1.000000        0.00095094        0.32137713        0.21404688        0.44900142
     137         -0.208479        1.000000        0.00175984        0.17731669        0.53645756        0.26290310
     138         -0.207249        1.000000        0.00107560        0.26733627        0.35927870        0.35661844
     139         -0.206484        1.000000        0.00062733        0.43005763        0.18533510        0.36963641
     140         -0.205641        1.000000        0.00164007        0.27710726        0.42551783        0.27229237
     141         -0.203961        1.000000        0.00131062        0.36642319        0.42233622        0.19302702
     142         -0.203259        1.000000        0.00091959        0.33043390        0.45136400        0.20596623
     143         -0.202098        1.000000        0.00105467        0.36943496        0.24551252        0.37045152
     144         -0.201462        1.000000        0.00078400        0.18602736        0.57023106        0.23384770
     145         -0.200314        1.000000        0.00073244        0.33154203        0.27717772        0.37395438
     146         -0.199599        1.000000        0.00088208        0.37099787        0.16489479        0.44666368
     147         -0.198947        1.000000        0.00076934        0.33180908        0.32925297        0.32606964
     148         -0.197179        1.000000        0.00148296        0.34609316        0.36379679        0.27210924
     149         -0.195816        1.000000        0.00104015        0.36135585        0.19448269        0.43578913
     150         -0.195595        1.000000        0.00151064        0.33393398        0.39365123        0.25391154
     151         -0.194755        1.000000        0.00058359        0.36484227        0.26195304        0.36267649
     152         -0.194592        1.000000        0.00200096        0.45487831        0.30768831        0.22123801
     153         -0.194116        1.000000        0.00090474        0.36149303        0.37402445        0.25077472
     154         -0.194049        1.000000        0.00141101        0.40481608        0.34209309        0.24143197
     155         -0.192854        1.000000        0.00065796        0.18374649        0.25255816        0.55397152
     156         -0.192734        1.000000        0.00082509        0.55546946        0.19533193        0.24291220
     157         -0.192655        1.000000        0.00095220        0.27058902        0.27685268        0.43996951
     158         -0.192097        1.000000        0.00079293        0.30099763        0.38443671        0.30439515
     159         -0.191663        1.000000        0.00101055        0.46555880        0.20481645        0.32095417
     160         -0.191201        1.000000        0.00056205        0.46033321        0.24124256        0.29224716
     161         -0.190689        1.000000        0.00082239        0.29856482        0.22895808        0.46333619
     162         -0.190393        1.000000        0.00068590        0.29196778        0.37870695        0.31900412
     163         -0.190173        1.000000        0.00059924        0.38548564        0.28448869        0.32173000
     164         -0.189945        1.000000        0.00068373        0.28885449        0.29250580        0.41242675
     165         -0.189721        1.000000        0.00048664        0.31938187        0.34083618        0.33405267
     166         -0.189591        1.000000        0.00108071        0.27833135        0.30471720        0.40459470
     167         -0.189347        1.000000        0.00109714        0.22809855        0.40132857        0.35583469
     168         -0.188895        1.000000        0.00068231        0.70967481        0.21316980        0.07342089
     169         -0.188480        1.000000        0.00077790        0.34147151        0.42647107        0.22071800
     170         -0.187449        1.000000        0.00150510        0.14244057        0.28952172        0.53399320
     171         -0.187166        1.000000        0.00090025        0.34767462        0.35311712        0.28383554
     172         -0.186245        1.000000        0.00144827        0.21773417        0.33903224        0.40663492
     173         -0.185901        1.000000        0.00085538        0.09745195        0.54652999        0.34632737
     174         -0.185268        1.000000        0.00115452        0.27299188        0.26385220        0.44991529
     175         -0.185167        1.000000        0.00109060        0.24187083        0.37168244        0.37459154
     176         -0.184669        1.000000        0.00126665        0.26287426        0.31794821        0.40738553
     177         -0.184537        1.000000        0.00054977        0.20323445        0.45275889        0.33965425
     178         -0.184045        1.000000        0.00058438        0.34596342        0.21240747        0.43462720
     179         -0.183577        1.000000        0.00118021        0.28670283        0.44665922        0.25192263
     180         -0.183253        1.000000        0.00119733        0.32773702        0.32785542        0.33800509
     181         -0.182830        1.000000        0.00062025        0.47021431        0.23903848        0.28605863
     182         -0.182704        1.000000        0.00126757        0.45265667        0.18025007        0.34613667
     183         -0.181208        1.000000        0.00089435        0.22880660        0.29883751        0.41946989
     184         -0.180827        1.000000        0.00050735        0.42450488        0.13387541        0.43529350
     185         -0.180628        1.000000        0.00050252        0.33643613        0.21773859        0.41460414
     186         -0.180124        1.000000        0.00043063        0.37147939        0.28651957        0.31994737
     187         -0.179712        1.000000        0.00100909        0.37209317        0.36189481        0.25207962
     188         -0.179556        1.000000        0.00075196        0.39529391        0.34850147        0.23560429
     189         -0.179216        1.000000        0.00082643        0.27131232        0.38211376        0.33035984
     190         -0.179074        1.000000        0.00033121        0.42673131        0.17918699        0.37049331
     191         -0.178870        1.000000        0.00050367        0.40791195        0.31397218        0.24562268
     192         -0.178197        1.000000        0.00046348        0.23562968        0.26661029        0.45553956
     193         -0.177940        1.000000        0.00062348        0.27514552        0.19138945        0.46341327
     194         -0.177609        1.000000        0.00038048        0.30183172        0.27762301        0.40318475
     195         -0.177063        1.000000        0.00097050        0.30002698        0.40571356        0.27570464
     196         -0.176969        0.000000        0.00281036        0.35151836        0.41434402        0.21085400
     197         -0.175375        0.000000        0.00035777        0.29198711        0.23594984        0.37127467
     198         -0.173044        0.000000        0.00018489        0.20453502        0.29515829        0.37530506
     199         -0.171759        0.000000        0.00030226        0.24220072        0.37855207        0.25760322
     200         -0.170731        0.000000        0.00070819        0.25700460        0.34269864        0.29063933
     201         -0.167833        0.000000        0.00837341        0.01586887        0.50374299        0.46859003
     202         -0.062066        0.000000        0.02026433        0.03173847        0.06724742        0.13772682
     203         -0.054521        0.000000        0.02564331        0.11753994        0.11363176        0.03839094
     204         -0.053360        0.000000        0.02756125        0.04381046        0.10735302        0.10740033
     205         -0.047584        0.000000        0.03050511        0.13793348        0.03134132        0.08798935
     206         -0.047422        0.000000        0.02816883        0.07734856        0.11127550        0.07250403
     207         -0.045527        0.000000        0.03018119        0.16524858        0.05757799        0.03816564
     208         -0.042808        0.000000        0.02517202        0.10459675        0.11258297        0.06332420
     209         -0.039553        0.000000        0.02382038        0.09234963        0.15011389        0.03690186
     210         -0.038932        0.000000        0.01954826        0.08166187        0.18844983        0.01884213
     211         -0.037283        0.000000        0.02436732        0.07433868        0.06977228        0.13694467
     212         -0.035900        0.000000        0.02449310        0.03699926        0.16819481        0.06930989
     213         -0.032514        0.000000        0.02428539        0.06799962        0.10676013        0.10607340
     214         -0.031344        0.000000        0.02443494        0.04394621        0.12722924        0.10922241
     215         -0.029662        0.000000        0.02371031        0.03505198        0.12309267        0.12455944
     216         -0.023261        0.000000        0.02430929        0.01652521        0.08693771        0.18363016
     217         -0.023067        0.000000        0.02038884        0.05812828        0.04907557        0.18194331
     218         -0.017316        0.000000        0.01876914        0.03507839        0.18536597        0.08576629
     219         -0.016519        0.000000        0.02071120        0.16146477        0.08891202        0.05222196
     220         -0.015096        0.000000        0.01647301        0.01184181        0.23510925        0.05693316
     221         -0.012364        0.000000        0.02183078        0.02645955        0.04233200        0.24143787
     222         -0.010501        0.000000        0.01367361        0.25553715        0.03806956        0.01906687
     223         -0.005951        0.000000        0.01392216        0.26570648        0.00792307        0.02874135
     224         -0.004803        0.000000        0.01522963        0.23218374        0.01728027        0.05605164
     225         -0.003814        0.000000        0.01614938        0.07148652        0.05941361        0.17164415
     226          0.087853        0.000000        0.00001647        0.00036398        0.00051046        0.00046953
     227          0.093990        0.000000        0.00003361        0.00028144        0.00100820        0.00021597
     228          0.094785        0.000000        0.00002431        0.00038191        0.00055234        0.00016328
     229          0.103032        0.000000        0.00007504        0.00054954        0.00075326        0.00120663
     230          0.106456        0.000000        0.00006110        0.00108550        0.00052471        0.00037175
     231          0.108973        0.000000        0.00016177        0.00081121        0.00221979        0.00136888
     232          0.112669        0.000000        0.00008954        0.00099695        0.00094886        0.00055480
     233          0.167344        0.000000        0.00000576        0.00034577        0.00064397        0.00070667
     234          0.170605        0.000000        0.00001381        0.00016621        0.00028270        0.00015321
     235          0.184046        0.000000        0.00001156        0.00024191        0.00017278        0.00011417
     236          0.208632        0.000000        0.00000728        0.00024764        0.00003809        0.00004036
     237          0.276027        0.000000        0.00006947        0.00137234        0.00133081        0.00045306
     238          0.283006        0.000000        0.00016344        0.00286443        0.00065451        0.00079765
     239          0.288344        0.000000        0.00035056        0.00059804        0.00552174        0.00122641
     240          0.289447        0.000000        0.00070740        0.00501261        0.00840815        0.00066329
     241          0.290444        0.000000        0.00048535        0.00191828        0.00024525        0.00190556
     242          0.295964        0.000000        0.00025984        0.00472906        0.00055758        0.00147116
     243          0.298296        0.000000        0.00025885        0.00569811        0.00216352        0.00209738
     244          0.300018        0.000000        0.00036113        0.00431627        0.00042134        0.00363065
     245          0.304635        0.000000        0.00024572        0.00453882        0.00258475        0.00084293
     246          0.304825        0.000000        0.00050060        0.00872670        0.00086128        0.00135998
     247          0.307504        0.000000        0.00078473        0.01311823        0.00008773        0.00257290
     248          0.319131        0.000000        0.00071469        0.00584755        0.00812929        0.00120552
     249          0.325104        0.000000        0.00047518        0.00252243        0.00324749        0.00195777
     250          0.326584        0.000000        0.00032061        0.00460262        0.00493303        0.00161759
     251          0.328243        0.000000        0.00031617        0.00562162        0.00200580        0.00188971
     252          0.345786        0.000000        0.00056101        0.01095289        0.00163196        0.00290632
     253          0.347481        0.000000        0.00083635        0.01165203        0.00057142        0.00455486
     254          0.454056        0.000000        0.00003314        0.00062404        0.00071209        0.00003538
     255          0.455661        0.000000        0.00001858        0.00025070        0.00024499        0.00004554
     256          0.457241        0.000000        0.00001662        0.00015089        0.00013603        0.00008548
     257          0.458328        0.000000        0.00000745        0.00010173        0.00007013        0.00014555
     258          0.458394        0.000000        0.00001757        0.00016567        0.00007092        0.00013213
     259          0.458548        0.000000        0.00001013        0.00010504        0.00011631        0.00031193