# Projected DOS for atomic kind Pb at iteration step i = 0, E(Fermi) =    -0.176036 a.u.
#     MO Eigenvalue [a.u.]      Occupation                 s                py                pz                px
       1         -0.963934        1.000000        0.00000004        0.00000025        0.00000025        0.00000045
       2         -0.953625        1.000000        0.00000005        0.00000024        0.00000049        0.00000039
       3         -0.952766        1.000000        0.00000028        0.00000402        0.00000643        0.00000341
       4         -0.951411        1.000000        0.00000004        0.00000172        0.00000078        0.00000018
       5         -0.949203        1.000000        0.00000016        0.00000330        0.00000414        0.00000115
       6         -0.937962        1.000000        0.00000029        0.00000320        0.00000314        0.00000194
       7         -0.931926        1.000000        0.00000033        0.00000383        0.00000448        0.00000217
       8         -0.699136        1.000000        0.00001051        0.00001330        0.00001136        0.00001586
       9         -0.693725        1.000000        0.00000370        0.00000717        0.00000140        0.00000121
      10         -0.692350        1.000000        0.00000799        0.00000694        0.00001014        0.00000354
      11         -0.690353        1.000000        0.00001133        0.00000733        0.00001070        0.00001361
      12         -0.689680        1.000000        0.00001771        0.00002431        0.00001998        0.00001870
      13         -0.685448        1.000000        0.00003745        0.00004237        0.00002439        0.00002064
      14         -0.679885        1.000000        0.00003071        0.00002722        0.00002429        0.00000830
      15         -0.639427        1.000000        0.00110050        0.00007853        0.00167996        0.00046718
      16         -0.620629        1.000000        0.02250425        0.00237235        0.01066047        0.00000994
      17         -0.599449        1.000000        0.05575729        0.00224109        0.00298084        0.00678539
      18         -0.598018        1.000000        0.09473442        0.00082955        0.00204753        0.00563006
      19         -0.592240        1.000000        0.01631723        0.00156671        0.00007565        0.00076259
      20         -0.592031        1.000000        0.04563088        0.00755029        0.00306083        0.00850951
      21         -0.590704        1.000000        0.03343427        0.00586763        0.00090856        0.00116453
      22         -0.589542        1.000000        0.06654397        0.00983527        0.00063720        0.00295409
      23         -0.589144        1.000000        0.06915592        0.00719352        0.00394879        0.00116652
      24         -0.586568        1.000000        0.03369380        0.00410479        0.00107849        0.01557643
      25         -0.584663        1.000000        0.04300210        0.00728175        0.00646317        0.00263102
      26         -0.581224        1.000000        0.04922895        0.00469931        0.00371030        0.00237534
      27         -0.580373        1.000000        0.02136269        0.00194587        0.00401181        0.00091440
      28         -0.579392        1.000000        0.02879456        0.00437995        0.00512331        0.00211802
      29         -0.578698        1.000000        0.04499444        0.00382063        0.00684349        0.00372894
      30         -0.577885        1.000000        0.05365258        0.00562609        0.00671994        0.00898710
      31         -0.577213        1.000000        0.01157572        0.00216314        0.00322760        0.00309550
      32         -0.575665        1.000000        0.00978158        0.00170904        0.00374944        0.00202547
      33         -0.575183        1.000000        0.05069403        0.00677550        0.00940846        0.00291250
      34         -0.574726        1.000000        0.09183000        0.00924604        0.00544212        0.00724137
      35         -0.573809        1.000000        0.01542189        0.02508141        0.00922151        0.00277730
      36         -0.572207        1.000000        0.02156949        0.01300149        0.01977791        0.00146945
      37         -0.572109        1.000000        0.00590637        0.01506993        0.00732804        0.00256806
      38         -0.571442        1.000000        0.05737368        0.00433228        0.00676737        0.01911197
      39         -0.570262        1.000000        0.03043204        0.00958961        0.00644606        0.00699890
      40         -0.569756        1.000000        0.00385691        0.00209952        0.00710381        0.00150363
      41         -0.568343        1.000000        0.03337421        0.00490614        0.00388900        0.00675443
      42         -0.568205        1.000000        0.02456691        0.00410303        0.00112481        0.00546704
      43         -0.567518        1.000000        0.00369622        0.00250891        0.00761267        0.00250270
      44         -0.566568        1.000000        0.00786797        0.00069510        0.00433841        0.00651047
      45         -0.565880        1.000000        0.01515600        0.00085314        0.00305329        0.01019676
      46         -0.564644        1.000000        0.00289322        0.00283237        0.00308562        0.02820932
      47         -0.563750        1.000000        0.03200604        0.00207865        0.02385845        0.00947322
      48         -0.563445        1.000000        0.00821494        0.00080331        0.00549319        0.02534301
      49         -0.561948        1.000000        0.00275767        0.00106785        0.01176332        0.00586913
      50         -0.561246        1.000000        0.00010856        0.01227933        0.03146801        0.00105125
      51         -0.560517        1.000000        0.00279153        0.00497806        0.00080724        0.01184573
      52         -0.560268        1.000000        0.00216336        0.01807068        0.00031550        0.01210802
      53         -0.559795        1.000000        0.00123713        0.00965655        0.00227941        0.01927029
      54         -0.558940        1.000000        0.00624742        0.00042067        0.00454675        0.01144427
      55         -0.558649        1.000000        0.00130503        0.00237850        0.01299390        0.00620849
      56         -0.558009        1.000000        0.00257592        0.00859244        0.00503529        0.01206837
      57         -0.557487        1.000000        0.00073643        0.01774464        0.00525406        0.00329381
      58         -0.556684        1.000000        0.00032753        0.02156244        0.00581918        0.00187354
      59         -0.555094        1.000000        0.00085828        0.00850996        0.01141784        0.00065908
      60         -0.554671        1.000000        0.00342542        0.01653650        0.00277298        0.00368194
      61         -0.553481        1.000000        0.00110793        0.00200742        0.00122448        0.00103078
      62         -0.553042        1.000000        0.00093346        0.00118587        0.00197220        0.00095388
      63         -0.548293        1.000000        0.00141641        0.00003334        0.00640112        0.00050075
      64         -0.540814        1.000000        0.00755280        0.00059981        0.00788737        0.00140984
      65         -0.484824        1.000000        0.00048388        0.00000501        0.00001075        0.00002105
      66         -0.478022        1.000000        0.00140172        0.00005638        0.00000093        0.00000478
      67         -0.477119        1.000000        0.00194794        0.00001845        0.00002657        0.00000815
      68         -0.474564        1.000000        0.00148707        0.00000915        0.00003856        0.00003475
      69         -0.470827        1.000000        0.00432552        0.00000319        0.00001151        0.00003049
      70         -0.464864        1.000000        0.02008578        0.00005455        0.00004349        0.00003487
      71         -0.461468        1.000000        0.68141194        0.00079915        0.00141912        0.00033382
      72         -0.459661        1.000000        0.61878210        0.00077020        0.00118231        0.00028725
      73         -0.459307        1.000000        0.07945152        0.00009378        0.00011884        0.00005006
      74         -0.455199        1.000000        0.70871482        0.00196876        0.00139050        0.00213271
      75         -0.452066        1.000000        0.70958077        0.00163430        0.00030509        0.00126771
      76         -0.451057        1.000000        0.69937319        0.00080330        0.00049819        0.00049570
      77         -0.446785        1.000000        0.73958032        0.00073234        0.00074026        0.00060339
      78         -0.444950        1.000000        0.74705062        0.00052215        0.00042907        0.00041525
      79         -0.441911        1.000000        0.75037276        0.00027752        0.00018627        0.00022276
      80         -0.412084        1.000000        0.00017024        0.00009290        0.00009714        0.00003627
      81         -0.410187        1.000000        0.00057320        0.00004408        0.00006238        0.00008768
      82         -0.408661        1.000000        0.00014706        0.00001695        0.00000540        0.00001684
      83         -0.407084        1.000000        0.00037892        0.00000586        0.00003778        0.00008076
      84         -0.406589        1.000000        0.00002826        0.00003934        0.00002042        0.00001391
      85         -0.406346        1.000000        0.00031175        0.00005678        0.00000599        0.00000787
      86         -0.404547        1.000000        0.00030785        0.00004377        0.00004921        0.00005078
      87         -0.404303        1.000000        0.00019685        0.00000957        0.00002200        0.00007531
      88         -0.404130        1.000000        0.00025702        0.00003536        0.00002522        0.00004010
      89         -0.403016        1.000000        0.00029540        0.00011335        0.00003235        0.00010682
      90         -0.402219        1.000000        0.00034370        0.00011010        0.00007826        0.00019735
      91         -0.400982        1.000000        0.00016622        0.00007526        0.00004077        0.00001891
      92         -0.397445        1.000000        0.00008899        0.00000758        0.00006817        0.00001224
      93         -0.395274        1.000000        0.00005361        0.00004218        0.00006135        0.00002196
      94         -0.317867        1.000000        0.00151649        0.00200497        0.00896655        0.00129138
      95         -0.291748        1.000000        0.00184812        0.05610723        0.04965332        0.00165053
      96         -0.280126        1.000000        0.00501030        0.00789832        0.06917390        0.13907196
      97         -0.275838        1.000000        0.00448394        0.02047406        0.14683920        0.02609069
      98         -0.274409        1.000000        0.00369491        0.02981818        0.08259338        0.07512106
      99         -0.272228        1.000000        0.00285699        0.21050294        0.02726877        0.02183937
     100         -0.270148        1.000000        0.00260693        0.19501053        0.01479294        0.02617858
     101         -0.268661        1.000000        0.00296768        0.21505919        0.01243049        0.03506159
     102         -0.266660        1.000000        0.00401423        0.12211506        0.03208994        0.09160331
     103         -0.264839        1.000000        0.00544472        0.03370425        0.04316538        0.17560101
     104         -0.263321        1.000000        0.00075890        0.06351631        0.01605371        0.18088617
     105         -0.260932        1.000000        0.00020746        0.02276852        0.12496966        0.05178372
     106         -0.259743        1.000000        0.00059754        0.01799141        0.16841458        0.05834526
     107         -0.257928        1.000000        0.00046542        0.03843243        0.02923648        0.02132396
     108         -0.255301        1.000000        0.00033958        0.02917926        0.22405690        0.00601289
     109         -0.254708        1.000000        0.00029483        0.00705650        0.10124538        0.12316641
     110         -0.249966        1.000000        0.00046359        0.02499835        0.05252911        0.14774142
     111         -0.246719        1.000000        0.00022714        0.01855422        0.08853145        0.09009364
     112         -0.245283        1.000000        0.00051376        0.05112173        0.06260365        0.12867908
     113         -0.244204        1.000000        0.00038448        0.07466881        0.06587159        0.10152002
     114         -0.242285        1.000000        0.00020860        0.11552377        0.11148655        0.00784753
     115         -0.238821        1.000000        0.00137381        0.09328378        0.02134960        0.03726792
     116         -0.238234        1.000000        0.00073511        0.05560733        0.07354345        0.03154215
     117         -0.237358        1.000000        0.00072837        0.09057622        0.03923206        0.03180802
     118         -0.236294        1.000000        0.00184912        0.10837289        0.02550839        0.03197139
     119         -0.235544        1.000000        0.00273042        0.02703116        0.03414765        0.03939076
     120         -0.234106        1.000000        0.00401407        0.08580141        0.05132790        0.06259768
     121         -0.232350        1.000000        0.00514868        0.08419929        0.02173840        0.06090741
     122         -0.229861        1.000000        0.00822484        0.02273458        0.06244842        0.04695328
     123         -0.227212        1.000000        0.00634437        0.02239923        0.04642190        0.00536822
     124         -0.225873        1.000000        0.00338956        0.00992086        0.02196094        0.02905719
     125         -0.224500        1.000000        0.00424796        0.01181164        0.01148239        0.03004841
     126         -0.223134        1.000000        0.01016174        0.02429560        0.02545326        0.03493732
     127         -0.222832        1.000000        0.00304557        0.01404970        0.01543339        0.02307458
     128         -0.219558        1.000000        0.01588843        0.01616540        0.04073928        0.02390807
     129         -0.218636        1.000000        0.00178841        0.01279946        0.01170982        0.00344508
     130         -0.216325        1.000000        0.00173220        0.00351212        0.01362285        0.00313052
     131         -0.214682        1.000000        0.00261169        0.00542854        0.01032733        0.00413604
     132         -0.212824        1.000000        0.00128050        0.00693333        0.00447034        0.00259963
     133         -0.212428        1.000000        0.00635327        0.00742398        0.01069758        0.00624360
     134         -0.210749        1.000000        0.00101933        0.00273266        0.00122296        0.00485631
     135         -0.210264        1.000000        0.00383739        0.00493078        0.00798268        0.00644216
     136         -0.208586        1.000000        0.00193449        0.00643161        0.00201304        0.00336593
     137         -0.208314        1.000000        0.00270565        0.00320404        0.00367183        0.00393103
     138         -0.206741        1.000000        0.00148216        0.00397037        0.00339674        0.00201406
     139         -0.206004        1.000000        0.00100353        0.00338423        0.00266767        0.00192674
     140         -0.205670        1.000000        0.00381745        0.00571973        0.00530749        0.00952090
     141         -0.203618        1.000000        0.00310352        0.00105331        0.00448077        0.00451973
     142         -0.203001        1.000000        0.00046362        0.00228039        0.00128808        0.00079609
     143         -0.201776        1.000000        0.00373135        0.00531469        0.00134635        0.00114539
     144         -0.200858        1.000000        0.00234813        0.00323246        0.00106206        0.00166264
     145         -0.200056        1.000000        0.00105516        0.00084450        0.00046474        0.00162072
     146         -0.199885        1.000000        0.00471281        0.00073186        0.00300233        0.00395387
     147         -0.199511        1.000000        0.00383558        0.00271959        0.00260361        0.00369678
     148         -0.196726        1.000000        0.00629235        0.00103367        0.00146480        0.00252915
     149         -0.195681        1.000000        0.00168557        0.00057192        0.00041323        0.00108244
     150         -0.195167        1.000000        0.00640842        0.00105103        0.00176431        0.00234644
     151         -0.194451        1.000000        0.00240574        0.00158356        0.00088559        0.00164123
     152         -0.194341        1.000000        0.00246468        0.00064014        0.00039315        0.00104314
     153         -0.193717        1.000000        0.00587135        0.00124429        0.00191816        0.00195254
     154         -0.192852        1.000000        0.00533842        0.00128965        0.00364704        0.00253007
     155         -0.192324        1.000000        0.00130607        0.00036281        0.00077078        0.00122239
     156         -0.192082        1.000000        0.00400325        0.00062125        0.00133270        0.00167009
     157         -0.191616        1.000000        0.00530429        0.00191242        0.00350037        0.00070822
     158         -0.191088        1.000000        0.00109972        0.00058098        0.00065282        0.00043682
     159         -0.190693        1.000000        0.00324068        0.00061826        0.00118751        0.00083253
     160         -0.190648        1.000000        0.00180016        0.00023039        0.00170396        0.00071249
     161         -0.189853        1.000000        0.00153906        0.00021249        0.00080571        0.00042181
     162         -0.189631        1.000000        0.00653463        0.00230254        0.00267164        0.00120708
     163         -0.189176        1.000000        0.00086708        0.00034813        0.00141070        0.00079083
     164         -0.189019        1.000000        0.00347188        0.00067227        0.00143058        0.00061204
     165         -0.188886        1.000000        0.00398902        0.00072931        0.00099887        0.00075905
     166         -0.188677        1.000000        0.00590452        0.00083917        0.00184477        0.00219919
     167         -0.188245        1.000000        0.00120280        0.00072899        0.00045312        0.00036379
     168         -0.187981        1.000000        0.00129684        0.00097925        0.00048620        0.00061890
     169         -0.187591        1.000000        0.00398129        0.00046114        0.00048896        0.00124653
     170         -0.187337        1.000000        0.00833322        0.00167737        0.00187877        0.00619564
     171         -0.187074        1.000000        0.00246135        0.00039053        0.00068996        0.00270139
     172         -0.186563        1.000000        0.00315399        0.00067788        0.00103903        0.00077042
     173         -0.185909        1.000000        0.01072834        0.00212635        0.00231378        0.00409734
     174         -0.185161        1.000000        0.00823834        0.00125894        0.00286268        0.00159607
     175         -0.184684        1.000000        0.01087384        0.00142574        0.00222979        0.00221282
     176         -0.183925        1.000000        0.00358245        0.00027198        0.00041384        0.00083279
     177         -0.183509        1.000000        0.00335519        0.00050613        0.00106592        0.00055617
     178         -0.183323        1.000000        0.00528238        0.00102068        0.00071657        0.00054183
     179         -0.182772        1.000000        0.00662987        0.00058693        0.00144779        0.00151527
     180         -0.182573        1.000000        0.00274840        0.00054312        0.00090486        0.00109652
     181         -0.181987        1.000000        0.02116586        0.00149744        0.00548574        0.00159932
     182         -0.181920        1.000000        0.00147590        0.00075422        0.00033839        0.00008944
     183         -0.181209        1.000000        0.00929795        0.00168359        0.00065919        0.00127848
     184         -0.180942        1.000000        0.00731700        0.00062884        0.00097957        0.00185923
     185         -0.180616        1.000000        0.00428039        0.00015474        0.00036112        0.00055379
     186         -0.180242        1.000000        0.01774180        0.00173317        0.00213355        0.00182795
     187         -0.180115        1.000000        0.00148949        0.00037110        0.00046777        0.00046767
     188         -0.179799        1.000000        0.05043255        0.00544169        0.00283198        0.00656336
     189         -0.178799        1.000000        0.01114550        0.00060858        0.00065371        0.00114272
     190         -0.178260        1.000000        0.02171488        0.00243923        0.00166078        0.00243337
     191         -0.177942        1.000000        0.00444184        0.00050840        0.00030625        0.00034240
     192         -0.177590        1.000000        0.01737723        0.00149314        0.00156680        0.00245973
     193         -0.176446        1.000000        0.00510321        0.00014637        0.00060872        0.00068395
     194         -0.176036        1.000000        0.03271986        0.00075896        0.00222158        0.00200906
     195         -0.176015        0.000000        0.00783533        0.00063236        0.00033941        0.00140023
     196         -0.175172        0.000000        0.07901425        0.00147300        0.00632489        0.00625789
     197         -0.172777        0.000000        0.11591847        0.00261571        0.00532315        0.00618818
     198         -0.171448        0.000000        0.08935934        0.00400332        0.00165154        0.00324716
     199         -0.170358        0.000000        0.10453482        0.00139945        0.00117604        0.00337222
     200         -0.169688        0.000000        0.11484417        0.00899397        0.00378110        0.00417008
     201         -0.167533        0.000000        0.00728093        0.00107827        0.00066193        0.00047298
     202         -0.062037        0.000000        0.00637607        0.01579573        0.03018792        0.69103902
     203         -0.053511        0.000000        0.00769576        0.50418059        0.13367999        0.05658413
     204         -0.052715        0.000000        0.01328608        0.13757671        0.23786976        0.32225132
     205         -0.047197        0.000000        0.00678106        0.34835320        0.23548305        0.11870866
     206         -0.046980        0.000000        0.00842046        0.26669337        0.21889984        0.21300247
     207         -0.045333        0.000000        0.00760598        0.40465497        0.18812208        0.10729955
     208         -0.042507        0.000000        0.00351804        0.22388956        0.35709712        0.10638848
     209         -0.039048        0.000000        0.00210039        0.24675874        0.40749374        0.03775480
     210         -0.038702        0.000000        0.00344658        0.23865524        0.42658416        0.02256222
     211         -0.036823        0.000000        0.00138365        0.13860654        0.14474458        0.40751630
     212         -0.035791        0.000000        0.00250545        0.21001558        0.35740470        0.13135365
     213         -0.031875        0.000000        0.00028363        0.14877637        0.22419276        0.31924536
     214         -0.030257        0.000000        0.00006304        0.09018628        0.33638130        0.26622229
     215         -0.028209        0.000000        0.00024585        0.05029407        0.35844709        0.27502343
     216         -0.023056        0.000000        0.00032327        0.07465818        0.12771539        0.48394576
     217         -0.021826        0.000000        0.00098972        0.11026634        0.06624822        0.50779536
     218         -0.016964        0.000000        0.00026198        0.05320274        0.46261127        0.15861203
     219         -0.015307        0.000000        0.00042128        0.31386761        0.24855653        0.10832181
     220         -0.014867        0.000000        0.00067451        0.06249831        0.51650084        0.10052566
     221         -0.012507        0.000000        0.00040870        0.05553762        0.16543671        0.44885596
     222         -0.010607        0.000000        0.00040258        0.47689407        0.12781823        0.06902660
     223         -0.005030        0.000000        0.00021047        0.59153329        0.01858972        0.06610673
     224         -0.004257        0.000000        0.00069382        0.42483586        0.02682981        0.22520813
     225         -0.003557        0.000000        0.00107651        0.32568041        0.07171103        0.28026996
     226          0.087876        0.000000        0.00001404        0.00007793        0.00005661        0.00021467
     227          0.094006        0.000000        0.00000264        0.00009549        0.00000513        0.00002001
     228          0.094806        0.000000        0.00000135        0.00004401        0.00005576        0.00005834
     229          0.103055        0.000000        0.00000273        0.00004302        0.00001722        0.00005314
     230          0.106462        0.000000        0.00000247        0.00003269        0.00006801        0.00003279
     231          0.108990        0.000000        0.00000154        0.00012771        0.00002432        0.00000809
     232          0.112688        0.000000        0.00000006        0.00000389        0.00000701        0.00000823
     233          0.167382        0.000000        0.00002616        0.00001682        0.00000714        0.00040772
     234          0.170644        0.000000        0.00000384        0.00000648        0.00002511        0.00000807
     235          0.184090        0.000000        0.00000294        0.00001565        0.00000197        0.00003098
     236          0.208637        0.000000        0.00000396        0.00002329        0.00000084        0.00000601
     237          0.276050        0.000000        0.00001529        0.00003038        0.00000760        0.00015105
     238          0.283042        0.000000        0.00000032        0.00010800        0.00038798        0.00007615
     239          0.288376        0.000000        0.00000623        0.00012274        0.00011190        0.00001068
     240          0.289474        0.000000        0.00000094        0.00003393        0.00014310        0.00008161
     241          0.290470        0.000000        0.00000463        0.00001310        0.00005705        0.00006747
     242          0.295983        0.000000        0.00000135        0.00014197        0.00008252        0.00001164
     243          0.298309        0.000000        0.00000393        0.00005277        0.00005272        0.00001805
     244          0.300047        0.000000        0.00000379        0.00006054        0.00006620        0.00002309
     245          0.304654        0.000000        0.00002463        0.00004079        0.00001092        0.00022607
     246          0.304854        0.000000        0.00000361        0.00011398        0.00002906        0.00005836
     247          0.307557        0.000000        0.00000193        0.00007986        0.00009126        0.00001156
     248          0.319162        0.000000        0.00000147        0.00011268        0.00027163        0.00013536
     249          0.325138        0.000000        0.00000835        0.00004195        0.00002306        0.00004472
     250          0.326619        0.000000        0.00000919        0.00006995        0.00002964        0.00002450
     251          0.328272        0.000000        0.00000506        0.00002091        0.00006173        0.00000432
     252          0.345799        0.000000        0.00000276        0.00001827        0.00000949        0.00000541
     253          0.347526        0.000000        0.00000661        0.00001083        0.00011288        0.00002036
     254          0.454082        0.000000        0.00000066        0.00000578        0.00000828        0.00003313
     255          0.455676        0.000000        0.00000087        0.00000480        0.00000027        0.00000719
     256          0.457280        0.000000        0.00000018        0.00000487        0.00000488        0.00000037
     257          0.458362        0.000000        0.00000119        0.00002185        0.00003291        0.00000713
     258          0.458467        0.000000        0.00000053        0.00000219        0.00000725        0.00000239
     259          0.458586        0.000000        0.00000085        0.00001393        0.00000559        0.00000197