     100
 i =        1, E =      -575.3414434224, Lattice="31.79 0.0 0.0 0.0 31.09 0.0 0.0 0.0 30.389999999999997" Properties=species:S:1:pos:R:3 pbc="F F F"
  I        12.0399497128       12.4241515167        8.7354818674
  I        18.3381094810       12.4399372635        8.7273932868
  I        12.0432695902       18.6662593104        8.7337584600
  I        18.3383187945       18.6498956413        8.7278914480
  I        12.1549194128        9.3148221067       12.1496711608
  I        18.4393236225        9.3107988204       12.1523876525
  I         9.1383381044       12.4271066440       11.6117678210
  I        12.1963480263       12.4347780765       15.0636355031
  I        12.1514990590       15.5427199431       12.1543173346
  I        15.4087868925       12.4262232747       11.6178507544
  I        18.4764052087       12.4321152125       15.0654137953
  I        18.4321923400       15.5438976001       12.1586869807
  I        21.6934708501       12.4277560240       11.6297513991
  I         9.1359696474       18.6671221300       11.6143261334
  I        12.1958671862       18.6534776650       15.0672699565
  I        12.1502432164       21.7779940766       12.1484601831
  I        15.4077184664       18.6632592849       11.6160637588
  I        18.4767524052       18.6581177237       15.0680897877
  I        18.4403910850       21.7815964521       12.1526633602
  I        21.6974843748       18.6635828677       11.6291206072
  I        12.3022802539        9.3051448942       18.5079943306
  I        18.5886046676        9.2999941387       18.4998643071
  I         9.2814152991       12.4284589946       17.9781874239
  I        12.3528234064       12.4171580492       21.4028023292
  I        12.2985162289       15.5469768737       18.5097155543
  I        15.5649983080       12.4309333030       17.9687412759
  I        18.6352998880       12.4395120155       21.4100197692
  I        18.5817300371       15.5467424102       18.5011946026
  I        21.8528105630       12.4347688430       17.9704934248
  I         9.2848532320       18.6610531998       17.9777119385
  I        12.3531439885       18.6727397676       21.4009544062
  I        12.3034836482       21.7831620325       18.5070192160
  I        15.5642144484       18.6591917891       17.9698096448
  I        18.6348323781       18.6508743195       21.4083959339
  I        18.5885772538       21.7886725912       18.4993531071
  I        21.8498451519       18.6554634248       17.9706973422
 Pb        12.2827640193       12.3569898635       11.8501661250
 Pb        18.6925013235       12.3436200299       11.8327894122
 Pb        12.2855035610       18.7302151149       11.8496707594
 Pb        18.6905102669       18.7452357695       11.8321628280
 Pb        12.4294525642       12.3606635051       18.3121236138
 Pb        18.8353894518       12.3536153555       18.3244020965
 Pb        12.4266077526       18.7310311072       18.3135475142
 Pb        18.8361995732       18.7359278958       18.3250718372
  C        15.0413061268       15.5451140552        8.5569549272
  C        15.1840165788        9.2923037061       14.9071716285
  C         8.8864830951       15.5451330262       14.9092088531
  C        15.1848021044       15.5450695542       14.9111785217
  C        21.4849462336       15.5450181232       14.9119157125
  C        15.1839240890       21.7978400969       14.9072082079
  C        15.3441659504       15.5450505492       21.2816133487
  N        16.4518907600       15.5450577616        9.1735447460
  N        16.5894778811        9.2898455039       15.5347782960
  N        10.2939230407       15.5451414185       15.5273248947
  N        16.5916738882       15.5451305389       15.5281382006
  N        22.8963753603       15.5451378829       15.5367852836
  N        16.5894051415       21.8001914517       15.5345644868
  N        16.7580662626       15.5452545704       21.8931608037
  H        15.1419562401       15.5452099599        7.4962669909
  H        14.5202048220       16.4188560210        8.8769345910
  H        14.5203237031       14.6713951164        8.8770658992
  H        16.9769585643       16.4054628649        8.8829360418
  H        16.9771908045       14.6848974137        8.8828483447
  H        16.3936975914       15.5451602798       10.2121626893
  H        15.2867082701        9.3012423188       13.8463301054
  H        14.6728926500       10.1690937979       15.2344852948
  H        14.6665403922        8.4213976468       15.2363285838
  H        17.1264651048       10.1399402336       15.2362606397
  H        17.1307414814        8.4598954964       15.2268026231
  H        16.5490572105        9.3042189731       16.5783050618
  H         8.9936471302       15.5449100966       13.8488069246
  H         8.3785590387       16.4236320932       15.2369290972
  H         8.3785596244       14.6666091079       15.2368377209
  H        10.8225910699       16.3998365464       15.2347376343
  H        10.8225078970       14.6905940202       15.2346108557
  H        10.2397539539       15.5451395562       16.5685992021
  H        15.2877761721       15.5450658493       13.8519117423
  H        14.6747758797       16.4231038797       15.2340581773
  H        14.6748224986       14.6670032036       15.2340591162
  H        17.1246378471       16.3982782460       15.2364016499
  H        17.1247210994       14.6920026438       15.2364127271
  H        16.5427489982       15.5449545560       16.5691575148
  H        21.5821818322       15.5452263337       13.8500890635
  H        20.9749736032       16.4245302812       15.2355635832
  H        20.9750271720       14.6655378584       15.2356550538
  H        23.4133725853       16.3959147300       15.2325454575
  H        23.4134233877       14.6943981469       15.2325945342
  H        22.8173449908       15.5450406102       16.5782310145
  H        15.2871805172       21.7889688652       13.8464436712
  H        14.6663891626       22.6686796114       15.2365095486
  H        14.6727891756       20.9210638827       15.2346396940
  H        17.1305494702       22.6303496951       15.2270425242
  H        17.1267978138       20.9501754199       15.2364128754
  H        16.5491396226       21.7861270670       16.5781363076
  H        15.4421082023       15.5450610510       20.2209186491
  H        14.8232058693       16.4238164493       21.5866781527
  H        14.8231454677       14.6663400933       21.5866109300
  H        17.2820124879       16.4047782349       21.5891627160
  H        17.2816875523       14.6856903244       21.5891739374
  H        16.6874445552       15.5450725046       22.9288272788
     100
 i =        2, E =      -575.3569807418, Lattice="31.79 0.0 0.0 0.0 31.09 0.0 0.0 0.0 30.389999999999997" Properties=species:S:1:pos:R:3 pbc="F F F"
  I        12.0399909202       12.4287239283        8.7599678372
  I        18.3314034393       12.4630370556        8.7449510115
  I        12.0448167314       18.6623783468        8.7571831346
  I        18.3310018384       18.6263509070        8.7446834089
  I        12.1670282301        9.3216808250       12.1409781620
  I        18.4370339621        9.3135209260       12.1472730466
  I         9.1478409145       12.4334443605       11.6148309503
  I        12.1970409350       12.4577914298       15.0640000714
  I        12.1682584095       15.5382376851       12.1525464132
  I        15.3866734344       12.4357871835       11.6244990449
  I        18.4528903315       12.4443624244       15.0651240520
  I        18.4228449355       15.5424959676       12.1627834853
  I        21.6931390827       12.4375423321       11.6497835785
  I         9.1442612758       18.6619256719       11.6171183912
  I        12.1984999497       18.6265517065       15.0692704851
  I        12.1617948032       21.7728252575       12.1385350001
  I        15.3888668310       18.6522051239       11.6196955070
  I        18.4522574918       18.6453311359       15.0733607947
  I        18.4396337923       21.7801278915       12.1482640905
  I        21.6994476511       18.6549822093       11.6483500581
  I        12.3162644891        9.2966736244       18.4960464552
  I        18.5877760158        9.2906807988       18.4815100421
  I         9.2895104820       12.4401112632       17.9836305258
  I        12.3600699938       12.4173960682       21.3913473640
  I        12.3131877102       15.5471448509       18.5062608499
  I        15.5483442146       12.4453721489       17.9622734939
  I        18.6257507545       12.4691072213       21.4070363024
  I        18.5730237106       15.5524302842       18.4852177225
  I        21.8501846668       12.4548431219       17.9659211269
  I         9.2961448635       18.6487238115       17.9833097594
  I        12.3624813676       18.6737300997       21.3891129056
  I        12.3195387094       21.7899266297       18.4958685465
  I        15.5516620389       18.6432754949       17.9652487885
  I        18.6244387764       18.6231166559       21.4020452497
  I        18.5889506462       21.7956916800       18.4804412510
  I        21.8438461887       18.6365319011       17.9669724867
 Pb        12.2356621370       12.2999590285       11.8020573438
 Pb        18.7523969809       12.2795349930       11.7731176410
 Pb        12.2329975078       18.7915765389       11.8055194563
 Pb        18.7497780877       18.8096907379       11.7711902876
 Pb        12.3821781012       12.3042700163       18.3712072873
 Pb        18.8906645694       12.2864024408       18.3929054527
 Pb        12.3703832923       18.7914101615       18.3706328140
 Pb        18.8876363206       18.7977266921       18.3967122400
  C        14.9984884288       15.5450426430        8.5325168228
  C        15.1502947653        9.2927470126       14.8944834467
  C         8.8513425388       15.5451375571       14.8888247865
  C        15.1550245553       15.5451617803       14.8914120924
  C        21.4419474608       15.5451525008       14.8876135739
  C        15.1506667620       21.7971773510       14.8944625720
  C        15.3078574726       15.5452980392       21.2516992207
  N        16.4314832379       15.5452063661        9.1736928524
  N        16.5926846308        9.2988638695       15.5224436293
  N        10.2834374133       15.5450903917       15.5248554419
  N        16.5874436938       15.5449502234       15.5254483328
  N        22.8851650641       15.5451454077       15.5329368721
  N        16.5928248243       21.7913827265       15.5226797905
  N        16.7467773784       15.5450824582       21.8912874685
  H        15.1411444325       15.5451566732        7.4858404914
  H        14.5209530099       16.4233364001        8.8807969337
  H        14.5209499829       14.6667330504        8.8808162743
  H        16.9927251811       16.3918596877        8.8976827374
  H        16.9924913409       14.6984083675        8.8976840534
  H        16.4167074447       15.5449777587       10.2119529131
  H        15.2824408688        9.3005617985       13.8447059361
  H        14.6657364463       10.1705815962       15.2330469262
  H        14.6525130471        8.4224639790       15.2292537140
  H        17.1425529887       10.1491115485       15.2400889798
  H        17.1443931854        8.4697950778       15.2373094664
  H        16.5673659234        9.2991702187       16.5699223897
  H         8.9842577392       15.5448157754       13.8399651061
  H         8.3711694535       16.4229473682       15.2342255011
  H         8.3711538118       14.6673411633       15.2341929033
  H        10.8324252131       16.3925971427       15.2401337339
  H        10.8321385537       14.6977132827       15.2398714319
  H        10.2464373305       15.5451775317       16.5664817472
  H        15.2805544962       15.5449627137       13.8439413253
  H        14.6704344313       16.4208047683       15.2331575657
  H        14.6708099646       14.6693705290       15.2331798147
  H        17.1383263474       16.3929050553       15.2418187984
  H        17.1384948636       14.6971762996       15.2415802543
  H        16.5547129628       15.5448589964       16.5672905957
  H        21.5811655087       15.5451104840       13.8384493601
  H        20.9736885294       16.4290997208       15.2393435270
  H        20.9739158281       14.6610072837       15.2393487916
  H        23.4249496285       16.3852634073       15.2499844208
  H        23.4249871786       14.7049154093       15.2501899008
  H        22.8198089240       15.5446942840       16.5743370249
  H        15.2822455387       21.7897326303       13.8446925698
  H        14.6523910765       22.6671909138       15.2294613432
  H        14.6654206514       20.9198550971       15.2332752314
  H        17.1442447146       22.6204872243       15.2369882200
  H        17.1425538121       20.9411189152       15.2400969747
  H        16.5668732457       21.7909142698       16.5700571215
  H        15.4437990641       15.5451128215       20.2045868758
  H        14.8297091162       16.4253408609       21.5959937298
  H        14.8302398977       14.6651118121       21.5961178519
  H        17.3017589496       16.3945070429       21.6020483905
  H        17.3013735994       14.6958448180       21.6019820765
  H        16.7199910577       15.5452070383       22.9245036110
     100
 i =        3, E =      -575.3647367210, Lattice="31.79 0.0 0.0 0.0 31.09 0.0 0.0 0.0 30.389999999999997" Properties=species:S:1:pos:R:3 pbc="F F F"
  I        12.0478559367       12.4318796888        8.7654650945
  I        18.3248020252       12.4817629133        8.7487098236
  I        12.0519792318       18.6595779301        8.7616542307
  I        18.3252695602       18.6072770996        8.7483830147
  I        12.1783467893        9.3116184683       12.1324863079
  I        18.4344747530        9.3013443091       12.1402570690
  I         9.1436753273       12.4409182981       11.6257203780
  I        12.1959540586       12.4788882370       15.0648156345
  I        12.1820574719       15.5342678040       12.1496684838
  I        15.3648486008       12.4465146147       11.6301808851
  I        18.4290488484       12.4535274100       15.0676352606
  I        18.4098732429       15.5444965420       12.1632439736
  I        21.7157990060       12.4463678110       11.6681352760
  I         9.1379828233       18.6550525665       11.6274122858
  I        12.2037468087       18.6007329399       15.0711628237
  I        12.1729938787       21.7868992412       12.1292460351
  I        15.3711303670       18.6415283657       11.6277295305
  I        18.4284778781       18.6363419183       15.0774347019
  I        18.4379951009       21.7904421928       12.1425528357
  I        21.7184589344       18.6467600419       11.6671045566
  I        12.3319430289        9.2784609811       18.4804456387
  I        18.5865519555        9.2699873798       18.4637431900
  I         9.2951096647       12.4531175075       17.9873176261
  I        12.3665119739       12.4219726538       21.3958437662
  I        12.3275192224       15.5450323817       18.5034848111
  I        15.5260630430       12.4564828327       17.9531064335
  I        18.6187876194       12.4967418246       21.4182129251
  I        18.5658730457       15.5580351449       18.4683476614
  I        21.8617959802       12.4726215696       17.9619415483
  I         9.2997927808       18.6357522293       17.9899946041
  I        12.3698989595       18.6686840043       21.3917956520
  I        12.3358246344       21.8102347839       18.4802260572
  I        15.5349771282       18.6294241878       17.9576540814
  I        18.6169954735       18.5978158497       21.4119998481
  I        18.5897446788       21.8113296797       18.4616396058
  I        21.8501856932       18.6198886826       17.9636689239
 Pb        12.2051534978       12.2715148700       11.7777573255
 Pb        18.7849909025       12.2476841217       11.7445885547
 Pb        12.2012755097       18.8215042835       11.7812091539
 Pb        18.7837660950       18.8406374353       11.7375067026
 Pb        12.3520985492       12.2680717849       18.4064859402
 Pb        18.9226888648       12.2515221290       18.4339834398
 Pb        12.3363337117       18.8323022210       18.4056462702
 Pb        18.9150735269       18.8307480351       18.4415707486
  C        15.0211262697       15.5451255964        8.5474126517
  C        15.1540613889        9.2972215843       14.8916359074
  C         8.8530708981       15.5451099525       14.8909859167
  C        15.1581512159       15.5449968248       14.8932785936
  C        21.4477269689       15.5451047352       14.8901792159
  C        15.1538321723       21.7928827562       14.8916624604
  C        15.3268327793       15.5452294880       21.2597890364
  N        16.4687577476       15.5449917916        9.1854819154
  N        16.6074884252        9.2996536666       15.5306792879
  N        10.2970387441       15.5449360653       15.5277053478
  N        16.6025542001       15.5448755112       15.5283015075
  N        22.9045669372       15.5450403584       15.5434840983
  N        16.6072277122       21.7904964047       15.5305574453
  N        16.7814935939       15.5452558985       21.8980234640
  H        15.1225083549       15.5451331032        7.4928272304
  H        14.5077239390       16.4159687212        8.8677851629
  H        14.5078600950       14.6742065069        8.8676767894
  H        16.9958466546       16.4076583991        8.8930822981
  H        16.9957974129       14.6825695335        8.8928212225
  H        16.4035802161       15.5451490081       10.2235339992
  H        15.2683951922        9.3015978438       13.8372741745
  H        14.6534844849       10.1708780266       15.2275911275
  H        14.6427358686        8.4282062413       15.2230544253
  H        17.1390652970       10.1589400917       15.2346511902
  H        17.1502297719        8.4704144732       15.2272802071
  H        16.5743189375        9.3026749615       16.5766862157
  H         8.9684358245       15.5448142489       13.8367029898
  H         8.3548316772       16.4206310573       15.2235088172
  H         8.3547887753       14.6696836891       15.2236757944
  H        10.8331905963       16.3989606347       15.2366689778
  H        10.8328072102       14.6908952441       15.2364040754
  H        10.2377128174       15.5450232073       16.5681268016
  H        15.2687362541       15.5450707164       13.8403412658
  H        14.6592289925       16.4194458966       15.2252832852
  H        14.6595079712       14.6706055270       15.2255103861
  H        17.1408139969       16.3988812284       15.2378989177
  H        17.1409995038       14.6911438490       15.2374567201
  H        16.5531841619       15.5447510033       16.5690649057
  H        21.5627467456       15.5450770616       13.8352444078
  H        20.9584414799       16.4247743035       15.2283409482
  H        20.9586680232       14.6652837096       15.2283757586
  H        23.4261857826       16.3933723466       15.2508254964
  H        23.4261546844       14.6966233676       15.2508401024
  H        22.8032868264       15.5445698493       16.5826774402
  H        15.2682732729       21.7885271058       13.8373206863
  H        14.6425474319       22.6618241857       15.2234209906
  H        14.6534609072       20.9191950519       15.2278602522
  H        17.1501094439       22.6196830175       15.2272449204
  H        17.1389767369       20.9311457676       15.2350990090
  H        16.5736703228       21.7872757963       16.5765015132
  H        15.4294200748       15.5453620395       20.2055839210
  H        14.8216633866       16.4199898197       21.5840150362
  H        14.8222557027       14.6705215009       21.5845041826
  H        17.3076506018       16.4077675434       21.5940127037
  H        17.3071690316       14.6825631258       21.5942237156
  H        16.7150598099       15.5451885857       22.9305804013
     100
 i =        4, E =      -575.3694133308, Lattice="31.79 0.0 0.0 0.0 31.09 0.0 0.0 0.0 30.389999999999997" Properties=species:S:1:pos:R:3 pbc="F F F"
  I        12.0605527555       12.4342988953        8.7529421039
  I        18.3197915770       12.4931333134        8.7381920416
  I        12.0619029215       18.6574297546        8.7478368254
  I        18.3215983259       18.5956801318        8.7359833766
  I        12.1886024795        9.2928714685       12.1254439511
  I        18.4331780879        9.2817436575       12.1321698934
  I         9.1301110934       12.4496082363       11.6421105875
  I        12.1954243733       12.4955791438       15.0619009623
  I        12.1883337059       15.5317516208       12.1459794074
  I        15.3472256511       12.4563685127       11.6355318804
  I        18.4065514257       12.4577878406       15.0712571911
  I        18.3997691456       15.5484250280       12.1645565083
  I        21.7482378830       12.4535418162       11.6833882983
  I         9.1212854630       18.6463241034       11.6421036590
  I        12.2106768723       18.5812338727       15.0718640162
  I        12.1831249404       21.8096619635       12.1225225538
  I        15.3551440190       18.6301586533       11.6386848984
  I        18.4069643503       18.6329608184       15.0802302673
  I        18.4373172790       21.8071401991       12.1359548469
  I        21.7470569441       18.6394398247       11.6832025477
  I        12.3473497133        9.2584084635       18.4621343657
  I        18.5881414079        9.2487592446       18.4515801619
  I         9.2997446172       12.4660640360       17.9917238129
  I        12.3724417241       12.4302255763       21.4117429013
  I        12.3395638874       15.5423701317       18.5025286982
  I        15.5047166551       12.4651619635       17.9441037707
  I        18.6153390792       12.5151667793       21.4392515766
  I        18.5597747487       15.5606610269       18.4517495179
  I        21.8793877596       12.4863441326       17.9598849579
  I         9.2962868133       18.6232391784       17.9962910217
  I        12.3758352944       18.6584123709       21.4076366431
  I        12.3513065532       21.8354457655       18.4609918972
  I        15.5161427825       18.6185467800       17.9491950280
  I        18.6131611019       18.5821133408       21.4370835741
  I        18.5927594181       21.8300811258       18.4487284498
  I        21.8653145761       18.6072813260       17.9618010932
 Pb        12.1921348939       12.2646607021       11.7772982697
 Pb        18.7954662625       12.2407900129       11.7455564609
 Pb        12.1912527520       18.8292576017       11.7766856275
 Pb        18.7958560062       18.8472974151       11.7343860504
 Pb        12.3363989705       12.2461921469       18.4216458398
 Pb        18.9347306090       12.2431042099       18.4482666145
 Pb        12.3240329322       18.8571429356       18.4196881912
 Pb        18.9234696581       18.8367568271       18.4561010983
  C        15.0107070197       15.5451030709        8.5418193466
  C        15.1544661489        9.2985757109       14.8910965972
  C         8.8497203368       15.5451045233       14.8889166301
  C        15.1589581783       15.5447993191       14.8943717755
  C        21.4483793769       15.5449804335       14.8910216720
  C        15.1541560242       21.7916086913       14.8912080270
  C        15.3288590486       15.5452654022       21.2633272905
  N        16.4560583054       15.5450558196        9.1772785597
  N        16.6079443385        9.3021602055       15.5309337055
  N        10.2923551180       15.5447493586       15.5248976076
  N        16.6035638924       15.5448874943       15.5251311293
  N        22.9044716995       15.5449558567       15.5485778391
  N        16.6076750243       21.7878101695       15.5308059135
  N        16.7843486111       15.5453989475       21.8953125833
  H        15.1263150154       15.5452094936        7.4844337757
  H        14.5091485557       16.4237919742        8.8735232392
  H        14.5092402773       14.6664249684        8.8733517338
  H        16.9975486206       16.4020926222        8.9016295458
  H        16.9975385764       14.6883217079        8.9013623866
  H        16.4049794758       15.5451870587       10.2158608537
  H        15.2676149980        9.3063472047       13.8323237908
  H        14.6503904555       10.1762461933       15.2248660412
  H        14.6419565311        8.4269969984       15.2252807651
  H        17.1340161944       10.1636260160       15.2329711574
  H        17.1514993456        8.4766973057       15.2171890111
  H        16.5804719225        9.3081499086       16.5753212678
  H         8.9666229518       15.5446858277       13.8305540871
  H         8.3476145504       16.4237389769       15.2208164015
  H         8.3476050926       14.6665370898       15.2210577887
  H        10.8295817255       16.3984737378       15.2366176300
  H        10.8287795689       14.6904323975       15.2363901312
  H        10.2323443383       15.5445830286       16.5642669864
  H        15.2688249661       15.5450222061       13.8369050477
  H        14.6550052305       16.4223235473       15.2228916325
  H        14.6549028323       14.6674026155       15.2230305680
  H        17.1385287119       16.4000553094       15.2358372492
  H        17.1385487939       14.6899324407       15.2352441513
  H        16.5534350412       15.5446107073       16.5650020777
  H        21.5605598294       15.5450967657       13.8312005205
  H        20.9481508627       16.4255368415       15.2236173778
  H        20.9482771455       14.6644189490       15.2237068302
  H        23.4239796727       16.3945331433       15.2528093847
  H        23.4238040648       14.6953054662       15.2526102827
  H        22.7961795689       15.5444258292       16.5856806004
  H        15.2673864470       21.7836798966       13.8324329034
  H        14.6416358320       22.6631072061       15.2255629447
  H        14.6504328162       20.9137883518       15.2250569574
  H        17.1513282055       22.6133051064       15.2173238795
  H        17.1338542149       20.9261280220       15.2334451717
  H        16.5795648378       21.7819108162       16.5750945486
  H        15.4317183854       15.5453598963       20.2041335527
  H        14.8227569789       16.4261206586       21.5810929975
  H        14.8231788853       14.6644070888       21.5814338830
  H        17.3118041338       16.4054803349       21.5921536732
  H        17.3113002751       14.6846375169       21.5926029702
  H        16.7146925319       15.5452409576       22.9279380691
     100
 i =        5, E =      -575.3753662987, Lattice="31.79 0.0 0.0 0.0 31.09 0.0 0.0 0.0 30.389999999999997" Properties=species:S:1:pos:R:3 pbc="F F F"
  I        12.0987557358       12.4403490488        8.7248984962
  I        18.3084525367       12.5250221836        8.7179326127
  I        12.0927204300       18.6528390689        8.7138634963
  I        18.3112309329       18.5637273356        8.7061846174
  I        12.2183841443        9.2501085495       12.1030695672
  I        18.4305970423        9.2321514100       12.1067763490
  I         9.0953782872       12.4749586553       11.6946110030
  I        12.1938974867       12.5442111871       15.0468121725
  I        12.2039387416       15.5266196011       12.1349281030
  I        15.2978653101       12.4825903311       11.6533473751
  I        18.3402972809       12.4656103183       15.0818493497
  I        18.3709088357       15.5605650461       12.1656093106
  I        21.8247706257       12.4732748482       11.7301366850
  I         9.0790762243       18.6203774964       11.6888035466
  I        12.2318830809       18.5259508375       15.0697494257
  I        12.2125022962       21.8615021661       12.1014133647
  I        15.3120911868       18.5940716200       11.6680825758
  I        18.3433671452       18.6288889381       15.0870377336
  I        18.4364296082       21.8498869868       12.1148519643
  I        21.8170758591       18.6182796953       11.7321901384
  I        12.3930368082        9.2038616892       18.4057542119
  I        18.5966317018        9.2019863051       18.4199010119
  I         9.3115413677       12.5040793536       18.0074563901
  I        12.3902923217       12.4552860729       21.4540290085
  I        12.3726668674       15.5366891132       18.5004558199
  I        15.4467082614       12.4878175143       17.9183493531
  I        18.6091220152       12.5613189932       21.4916816065
  I        18.5411413209       15.5633114707       18.4037862967
  I        21.9216533038       12.5251492283       17.9564438178
  I         9.2883948543       18.5864936182       18.0169158172
  I        12.3935605544       18.6285317691       21.4487243263
  I        12.3973395181       21.9019749784       18.4021178680
  I        15.4581392518       18.5870536619       17.9249766385
  I        18.6047408386       18.5426542550       21.5049222434
  I        18.6037017047       21.8756323683       18.4147815501
  I        21.9039669888       18.5708246468       17.9577666015
 Pb        12.1535896139       12.2379332665       11.7700419340
 Pb        18.8374133776       12.2216858231       11.7459290363
 Pb        12.1548278468       18.8614247741       11.7608234670
 Pb        18.8418990612       18.8662058534       11.7287630831
 Pb        12.2969371023       12.1836758832       18.4692537233
 Pb        18.9704684609       12.2212099912       18.4904868292
 Pb        12.2920780339       18.9284162783       18.4625262007
 Pb        18.9538916639       18.8528945254       18.4998910788
  C        15.0251953234       15.5452606437        8.5429645160
  C        15.1475173728        9.3052958833       14.8899328490
  C         8.8356428638       15.5449585161       14.8771660237
  C        15.1516430762       15.5445571319       14.8846678063
  C        21.4260706953       15.5449963151       14.8806995030