     568
 i =       67, E =     -3253.3355406346
  I        12.0463759100       12.0710706000        8.7066228000
  I        18.3426133100       12.0710706000        8.7066228000
  I        12.0463867200       18.3191621200        8.7066228000
  I        18.3426241300       18.3191621200        8.7066228000
  I        12.1436422800        8.9472001700       12.1542736100
  I        18.4398796700        8.9472001700       12.1542736100
  I         9.1204392900       12.0710604000       11.6166030600
  I        12.1964949600       12.0710483200       15.0644445800
  I        12.1436531000       15.1951048300       12.1542736100
  I        15.4168655400       12.0710604000       11.6166030600
  I        18.4927323700       12.0710483200       15.0644445800
  I        18.4398904800       15.1951048300       12.1542736100
  I        21.7131023600       12.0710604000       11.6166030600
  I         9.1204501100       18.3191519200       11.6166030600
  I        12.1965057800       18.3191398400       15.0644445800
  I        12.1436639100       21.4430086700       12.1542736100
  I        15.4168763600       18.3191519200       11.6166030600
  I        18.4927431800       18.3191398400       15.0644445800
  I        18.4399013000       21.4430086700       12.1542736100
  I        21.7131131800       18.3191519200       11.6166030600
  I        12.2937568200        8.9471778900       18.5119041300
  I        18.5899942100        8.9471778900       18.5119041300
  I         9.2705538600       12.0710381200       17.9742347200
  I        12.3466095100       12.0710260400       21.4220756500
  I        12.2937676400       15.1950825500       18.5119041300
  I        15.5669801100       12.0710381200       17.9742347200
  I        18.6428469200       12.0710260400       21.4220756500
  I        18.5900050200       15.1950825500       18.5119041300
  I        21.8632169300       12.0710381200       17.9742347200
  I         9.2705646700       18.3191296400       17.9742347200
  I        12.3466203300       18.3191175600       21.4220756500
  I        12.2937784500       21.4429863900       18.5119041300
  I        15.5669909300       18.3191296400       17.9742347200
  I        18.6428577300       18.3191175600       21.4220756500
  I        18.5900158400       21.4429863900       18.5119041300
  I        21.8632277400       18.3191296400       17.9742347200
 Pb        12.3334546300       12.0710594200       11.8971682900
 Pb        18.6296925800       12.0710594200       11.8971682900
 Pb        12.3334654500       18.3191509400       11.8971682900
 Pb        18.6297034000       18.3191509400       11.8971682900
 Pb        12.4835736800       12.0710371400       18.2549898000
 Pb        18.7798116300       12.0710371400       18.2549898000
 Pb        12.4835845000       18.3191286600       18.2549898000
 Pb        18.7798224500       18.3191286600       18.2549898000
  C        15.0551850300       15.1951174200        8.5622395700
  C        15.2052887600        8.9471904800       14.9198703800
  C         8.9090624800       15.1950951400       14.9198703800
  C        15.2052995800       15.1950951400       14.9198703800
  C        21.5017255500       15.1950951400       14.9198703800
  C        15.2053103900       21.4429989800       14.9198703800
  C        15.3554141400       15.1950728600       21.2775020200
  N        16.4194647300       15.1951153000        9.1674284600
  N        16.5695729700        8.9471883600       15.5252502400
  N        10.2733461200       15.1950930200       15.5252502400
  N        16.5695837900       15.1950930200       15.5252502400
  N        22.8660097800       15.1950930200       15.5252502400
  N        16.5695946000       21.4431845400       15.5252502400
  N        16.7196983200       15.1950707400       21.8828807400
  H        15.1579010900       15.1951212300        7.4725942900
  H        14.5257863200       16.0946353800        8.8925855400
  H        14.5257832100       14.2955960300        8.8925855400
  H        16.9637988400       16.0361543200        8.8855282900
  H        16.9639850800       14.3542642600        8.8855282900
  H        16.3987511400       15.1951116700       10.2021432900
  H        15.3080093300        8.9471943000       13.8304159300
  H        14.6758900500        9.8467089800       15.2502163200
  H        14.6758869400        8.0474819600       15.2502163200
  H        17.1139025800        9.7880408100       15.2431593600
  H        17.1140888200        8.1061504600       15.2431593600
  H        16.5488548700        8.9471847300       16.5597740700
  H         9.0115941700       15.1950989600       13.8304159300
  H         8.3796637500       16.0946131000       15.2502163200
  H         8.3796606400       14.2955737600       15.2502163200
  H        10.8176765800       16.0361320400       15.2431593600
  H        10.8176736700       14.3542419800       15.2431593600
  H        10.2526285800       15.1950893900       16.5597740700
  H        15.3080201400       15.1950989600       13.8304159300
  H        14.6759008700       16.0946131000       15.2502163200
  H        14.6758977500       14.2955737600       15.2502163200
  H        17.1139133900       16.0361320400       15.2431593600
  H        17.1140996400       14.3542419800       15.2431593600
  H        16.5488656800       15.1950893900       16.5597740700
  H        21.6042580900       15.1950989600       13.8304159300
  H        20.9721388200       16.0946131000       15.2502163200
  H        20.9723237300       14.2955737600       15.2502163200
  H        23.4103393600       16.0361320400       15.2431593600
  H        23.4103364500       14.3542419800       15.2431593600
  H        22.8451036500       15.1950893900       16.5597740700
  H        15.3080309600       21.4430027900       13.8304159300
  H        14.6759116800       22.3425180400       15.2502163200
  H        14.6759085700       20.5434775900       15.2502163200
  H        17.1139242100       22.2840370100       15.2431593600
  H        17.1141104500       20.6021463600       15.2431593600
  H        16.5488765000       21.4429932300       16.5597740700
  H        15.4581347000       15.1950766800       20.1880470000
  H        14.8260199300       16.0945908200       21.6080383900
  H        14.8260168200       14.2955514800       21.6080383900
  H        17.2640324400       16.0361097700       21.6009808500
  H        17.2642186800       14.3542197100       21.6009808500
  H        16.6989802500       15.1950671200       22.9174057100
  H         5.2934099587       12.0057364096       10.5379135032
  O         5.5872303501       11.0547583249       10.5631478193
  H         6.5823082439       11.0953145327       10.5515369529
  H         5.7929639421       10.8403198316       13.6194800745
  O         6.8028710249       10.6730245684       13.7326180399
  H         7.2206679737       11.5925182160       13.7092878479
  H         5.7587286363       12.1636092545       16.7145667323
  O         6.0819233394       11.1579723379       16.6785201602
  H         7.0893218743       11.2542120313       16.5779831046
  H         5.6931708333       11.3164073951       19.9248784606
  O         6.4691583519       10.7375191654       20.1169199085
  H         7.2177554065       11.2708347494       19.8508594825
  H         5.8138920439       14.9005910234       10.3805583438
  O         6.0258075400       13.8658099770       10.3161337828
  H         6.9293412133       13.8748253379        9.9222164607
  H         5.2746752596       14.2288693127       14.0877372911
  O         6.0106113971       13.7101182674       13.4996670282
  H         6.4061677419       14.3683965269       12.8796619382
  H         5.5110888653       14.6262915553       16.6143288215
  O         5.8406889445       13.7092651687       17.0479808924
  H         6.3484505882       13.9153198587       17.9022812622
  H         6.0765500159       14.9604871712       19.7760420201
  O         6.4908847532       14.0533020895       19.5986487829
  H         7.2963156154       14.0334100072       20.0652966463
  H         5.6226327514       17.4463675792       10.3941389999
  O         6.0860778911       16.5520398152       10.2102252001
  H         6.9097187871       16.7555741819        9.7509777561
  H         5.8366949577       17.5810047216       13.8017537833
  O         6.3580886969       16.7629135464       13.5086661992
  H         7.0720590253       17.1528577848       12.9727841663
  H         5.6476282067       17.6501641557       16.6535093924
  O         6.0485417650       16.7425423206       16.7718205994
  H         6.8903044488       16.9322615474       17.3188424000
  H         5.7499729390       17.5137690567       20.0948844531
  O         6.2289936319       16.6360663186       20.1602224157
  H         7.1240668911       16.8381388942       20.5583368594
  H         5.3067546790       20.2156481192       10.3923450617
  O         5.7935165806       19.3173407677       10.2405870821
  H         6.7281845798       19.5658971379       10.4823808781
  H         5.6184781297       20.6584013094       13.8584673663
  O         6.2726258620       19.9456978192       13.4859690199
  H         7.1678758975       20.4231029863       13.4332481593
  H         5.5360268854       20.6179456007       16.5512732078
  O         6.0319169599       19.8371831115       16.9421142229
  H         6.9779844713       20.0363418073       16.7474070778
  H         5.7060199479       20.1693705597       19.4427693679
  O         6.2321099121       19.6804935826       20.0953319863
  H         7.2146484501       19.7982190565       19.8784206708
  H         6.3588987606        8.6345610473        7.8552557307
  O         7.3848545489        8.4752445022        7.7209466354
  H         7.8524380965        9.3850809001        7.8764957499
  H         7.9177940331        8.5864983750       10.7779024695
  O         8.8304962364        8.1530136415       10.5407663749
  H         9.6199101623        8.7811594849       10.6836024810
  H         7.7352507990        9.1015475238       13.7500376354
  O         8.5606145535        8.4911434023       13.6488238915
  H         9.4101355446        9.0559811293       13.6395670406
  H         7.8577517482        8.6632448554       16.5839495225
  O         8.8997263025        8.4361953347       16.6593749817
  H         9.4288967623        9.1408168321       17.1582399517
  H         7.8973659407        8.6815050716       19.9794916684
  O         8.7681531432        8.2446531892       19.7626499477
  H         9.5189389872        8.8004036130       20.0962920178
  H         6.6838112109        8.8207287829       22.3158035514
  O         7.6466982706        8.6853148092       22.5509660281
  H         8.0792849199        9.6264113523       22.3769874080
  H         8.0026494423       11.9437162363        8.1319449035
  O         8.4170269009       11.0383387268        8.2072555955
  H         9.4648430388       11.1704934494        8.3059258050
  H         8.4576714921       11.8920480449       22.0478912966
  O         8.8849946976       10.9753349087       22.0864807302
  H         9.8966953674       11.1139089536       21.9961222379
  H         8.4180609675       14.9950476376        8.1001793759
  O         8.7410109918       14.0675337359        8.1385764060
  H         9.6347911251       14.0685319766        8.5344476787
  H         8.6354097161       14.8625247387       22.1991557760
  O         8.9086062882       13.8975610156       22.1564285317
  H         9.8628219907       13.8932191890       21.8845005885
  H         8.2551555393       17.7839097994        8.1993428879
  O         8.4914901529       16.8235489743        8.4126246499
  H         9.3977765615       16.9292113290        8.8503736127
  H         8.5307325371       17.6975593305       22.2877545669
  O         8.8434232962       16.7587592140       22.0147254778
  H         9.7847225442       16.8809487050       21.7088699488
  H         7.9383624867       20.2865204799        7.8803078058
  O         8.4799737149       19.4417402181        8.0815824348
  H         9.3580209754       19.7263039370        8.4748837380
  H         8.0439989576       20.2428368462       22.6109035994
  O         8.7030581241       19.4416052813       22.5253328886
  H         9.4634365664       19.8269452373       21.9533976819
  H         6.7397743043       22.3863092915        7.6903577718
  O         7.5679499136       21.8257048808        7.7110871684
  H         8.1004455088       22.1684270391        8.8256533189
  H         8.1487402946       22.6731563519       10.9498865640
  O         8.6441934621       22.2336537991       10.1925124026
  H         9.6325612722       21.9644350290       10.4822213115
  H         8.2546435034       22.9354218266       13.8991536331
  O         8.4300128574       22.1040470622       13.4043428116
  H         9.4026922594       21.9726926194       13.3996862773
  H         8.6107981883       23.5925830736       16.7344479171
  O         8.5696217797       22.6185164026       16.7800798223
  H         9.5781681687       22.2613732540       16.8306351277
  H         8.2463642818       22.7118957136       19.3757116573
  O         8.7627017644       22.1935094045       20.1921437169
  H         9.6590808229       21.9955572254       19.7543882576
  H         6.7255025247       22.2457894335       22.5004871112
  O         7.6903363410       21.8123355936       22.4950064765
  H         8.2035657357       22.1578054918       21.6809234354
  H         9.4591393697        6.6031242850       10.6594359825
  O        10.1502969032        5.7878807823       10.6307334936
  H        10.8778587724        6.3760762578       10.4411461122
  H         9.1020559904        7.0164276183       13.7419892063
  O         9.5792041313        6.0494852942       13.7288015021
  H        10.5966066549        6.1744924079       13.5883640444
  H         9.4885076373        6.9714678487       16.6583306151
  O        10.0225429726        6.0421745874       16.6725716964
  H        11.0142403486        6.2858410605       16.6053521711
  H         9.4808861615        6.7063138804       19.6471157694
  O        10.1966566429        5.9567987581       19.8575362000
  H        10.7559529221        6.4061607795       20.5269600062
  H        10.3150699252        8.4354187998        8.1849741127
  O        11.2296186876        8.3219196765        8.4731019784
  H        11.5933845553        9.2802287062        8.5135326659
  H         9.8462024304        8.2584177603       22.4910112723
  O        10.8091448327        8.2064929499       22.1673229071
  H        11.3709806292        8.7825950095       22.7534268643
  H         9.4646265488       11.2603645892        5.5816407716
  O        10.4948060935       11.0396018845        5.6405023162
  H        11.0109419571       11.8396691067        5.2313092187
  H         9.9218503655       11.2450491282       24.6699922413
  O        10.8683336235       11.3343087642       24.8083707538
  H        11.0734287171       12.2936702353       24.8992131495
  H        10.8871567301       13.9937084308        6.0078052990
  O        11.7410366619       13.8530140305        5.5152779050
  H        12.0826396443       14.8195119459        5.3486735161
  H         9.9548795400       14.0618262558       24.4006760873
  O        10.8033140704       13.9407556818       24.8739741252
  H        11.1422815424       14.9077988013       25.0161463045
  H        11.3146936105       17.2253519582        5.5514272507
  O        12.1428204324       16.6410414414        5.4841224187
  H        12.9703941493       17.2523133009        5.5690866706
  H         9.9739900520       16.7709789238       24.4094977438
  O        10.9184181402       16.6409894752       24.8174687952
  H        11.2633574483       17.5835146814       24.9107074698
  H         9.7319482492       19.7650851794        6.0641144687
  O        10.6901608174       19.6058756075        5.7608663324
  H        11.0767561802       20.5561645615        6.2175959812
  H         9.8294877991       19.5329172558       23.9989221043
  O        10.6448800240       19.4731132723       24.5143909276
  H        11.0277342416       20.3271963704       24.7506342125
  H        10.4331176395       23.0430468983        8.3288605622
  O        10.8747047816       22.0854996231        8.0218938341
  H        11.8518058898       22.2613752788        8.2469259373
  H        10.4513410593       22.6844022183       22.2616508270
  O        10.8002327079       21.7126479208       22.4768455442
  H        11.6393584124       21.6993427825       21.9770233211
  H         9.8737256780       25.4047208997       10.6090938064
  O        10.4439930994       25.0141992538        9.9226878865
  H        11.3717772076       25.0081185985       10.2188842753
  H         9.2611337373       25.9533859840       13.6069671702
  O         9.9085187633       25.2524676452       13.2383433392
  H        10.7830909327       25.4255992318       13.7550990580
  H         9.3342637294       26.3208347703       16.8475068579
  O         9.7909688814       25.4245557529       16.7574582444
  H        10.7181546594       25.6639668623       16.7264601436
  H         9.5086978221       25.4834801720       20.2499353269
  O        10.3382348257       24.9160906909       20.3528714251
  H        10.8634897840       25.3094437595       19.3728641363
  H        13.0316578485        6.0866630916        9.8973653753
  O        13.6621962007        5.7301297607       10.4941861495
  H        14.4994349232        6.3361137397       10.4931296575
  H        13.1995030066        5.8171089549       12.7849897880
  O        13.9430862713        5.5962288844       13.4345938397
  H        14.7643829396        5.6989403962       12.7633327391
  H        13.1859441499        5.6361527289       17.4195402463
  O        14.1167642974        5.5878821394       17.3024220996
  H        14.5606130387        5.9266729674       18.0062520119
  H        13.1738760250        6.3385173051       19.9446089068
  O        14.1761263718        6.3435441078       19.8920682765
  H        14.4207027467        7.1125412809       20.6193195568
  H        13.2608645896        7.9355281212        8.0132971260
  O        14.1802325300        7.9829033038        8.2935787288
  H        14.6018382519        8.8905577647        7.8226350362
  H        14.6477255495        8.1689388686        9.7611055149
  O        15.3952797380        7.8459090307       10.3090971397
  H        16.2591021853        8.0493166729       10.0787515185
  H        13.6241191604        8.9068984459       21.8323012034
  O        14.3671059157        8.2130092976       21.7342122979
  H        15.2221025520        8.6325506754       22.1937955568
  H        13.1708046120       12.3130656207        5.7917602028
  O        13.9910990782       11.7215105404        5.7539322971
  H        14.7175889176       12.1651947684        5.1693537070
  H        14.5651869673       10.7678273384        6.7952355363
  O        15.1299390283       10.1539735771        7.4798694630
  H        15.9152032237       10.6883944674        7.4595844231
  H        13.1135214341       11.0059380101       24.5541047110
  O        13.9661266368       10.7379860446       24.1879218187
  H        14.6565808798       11.4059337928       24.4917639786
  H        14.6074945113       13.9990228726       25.0103680089
  O        15.6153658997       13.9920678547       24.9724216617
  H        15.8985415552       14.9474703146       25.1122630706
  H        15.0268661025       17.3248644021       24.8837935241
  O        15.9021307403       16.7783453826       24.9223557461
  H        16.6990073777       17.4213522723       24.9297869817
  H        13.4131456220       19.4319076439        5.1754779771
  O        14.0363141037       18.6980724575        5.5427163570
  H        14.5952963375       19.1967087841        6.2218877542
  H        14.5521557914       20.4387567325        8.0608972831
  O        15.3143420111       19.9587528273        7.4864179382
  H        16.1052868986       20.2220484056        7.8623201292
  H        13.1164363846       19.3833707582       24.5733202604
  O        14.0900612436       19.2328217197       24.6354074842
  H        14.5251339678       20.0107899043       24.2342569213
  H        13.7320845331       23.7362390838        7.8362407512
  O        14.0404796813       22.9016052151        7.4152371877
  H        15.1156513294       22.7477889889        7.5268602285
  H        14.4290396755       22.6255723478       10.6150840401
  O        15.4181964095       22.6703625280       10.2452334382
  H        16.1736620111       22.6022009568       10.9252345140
  H        13.5255870765       22.8984074012       21.8182292790
  O        14.3513444926       22.5310966282       22.1768878368
  H        15.0568415551       22.7795369294       21.6482244420
  H        13.4484727757       26.2856571062       10.1740216237
  O        13.5480388147       25.2602759314       10.2908310662
  H        14.4869512713       25.1270729079       10.0934241546
  H        13.5766956193       25.1774737127       12.9888940017
  O        14.7033773522       25.3016592943       13.3728622111
  H        14.7069508323       26.0705113222       14.2346462315
  H        13.8687058452       25.3646987325       16.9868232763
  O        14.9706817783       25.8249250247       16.4805275525
  H        15.0780963138       26.7573328217       16.8914689582
  H        13.3194605684       25.2434599219       20.6631144033
  O        14.1961528328       25.1029764884       20.1795398976
  H        14.5370731199       26.0505701354       20.0926435768
  H        17.0696286662        6.1939773938        9.9475537666
  O        17.6772910887        5.7003074824       10.5643327088
  H        18.6225809845        5.8378905119       10.2145132164
  H        17.1606040011        6.0744580200       12.6107193935
  O        17.7144176332        6.0216346212       13.4821594905
  H        18.6359065024        5.8555804609       13.1216351657
  H        17.2693215660        5.6209441870       17.9520616174
  O        18.1818723471        5.5125228205       17.2751094798
  H        18.8827092000        5.8296727189       17.7645993989
  H        17.0157257218        6.3594379298       20.7303799433
  O        17.5742120899        5.8169419335       20.1059287166
  H        18.5033221685        5.8820725642       20.4103129233
  H        17.1165361738        8.8153406801        8.0804502813
  O        17.6129523863        7.9729563012        8.6974028618
  H        18.6891720267        8.1724470368        8.6562171867
  H        17.2593089638        8.9994841060       22.6315887054
  O        17.4541310663        8.1270641572       22.0430883890
  H        18.2915632208        8.3751490609       21.5451683595
  H        17.1546510083       12.0515458592        5.2274160973
  O        17.5818704473       11.1490498458        5.5186252037
  H        18.5316245061       11.2338650384        5.2811039845
  H        17.0357816578       12.3603515585       24.8507508894
  O        17.5708408180       11.4977903668       24.7026215841
  H        18.5130356825       11.7616336664       24.8190106120
  H        16.0228316691       14.7548020032        5.1478825218
  O        16.5039450624       13.8568111786        5.2903406898
  H        17.4777531900       14.1238474250        5.4380537657
  H        15.1933443417       17.2647011423        5.2371570549
  O        15.9616273819       16.6083384176        5.3855563512
  H        16.7467604867       17.2322130601        5.3500166469
  H        16.7570557202       19.7299274857        5.8591291043
  O        17.5453592352       19.1444593820        5.3905323572
  H        18.4613643311       19.6105494664        5.5530012752
  H        17.1879163306       19.7765582936       24.6883344191
  O        17.8267408436       19.0260388937       24.9270113979
  H        18.7160966294       19.3967299616       24.6941338465
  H        16.6909152137       22.4970573812        8.9272089139
  O        17.5780545999       22.3073402361        8.4357825185
  H        18.2303158746       22.6401334517        9.0543483901
  H        17.3108195506       22.6543234241       22.5068493936
  O        18.2353948981       22.6780367099       22.2954238646
  H        18.3545840900       23.5309407596       21.7454983661
  H        17.1039076956       26.0569552339       10.2099301240
  O        17.5768778150       25.1577673414       10.2942174971
  H        18.3058322540       25.3394495407       11.0195978243
  H        16.7180503745       25.1447507113       13.2534371534
  O        17.6852448763       24.9808956704       13.6407574683
  H        18.1370180242       25.8407162832       13.7753359367
  H        16.8501295389       25.0729256985       16.6854393532
  O        17.8675216049       25.1829342195       16.7999019423
  H        17.9776507432       26.2712500022       16.6942489058
  H        16.9410961624       24.9105335732       20.2567949599
  O        17.9058622570       24.9377716134       20.4908807992
  H        18.3737538561       25.6928707142       20.1784775798
  H        20.8706276118        6.6952013428       10.1650119964
  O        21.5767212093        6.1459965700       10.4424802589
  H        22.2414525005        6.9423012507       10.6969836741
  H        20.5571810770        6.6376708105       14.1325092499
  O        21.2355760107        5.9246788572       13.8262508976
  H        22.1483561513        6.5276461628       13.7967188744
  H        21.1352781671        5.4525149997       16.4233083771
  O        22.1400545087        5.2351308716       16.5887614069
  H        22.6775154075        6.0866010089       16.6398538081
  H        20.8573434233        6.6401700047       20.4970272658
  O        21.3609158536        6.0652335641       19.8554033423
  H        22.0861965598        6.7151539622       19.5063315194
  H        20.1527072840        9.5943834961        8.0421853620
  O        20.4218152718        8.6754746436        8.4265251218
  H        21.3672217283        8.5620690646        8.1727533099
  H        19.7657474285        8.7200853083       15.9311355004
  O        20.4554809972        8.4535576555       15.3180129162
  H        21.2723394864        8.4972416061       15.8466688061
  H        20.0502499761        9.1239869769       22.7456905930
  O        20.5779462453        8.4342502478       22.4765102434
  H        21.4639643986        8.8039658126       22.3446393782
  H        20.7613571990       12.2434194507        5.5526565959
  O        20.9827487347       11.2629591005        5.6949160580
  H        21.9479761727       11.1876852520        5.5647600749
  H        20.6616655025       12.1625330494       25.0906150525
  O        21.0722266921       11.2640427754       24.9093502999
  H        22.0410946075       11.4186096099       24.9309685393
  H        20.6083336952       14.9086504501        5.4058236146
  O        20.9438978417       13.9378347780        5.5061734425
  H        21.8457060560       14.0478921019        5.8608585984
  H        19.8495506653       14.8515483206       25.0938166764
  O        20.2709450193       13.9427128825       24.8859183893
  H        21.0767202353       14.2145478637       24.3329306588
  H        20.4324938053       17.5549114056        5.5284006722
  O        20.8283554108       16.6304248884        5.5857517814
  H        21.7493491948       16.8068227172        5.9091949684
  H        18.8569250371       17.2250230594       25.2076767514
  O        19.6940505696       16.7381913262       24.9315820279
  H        20.4099702548       17.4465799115       24.7316085675
  H        20.6891433064       20.4085597070        5.6921506432
  O        21.0434922305       19.4358907785        5.7763136056
  H        21.8124583596       19.5525133019        6.4750526641
  H        20.7054666704       20.4466726521       24.0751539471
  O        20.9810441354       19.6451504722       24.5481218274
  H        21.9377486427       19.5504098224       24.3580062571
  H        19.8928704526       22.0180556985        7.9734018391
  O        20.8201484408       21.9297084744        8.2160676708
  H        21.2671180402       22.7738198308        8.1919461218
  H        19.3303013583       23.5634383702       15.0812817891
  O        20.2868561168       23.7177023253       15.0268186256
  H        20.6869925377       23.6230201620       15.9001713146
  H        19.7702343086       21.8508687127       22.1421818005
  O        20.7624725665       21.7958950658       22.2697635533
  H        21.0467083258       22.7094929301       22.4094442210
  H        20.8813970610       24.8760457926       10.3931959961
  O        21.7610309274       24.8039986509        9.9550285759
  H        22.1432479668       25.7522681166       10.1146814545
  H        21.2260120242       25.0717671806       13.9903153477
  O        22.0783887999       25.2204681116       13.5566708195
  H        22.4385614045       26.1092521266       13.6178966657
  H        20.6342629724       25.5480134238       16.7091299103
  O        21.5045699333       25.2133047647       17.1238992717
  H        22.2090133840       25.9145116910       16.9379862375
  H        20.6562275036       24.5525030398       20.0636776708
  O        21.5888502518       24.6391952496       20.3886253316
  H        21.9376328120       25.5134254813       20.1127639300
  H        23.5524143939        9.4844900231        8.0143297484
  O        24.0255887558        8.5667522676        7.9158691835
  H        24.9936186246        8.7160694052        8.1968693674
  H        22.0789127195        9.1371283804       10.4381297752
  O        22.8410898832        8.5384541008       10.8662361374
  H        23.6690074559        9.0740658048       10.5919541525