# Projected DOS for atomic kind N at iteration step i = 0, E(Fermi) =    -0.093001 a.u.
#     MO Eigenvalue [a.u.]      Occupation                 s                py                pz                px
       1         -0.913920        1.000000        0.00000000        0.00000000        0.00000000        0.00000000
       2         -0.912937        1.000000        0.00000000        0.00000000        0.00000000        0.00000000
       3         -0.906354        1.000000        0.00000004        0.00000000        0.00000002        0.00000000
       4         -0.899839        1.000000        0.00000000        0.00000000        0.00000000        0.00000000
       5         -0.894573        1.000000        0.00000000        0.00000000        0.00000000        0.00000000
       6         -0.888065        1.000000        0.00000000        0.00000000        0.00000000        0.00000000
       7         -0.882641        1.000000        0.00000034        0.00000000        0.00000002        0.00000002
       8         -0.882204        1.000000        0.00017617        0.00000497        0.00000038        0.00000054
       9         -0.879642        1.000000        0.00000097        0.00000000        0.00000001        0.00000001
      10         -0.876342        1.000000        0.00002619        0.00000005        0.00000023        0.00000007
      11         -0.873889        1.000000        0.00000001        0.00000000        0.00000000        0.00000000
      12         -0.873223        1.000000        0.00100094        0.00000722        0.00000114        0.00000701
      13         -0.870872        1.000000        0.00005944        0.00000062        0.00000220        0.00000006
      14         -0.870715        1.000000        0.00000158        0.00000000        0.00000014        0.00000007
      15         -0.870364        1.000000        0.00000012        0.00000000        0.00000001        0.00000000
      16         -0.870039        1.000000        0.00015242        0.00000076        0.00000009        0.00000061
      17         -0.869331        1.000000        0.00000068        0.00000001        0.00000002        0.00000000
      18         -0.868456        1.000000        0.00011290        0.00000043        0.00000004        0.00000030
      19         -0.867215        1.000000        0.00001943        0.00000014        0.00000053        0.00000002
      20         -0.865715        1.000000        0.00001401        0.00000000        0.00000044        0.00000040
      21         -0.865244        1.000000        0.00036358        0.00000101        0.00000223        0.00000297
      22         -0.864761        1.000000        0.00000979        0.00000000        0.00000066        0.00000027
      23         -0.864535        1.000000        0.00000123        0.00000001        0.00000008        0.00000035
      24         -0.862972        1.000000        0.00005587        0.00000000        0.00000720        0.00000149
      25         -0.862864        1.000000        0.00177311        0.00000707        0.00003167        0.00000097
      26         -0.861521        1.000000        0.00000620        0.00000000        0.00000000        0.00000000
      27         -0.861190        1.000000        0.00261516        0.00000109        0.00000007        0.00000054
      28         -0.861121        1.000000        0.07821434        0.00003053        0.00000117        0.00001385
      29         -0.860242        1.000000        0.51601888        0.00010245        0.00000006        0.00004655
      30         -0.859496        1.000000        0.00088382        0.00000594        0.00000064        0.00003334
      31         -0.857782        1.000000        0.00773300        0.00000011        0.00000168        0.00000014
      32         -0.857441        1.000000        0.00002093        0.00000001        0.00000134        0.00000020
      33         -0.856997        1.000000        0.00000405        0.00000001        0.00000003        0.00000001
      34         -0.856634        1.000000        0.00000072        0.00000000        0.00000002        0.00000000
      35         -0.855012        1.000000        0.00042641        0.00000101        0.00000483        0.00000034
      36         -0.854164        1.000000        0.00234041        0.00000224        0.00000143        0.00000098
      37         -0.853558        1.000000        0.00129457        0.00000262        0.00001353        0.00000071
      38         -0.852397        1.000000        0.00027767        0.00000003        0.00000001        0.00000010
      39         -0.851837        1.000000        0.00297084        0.00000018        0.00000030        0.00000018
      40         -0.851654        1.000000        0.00012652        0.00000007        0.00000021        0.00000019
      41         -0.850905        1.000000        0.00207034        0.00000198        0.00000041        0.00000084
      42         -0.850357        1.000000        0.60500792        0.00000228        0.00011214        0.00000736
      43         -0.850075        1.000000        0.00359731        0.00000445        0.00004863        0.00012341
      44         -0.849398        1.000000        0.00040885        0.00000023        0.00000143        0.00000591
      45         -0.849384        1.000000        0.00202832        0.00000253        0.00001485        0.00007023
      46         -0.849143        1.000000        0.00000354        0.00000000        0.00000005        0.00000001
      47         -0.848424        1.000000        0.00040991        0.00000052        0.00000051        0.00001280
      48         -0.848094        1.000000        0.00000546        0.00000000        0.00000007        0.00000002
      49         -0.847867        1.000000        0.00046079        0.00000044        0.00000241        0.00000334
      50         -0.846383        1.000000        0.60924649        0.00009914        0.00005560        0.00004038
      51         -0.845722        1.000000        0.02614795        0.00001393        0.00013850        0.00000970
      52         -0.845604        1.000000        0.00493979        0.00000408        0.00004416        0.00000320
      53         -0.845289        1.000000        0.00072183        0.00000007        0.00000573        0.00000102
      54         -0.845218        1.000000        0.61187483        0.00000791        0.00026296        0.00000036
      55         -0.845202        1.000000        0.00482343        0.00000296        0.00005169        0.00000175
      56         -0.843709        1.000000        0.00155324        0.00000025        0.00000088        0.00000205
      57         -0.843549        1.000000        0.00001441        0.00000076        0.00000788        0.00000147
      58         -0.842608        1.000000        0.00086463        0.00000207        0.00000358        0.00002449
      59         -0.841989        1.000000        0.00038796        0.00000008        0.00000167        0.00000037
      60         -0.841880        1.000000        0.00006393        0.00000002        0.00000019        0.00000012
      61         -0.840967        1.000000        0.00056430        0.00000011        0.00000291        0.00000054
      62         -0.840544        1.000000        0.00044192        0.00000003        0.00000107        0.00000003
      63         -0.840259        1.000000        0.00080806        0.00000123        0.00005163        0.00001217
      64         -0.839999        1.000000        0.00001695        0.00000005        0.00000034        0.00000001
      65         -0.839328        1.000000        0.00000935        0.00000003        0.00000014        0.00000001
      66         -0.839108        1.000000        0.00014633        0.00000025        0.00001207        0.00000087
      67         -0.838891        1.000000        0.00001859        0.00000028        0.00000012        0.00000011
      68         -0.838537        1.000000        0.00040007        0.00000015        0.00000610        0.00000027
      69         -0.838300        1.000000        0.00006193        0.00000007        0.00000090        0.00000002
      70         -0.837869        1.000000        0.00082969        0.00000044        0.00001034        0.00000042
      71         -0.837744        1.000000        0.00120547        0.00000049        0.00000478        0.00000018
      72         -0.836629        1.000000        0.00023489        0.00000040        0.00000095        0.00000040
      73         -0.835757        1.000000        0.00043274        0.00000015        0.00000072        0.00000019
      74         -0.835591        1.000000        0.01783531        0.00000675        0.00001458        0.00000156
      75         -0.835553        1.000000        0.00187956        0.00000226        0.00000554        0.00000395
      76         -0.835335        1.000000        0.00342066        0.00001275        0.00006147        0.00001654
      77         -0.834953        1.000000        0.00100176        0.00000097        0.00000284        0.00000005
      78         -0.834617        1.000000        0.00004977        0.00000094        0.00000010        0.00000049
      79         -0.833659        1.000000        0.00087669        0.00000153        0.00001753        0.00000284
      80         -0.833468        1.000000        0.00551766        0.00001053        0.00011310        0.00002738
      81         -0.833117        1.000000        0.00001491        0.00000004        0.00000037        0.00000010
      82         -0.831905        1.000000        0.00001850        0.00000009        0.00000002        0.00000009
      83         -0.830432        1.000000        0.01113290        0.00000100        0.00000054        0.00001779
      84         -0.830300        1.000000        0.00001532        0.00000009        0.00000005        0.00000003
      85         -0.830195        1.000000        0.00204329        0.00000067        0.00000045        0.00000606
      86         -0.830114        1.000000        0.00089769        0.00000472        0.00000369        0.00000122
      87         -0.829121        1.000000        0.00667592        0.00000119        0.00000123        0.00000766
      88         -0.828375        1.000000        0.00018438        0.00000045        0.00000014        0.00000026
      89         -0.827521        1.000000        0.01046529        0.00004910        0.00002276        0.00001522
      90         -0.826665        1.000000        0.00115047        0.00001408        0.00000401        0.00000100
      91         -0.826251        1.000000        0.00001560        0.00000762        0.00000128        0.00000034
      92         -0.825381        1.000000        0.01043983        0.00003195        0.00002046        0.00000961
      93         -0.824818        1.000000        0.00092969        0.00000456        0.00001446        0.00000085
      94         -0.824349        1.000000        0.00029580        0.00000083        0.00000373        0.00000032
      95         -0.824217        1.000000        0.00028594        0.00000048        0.00000273        0.00000018
      96         -0.823211        1.000000        0.00079765        0.00000735        0.00000157        0.00000535
      97         -0.822903        1.000000        0.00521431        0.00000075        0.00000922        0.00000354
      98         -0.822614        1.000000        0.03864915        0.00000796        0.00009550        0.00003374
      99         -0.822359        1.000000        0.03012834        0.00000850        0.00009006        0.00003634
     100         -0.822116        1.000000        0.01007664        0.00000727        0.00002371        0.00000781
     101         -0.821937        1.000000        0.02215044        0.00001440        0.00008318        0.00001582
     102         -0.821375        1.000000        0.30657167        0.00014374        0.00069448        0.00022192
     103         -0.820032        1.000000        0.00000586        0.00000000        0.00000003        0.00000001
     104         -0.818811        1.000000        0.00837856        0.00001112        0.00002025        0.00001429
     105         -0.818699        1.000000        0.00063153        0.00000044        0.00000240        0.00000125
     106         -0.818618        1.000000        0.00048150        0.00000059        0.00000179        0.00000280
     107         -0.818226        1.000000        0.00002423        0.00000002        0.00000006        0.00000008
     108         -0.817284        1.000000        0.00060652        0.00000022        0.00000120        0.00000097
     109         -0.816794        1.000000        0.00044718        0.00000077        0.00000233        0.00000071
     110         -0.816413        1.000000        0.00013773        0.00000021        0.00000085        0.00000018
     111         -0.816129        1.000000        0.04053660        0.00000610        0.00010482        0.00003957
     112         -0.815668        1.000000        0.00009183        0.00000006        0.00000013        0.00000034
     113         -0.815276        1.000000        0.00005907        0.00000005        0.00000005        0.00000034
     114         -0.814699        1.000000        0.00089678        0.00000009        0.00000174        0.00000080
     115         -0.814648        1.000000        0.02108503        0.00000181        0.00004962        0.00002249
     116         -0.813424        1.000000        0.00254348        0.00000153        0.00000494        0.00000112
     117         -0.812899        1.000000        0.00031548        0.00000077        0.00001680        0.00000057
     118         -0.812063        1.000000        0.00022565        0.00000056        0.00000313        0.00000032
     119         -0.811902        1.000000        0.01229325        0.00000005        0.00000011        0.00000165
     120         -0.810957        1.000000        0.00077798        0.00000011        0.00000017        0.00000014
     121         -0.808700        1.000000        0.00004499        0.00000013        0.00000029        0.00000021
     122         -0.808533        1.000000        0.00000561        0.00000001        0.00000003        0.00000010
     123         -0.808144        1.000000        0.01626286        0.00004763        0.00018268        0.00002817
     124         -0.806464        1.000000        0.01721906        0.00007989        0.00024212        0.00003964
     125         -0.805903        1.000000        0.00350079        0.00000435        0.00000052        0.00000010
     126         -0.805436        1.000000        0.01215664        0.00002779        0.00019103        0.00001167
     127         -0.804340        1.000000        0.00001415        0.00000003        0.00000003        0.00000003
     128         -0.804080        1.000000        0.14158978        0.00021946        0.00005117        0.00000061
     129         -0.803926        1.000000        0.00168345        0.00000470        0.00002033        0.00000171
     130         -0.803392        1.000000        0.04085364        0.00006898        0.00001992        0.00000006
     131         -0.802191        1.000000        0.07945105        0.00060112        0.00151212        0.00018606
     132         -0.801942        1.000000        0.04420933        0.00008886        0.00003915        0.00000056
     133         -0.801616        1.000000        0.00018596        0.00000146        0.00000368        0.00000045
     134         -0.799726        1.000000        0.00467470        0.00000226        0.00016376        0.00000026
     135         -0.798944        1.000000        0.00033042        0.00000094        0.00000067        0.00000002
     136         -0.798299        1.000000        0.00172322        0.00000708        0.00000198        0.00000019
     137         -0.797770        1.000000        0.00086322        0.00000540        0.00000170        0.00001249
     138         -0.797273        1.000000        0.01411641        0.00006810        0.00002912        0.00000202
     139         -0.795850        1.000000        0.01184853        0.00007201        0.00002611        0.00000177
     140         -0.795468        1.000000        0.00005486        0.00000031        0.00000015        0.00000001
     141         -0.794933        1.000000        0.00000040        0.00000000        0.00000000        0.00000004
     142         -0.794852        1.000000        0.00041973        0.00000143        0.00001331        0.00000029
     143         -0.791674        1.000000        0.00023655        0.00000163        0.00000411        0.00000114
     144         -0.791049        1.000000        0.00001894        0.00000014        0.00000031        0.00000010
     145         -0.790952        1.000000        0.00001013        0.00000079        0.00000009        0.00000209
     146         -0.789161        1.000000        0.47813804        0.00054150        0.00095797        0.00097331
     147         -0.787886        1.000000        0.00000138        0.00000003        0.00000003        0.00000001
     148         -0.786941        1.000000        0.00092923        0.00000021        0.00000051        0.00000509
     149         -0.785966        1.000000        0.02576975        0.00041130        0.00013206        0.00002375
     150         -0.783666        1.000000        0.26372478        0.00502361        0.00161979        0.00031232
     151         -0.782894        1.000000        0.00000022        0.00000001        0.00000000        0.00000005
     152         -0.782250        1.000000        0.00018130        0.00000261        0.00000630        0.00000001
     153         -0.781321        1.000000        0.00164235        0.00003143        0.00000222        0.00000321
     154         -0.780573        1.000000        0.00000013        0.00000000        0.00000002        0.00000001
     155         -0.780245        1.000000        0.00013907        0.00000333        0.00000102        0.00000047
     156         -0.778202        1.000000        0.00000023        0.00000000        0.00000004        0.00000002
     157         -0.767272        1.000000        0.00000003        0.00000000        0.00000001        0.00000000
     158         -0.765479        1.000000        0.00115089        0.00006217        0.00001992        0.00000567
     159         -0.765248        1.000000        0.00140856        0.00007734        0.00002542        0.00000684
     160         -0.761964        1.000000        0.00000001        0.00000000        0.00000000        0.00000000
     161         -0.750779        1.000000        0.00000000        0.00000000        0.00000000        0.00000000
     162         -0.731156        1.000000        0.00000027        0.00000005        0.00000003        0.00000000
     163         -0.632581        1.000000        0.00000000        0.00000000        0.00000000        0.00000000
     164         -0.607623        1.000000        0.01718335        0.00005269        0.00724967        0.18310706
     165         -0.595314        1.000000        0.01662060        0.00058972        0.07603924        0.11841075
     166         -0.591295        1.000000        0.01679508        0.00000453        0.02960915        0.16355113
     167         -0.586576        1.000000        0.01626295        0.00328663        0.08033556        0.11053955
     168         -0.575150        1.000000        0.02276144        0.01752061        0.02637179        0.13226804
     169         -0.568166        1.000000        0.02973784        0.00410938        0.01029240        0.13983937
     170         -0.560179        1.000000        0.02540227        0.02589628        0.00370401        0.13986261
     171         -0.550452        1.000000        0.00006491        0.00001598        0.00059626        0.00038868
     172         -0.543606        1.000000        0.00003794        0.00002130        0.00005527        0.00008479
     173         -0.527255        1.000000        0.00032979        0.00060599        0.01902137        0.00055154
     174         -0.522775        1.000000        0.00027347        0.00530008        0.02673228        0.00183881
     175         -0.519360        1.000000        0.00072059        0.00740989        0.00234941        0.00378410
     176         -0.516082        1.000000        0.00049591        0.00298916        0.00118064        0.00107667
     177         -0.515111        1.000000        0.00020396        0.00342936        0.00318408        0.00142187
     178         -0.513733        1.000000        0.00026180        0.01199003        0.00408369        0.00092144
     179         -0.513157        1.000000        0.00000113        0.00011352        0.00003599        0.00000517
     180         -0.511418        1.000000        0.00020692        0.02083751        0.00295350        0.00209116
     181         -0.511167        1.000000        0.00031962        0.00885900        0.00737832        0.00190818
     182         -0.510352        1.000000        0.00028804        0.01046888        0.01687556        0.00136890
     183         -0.509613        1.000000        0.00023788        0.01177637        0.00273221        0.00303262
     184         -0.508087        1.000000        0.00018094        0.03037347        0.01534209        0.00368157
     185         -0.504074        1.000000        0.00008266        0.01620681        0.00324805        0.00113997
     186         -0.503813        1.000000        0.00049671        0.04835332        0.00362851        0.00225872
     187         -0.502556        1.000000        0.00032997        0.02897810        0.00231006        0.00095598
     188         -0.502142        1.000000        0.00044209        0.05070749        0.00467732        0.00146141
     189         -0.500643        1.000000        0.00006030        0.01828776        0.00584331        0.00181163
     190         -0.500015        1.000000        0.00019099        0.01253087        0.00119111        0.00075771
     191         -0.498633        1.000000        0.00013768        0.00345849        0.02241902        0.01193020
     192         -0.497808        1.000000        0.00019662        0.00415997        0.00858888        0.00266437
     193         -0.496931        1.000000        0.00024372        0.00607598        0.00423538        0.00152067
     194         -0.496382        1.000000        0.00002660        0.00524244        0.00116912        0.00077513
     195         -0.495650        1.000000        0.00017081        0.01541558        0.00806983        0.00146513
     196         -0.495531        1.000000        0.00010429        0.00579319        0.01212690        0.00201810
     197         -0.494349        1.000000        0.00038816        0.01477210        0.00715338        0.00271170
     198         -0.494013        1.000000        0.00036716        0.00977746        0.00587748        0.00446586
     199         -0.493661        1.000000        0.00044836        0.01022679        0.00215108        0.00191486
     200         -0.490405        1.000000        0.00012099        0.00400335        0.00039736        0.00037524
     201         -0.490171        1.000000        0.00010168        0.00070952        0.00988603        0.00266305
     202         -0.489395        1.000000        0.00004403        0.00344114        0.02427188        0.00296043
     203         -0.489221        1.000000        0.00007047        0.00348717        0.00974924        0.00267999
     204         -0.487779        1.000000        0.00011347        0.00671086        0.11006441        0.00673289
     205         -0.486425        1.000000        0.00004501        0.00337234        0.29903012        0.01328838
     206         -0.485515        1.000000        0.00006171        0.00445835        0.01111244        0.00090212
     207         -0.483949        1.000000        0.00006663        0.00140730        0.00444773        0.00055630
     208         -0.471877        1.000000        0.00038034        0.24654546        0.05977955        0.02689122
     209         -0.469983        1.000000        0.00008200        0.04859488        0.14766664        0.08425877
     210         -0.469866        1.000000        0.00000006        0.00006649        0.00012032        0.00006831
     211         -0.469192        1.000000        0.00014180        0.04972045        0.23380888        0.13673920
     212         -0.468173        1.000000        0.00011149        0.01080962        0.07440146        0.03436138
     213         -0.466701        1.000000        0.00028972        0.21421971        0.14262512        0.14436180
     214         -0.465267        1.000000        0.00010526        0.33372780        0.13635586        0.03657625
     215         -0.465172        1.000000        0.00001956        0.49326651        0.01126163        0.01056109
     216         -0.462041        1.000000        0.00000006        0.00135380        0.00245485        0.00048007
     217         -0.461817        1.000000        0.00000528        0.17203421        0.29046364        0.05691389
     218         -0.457952        1.000000        0.00000136        0.00108014        0.00062208        0.00012468
     219         -0.456519        1.000000        0.00101374        0.41337209        0.02487074        0.00193068
     220         -0.454816        1.000000        0.00000140        0.00085635        0.00013614        0.00001462
     221         -0.452999        1.000000        0.00007667        0.27700194        0.26441394        0.00361748
     222         -0.450461        1.000000        0.00000001        0.00002110        0.00003765        0.00001887
     223         -0.449468        1.000000        0.00000001        0.00000178        0.00000831        0.00000198
     224         -0.448244        1.000000        0.00000001        0.00000622        0.00000151        0.00000083
     225         -0.445799        1.000000        0.00077599        0.18955601        0.10558475        0.12819330
     226         -0.445556        1.000000        0.00001534        0.00393423        0.00190354        0.00251574
     227         -0.444334        1.000000        0.00005699        0.01598336        0.00227975        0.00582991
     228         -0.444152        1.000000        0.00000247        0.00058968        0.00009785        0.00013451
     229         -0.442582        1.000000        0.00000009        0.00000416        0.00001939        0.00000756
     230         -0.441328        1.000000        0.00000193        0.00014103        0.00006964        0.00001640
     231         -0.441179        1.000000        0.00000029        0.00016195        0.00001005        0.00001569
     232         -0.440683        1.000000        0.00000291        0.00028686        0.00001082        0.00010475
     233         -0.440185        1.000000        0.00000031        0.00005236        0.00000613        0.00001409
     234         -0.438756        1.000000        0.00000694        0.00019365        0.00026486        0.00001190
     235         -0.438564        1.000000        0.00000175        0.00012564        0.00012933        0.00005001
     236         -0.437271        1.000000        0.00000040        0.00016940        0.00000810        0.00001997
     237         -0.435959        1.000000        0.00007075        0.00306388        0.00557350        0.00443318
     238         -0.434529        1.000000        0.00000142        0.00017536        0.00005309        0.00001702
     239         -0.433545        1.000000        0.00000067        0.00003729        0.00001344        0.00002270
     240         -0.433074        1.000000        0.00000258        0.00011884        0.00000960        0.00001109
     241         -0.432837        1.000000        0.00002972        0.04875247        0.43349833        0.04642924
     242         -0.431823        1.000000        0.00000017        0.16830494        0.00212311        0.02799666
     243         -0.431471        1.000000        0.00000233        0.24653576        0.00212497        0.04081810
     244         -0.430913        1.000000        0.00000014        0.00000678        0.00000348        0.00000302
     245         -0.430774        1.000000        0.00000010        0.00000193        0.00000447        0.00009364
     246         -0.429968        1.000000        0.00000003        0.00000255        0.00000266        0.00000110
     247         -0.429478        1.000000        0.00000232        0.00003789        0.00005803        0.00005223
     248         -0.428684        1.000000        0.00000918        0.00130189        0.00005671        0.00033771
     249         -0.428226        1.000000        0.00000734        0.00111539        0.01283202        0.00148801
     250         -0.427981        1.000000        0.00000048        0.00004634        0.00009219        0.00012642
     251         -0.427617        1.000000        0.00003380        0.00184359        0.00106551        0.00028709
     252         -0.426983        1.000000        0.00000289        0.00008372        0.00017685        0.00001426
     253         -0.426975        1.000000        0.00000124        0.00006497        0.00060954        0.00007046
     254         -0.425958        1.000000        0.00000002        0.00000019        0.00000395        0.00000485
     255         -0.425514        1.000000        0.00000002        0.00000038        0.00000042        0.00000024
     256         -0.424988        1.000000        0.00000053        0.00014326        0.00014593        0.00000798
     257         -0.422951        1.000000        0.00000146        0.00099013        0.00061552        0.00010919
     258         -0.422638        1.000000        0.00001887        0.00180993        0.00151559        0.00036862
     259         -0.422444        1.000000        0.00004615        0.00419624        0.00410179        0.00077810