# Projected DOS for atomic kind N at iteration step i = 0, E(Fermi) =    -0.099966 a.u.
#     MO Eigenvalue [a.u.]      Occupation                 s                py                pz                px
       1         -0.913915        1.000000        0.00000000        0.00000000        0.00000000        0.00000000
       2         -0.912939        1.000000        0.00000000        0.00000000        0.00000000        0.00000000
       3         -0.906357        1.000000        0.00000004        0.00000000        0.00000002        0.00000000
       4         -0.899839        1.000000        0.00000000        0.00000000        0.00000000        0.00000000
       5         -0.894572        1.000000        0.00000000        0.00000000        0.00000000        0.00000000
       6         -0.888063        1.000000        0.00000000        0.00000000        0.00000000        0.00000000
       7         -0.887459        1.000000        0.00000003        0.00000000        0.00000000        0.00000000
       8         -0.882635        1.000000        0.00000034        0.00000000        0.00000002        0.00000002
       9         -0.882205        1.000000        0.00017606        0.00000497        0.00000038        0.00000054
      10         -0.879667        1.000000        0.00000094        0.00000000        0.00000001        0.00000001
      11         -0.876306        1.000000        0.00002639        0.00000005        0.00000024        0.00000007
      12         -0.873893        1.000000        0.00000001        0.00000000        0.00000000        0.00000000
      13         -0.873223        1.000000        0.00100028        0.00000722        0.00000114        0.00000701
      14         -0.870873        1.000000        0.00005908        0.00000062        0.00000219        0.00000006
      15         -0.870325        1.000000        0.00000011        0.00000000        0.00000000        0.00000000
      16         -0.870039        1.000000        0.00015174        0.00000076        0.00000009        0.00000061
      17         -0.869315        1.000000        0.00000066        0.00000001        0.00000002        0.00000000
      18         -0.868457        1.000000        0.00011310        0.00000043        0.00000004        0.00000030
      19         -0.867215        1.000000        0.00001932        0.00000014        0.00000052        0.00000002
      20         -0.866224        1.000000        0.00001492        0.00000000        0.00000013        0.00000041
      21         -0.865235        1.000000        0.00036658        0.00000102        0.00000222        0.00000299
      22         -0.864972        1.000000        0.00000279        0.00000000        0.00000008        0.00000007
      23         -0.864660        1.000000        0.00000132        0.00000001        0.00000008        0.00000036
      24         -0.863384        1.000000        0.00006016        0.00000000        0.00000839        0.00000171
      25         -0.862861        1.000000        0.00176326        0.00000711        0.00003141        0.00000097
      26         -0.861362        1.000000        0.00001910        0.00000001        0.00000000        0.00000001
      27         -0.861193        1.000000        0.00220831        0.00000092        0.00000006        0.00000047
      28         -0.861119        1.000000        0.07825990        0.00003058        0.00000118        0.00001388
      29         -0.860238        1.000000        0.51636835        0.00010249        0.00000006        0.00004662
      30         -0.859497        1.000000        0.00087989        0.00000594        0.00000064        0.00003331
      31         -0.858826        1.000000        0.00001819        0.00000000        0.00000060        0.00000025
      32         -0.857777        1.000000        0.00773216        0.00000011        0.00000168        0.00000014
      33         -0.856988        1.000000        0.00000345        0.00000001        0.00000003        0.00000001
      34         -0.856638        1.000000        0.00000054        0.00000000        0.00000001        0.00000000
      35         -0.854935        1.000000        0.00049204        0.00000117        0.00000554        0.00000039
      36         -0.854324        1.000000        0.00003807        0.00000004        0.00000037        0.00000001
      37         -0.854154        1.000000        0.00232982        0.00000221        0.00000134        0.00000096
      38         -0.853497        1.000000        0.00122351        0.00000251        0.00001274        0.00000067
      39         -0.851848        1.000000        0.00325166        0.00000017        0.00000031        0.00000018
      40         -0.851655        1.000000        0.00012788        0.00000007        0.00000021        0.00000019
      41         -0.850903        1.000000        0.00219670        0.00000198        0.00000044        0.00000085
      42         -0.850370        1.000000        0.60494843        0.00000220        0.00011247        0.00000738
      43         -0.850073        1.000000        0.00355882        0.00000446        0.00004876        0.00012377
      44         -0.849625        1.000000        0.00015651        0.00000002        0.00000008        0.00000019
      45         -0.849377        1.000000        0.00216220        0.00000275        0.00001612        0.00007610
      46         -0.849132        1.000000        0.00000303        0.00000000        0.00000004        0.00000000
      47         -0.848349        1.000000        0.00042143        0.00000055        0.00000039        0.00001399
      48         -0.848098        1.000000        0.00000597        0.00000000        0.00000006        0.00000005
      49         -0.847662        1.000000        0.00044005        0.00000040        0.00000249        0.00000150
      50         -0.846371        1.000000        0.60931724        0.00009908        0.00005542        0.00004034
      51         -0.845677        1.000000        0.01828164        0.00001110        0.00010911        0.00001088
      52         -0.845587        1.000000        0.01070694        0.00000655        0.00006079        0.00000209
      53         -0.845562        1.000000        0.00128134        0.00000056        0.00001077        0.00000123
      54         -0.845208        1.000000        0.61193698        0.00000795        0.00026275        0.00000036
      55         -0.845184        1.000000        0.00600200        0.00000370        0.00005701        0.00000154
      56         -0.843739        1.000000        0.00165141        0.00000027        0.00000087        0.00000213
      57         -0.843481        1.000000        0.00001871        0.00000081        0.00000805        0.00000184
      58         -0.842588        1.000000        0.00086851        0.00000202        0.00000332        0.00002419
      59         -0.842033        1.000000        0.00017037        0.00000004        0.00000066        0.00000022
      60         -0.841970        1.000000        0.00026322        0.00000007        0.00000113        0.00000025
      61         -0.841020        1.000000        0.00048981        0.00000009        0.00000246        0.00000045
      62         -0.840785        1.000000        0.00010040        0.00000006        0.00000077        0.00000013
      63         -0.840511        1.000000        0.00050502        0.00000006        0.00000176        0.00000023
      64         -0.840235        1.000000        0.00074981        0.00000122        0.00005164        0.00001204
      65         -0.839378        1.000000        0.00000715        0.00000002        0.00000013        0.00000002
      66         -0.839035        1.000000        0.00011172        0.00000018        0.00001074        0.00000068
      67         -0.838977        1.000000        0.00004452        0.00000040        0.00000100        0.00000029
      68         -0.838581        1.000000        0.00024917        0.00000010        0.00000748        0.00000036
      69         -0.838309        1.000000        0.00002660        0.00000007        0.00000045        0.00000001
      70         -0.838079        1.000000        0.00002448        0.00000001        0.00000032        0.00000120
      71         -0.837989        1.000000        0.00004056        0.00000009        0.00000273        0.00000024
      72         -0.837689        1.000000        0.00151734        0.00000019        0.00000909        0.00000034
      73         -0.836867        1.000000        0.00017708        0.00000075        0.00000126        0.00000049
      74         -0.836171        1.000000        0.00010769        0.00000007        0.00000021        0.00000021
      75         -0.835386        1.000000        0.00360394        0.00001372        0.00004428        0.00001850
      76         -0.835164        1.000000        0.01646236        0.00000379        0.00003475        0.00000181
      77         -0.834926        1.000000        0.00006655        0.00000089        0.00000023        0.00000041
      78         -0.834817        1.000000        0.01366683        0.00000382        0.00000805        0.00000056
      79         -0.833529        1.000000        0.00331619        0.00000706        0.00008541        0.00001810
      80         -0.833410        1.000000        0.00399607        0.00000510        0.00004429        0.00001218
      81         -0.833175        1.000000        0.00002767        0.00000013        0.00000055        0.00000015
      82         -0.831860        1.000000        0.00010874        0.00000013        0.00000002        0.00000010
      83         -0.830408        1.000000        0.00017538        0.00000097        0.00000073        0.00000024
      84         -0.830304        1.000000        0.00357735        0.00000183        0.00000110        0.00002248
      85         -0.830249        1.000000        0.00127685        0.00000671        0.00000463        0.00000220
      86         -0.830040        1.000000        0.00197659        0.00000001        0.00000003        0.00000141
      87         -0.829371        1.000000        0.00004733        0.00000001        0.00000000        0.00000004
      88         -0.828571        1.000000        0.00420888        0.00000083        0.00000101        0.00000492
      89         -0.827989        1.000000        0.00872992        0.00004386        0.00001978        0.00001346
      90         -0.826492        1.000000        0.00041680        0.00001515        0.00000301        0.00000070
      91         -0.826183        1.000000        0.00002987        0.00001035        0.00000138        0.00000031
      92         -0.825342        1.000000        0.01026275        0.00003104        0.00002002        0.00000933
      93         -0.824909        1.000000        0.00039516        0.00000303        0.00000987        0.00000054
      94         -0.824447        1.000000        0.00035004        0.00000160        0.00000845        0.00000034
      95         -0.824296        1.000000        0.00022743        0.00000072        0.00000391        0.00000017
      96         -0.823245        1.000000        0.00070879        0.00000732        0.00000157        0.00000538
      97         -0.822622        1.000000        0.03074352        0.00000514        0.00007139        0.00002677
      98         -0.822474        1.000000        0.00293551        0.00000142        0.00002007        0.00000765
      99         -0.822339        1.000000        0.02474511        0.00000622        0.00007411        0.00002920
     100         -0.822108        1.000000        0.00539863        0.00000444        0.00001245        0.00000500
     101         -0.821901        1.000000        0.01191948        0.00000933        0.00006828        0.00000911
     102         -0.821257        1.000000        0.34705533        0.00015888        0.00080644        0.00025635
     103         -0.820190        1.000000        0.00000435        0.00000000        0.00000003        0.00000001
     104         -0.818759        1.000000        0.00664850        0.00001035        0.00001510        0.00001251
     105         -0.818706        1.000000        0.00029556        0.00000016        0.00000064        0.00000177
     106         -0.818623        1.000000        0.00067290        0.00000065        0.00000236        0.00000194
     107         -0.818410        1.000000        0.00028093        0.00000003        0.00000062        0.00000007
     108         -0.817283        1.000000        0.00060347        0.00000022        0.00000112        0.00000098
     109         -0.816787        1.000000        0.00036386        0.00000084        0.00000207        0.00000080
     110         -0.816356        1.000000        0.00022757        0.00000015        0.00000157        0.00000024
     111         -0.816228        1.000000        0.03475120        0.00000618        0.00007919        0.00003370
     112         -0.815692        1.000000        0.00010074        0.00000005        0.00000014        0.00000024
     113         -0.815450        1.000000        0.00015589        0.00000007        0.00000015        0.00000056
     114         -0.814934        1.000000        0.02571566        0.00000177        0.00007667        0.00002774
     115         -0.814247        1.000000        0.00228218        0.00000011        0.00000252        0.00000088
     116         -0.813429        1.000000        0.00169003        0.00000157        0.00000458        0.00000134
     117         -0.812921        1.000000        0.00004279        0.00000065        0.00001552        0.00000008
     118         -0.812523        1.000000        0.01736607        0.00000001        0.00000038        0.00000258
     119         -0.811921        1.000000        0.00013817        0.00000032        0.00000177        0.00000017
     120         -0.811500        1.000000        0.00111479        0.00000028        0.00000031        0.00000069
     121         -0.808618        1.000000        0.00003416        0.00000009        0.00000016        0.00000018
     122         -0.808547        1.000000        0.00000719        0.00000001        0.00000003        0.00000010
     123         -0.808270        1.000000        0.00275954        0.00000184        0.00001325        0.00000128
     124         -0.807451        1.000000        0.00460034        0.00000464        0.00002501        0.00000243
     125         -0.806040        1.000000        0.00323605        0.00000392        0.00000045        0.00000010
     126         -0.805334        1.000000        0.00669062        0.00001407        0.00015089        0.00000589
     127         -0.804378        1.000000        0.00006926        0.00000040        0.00000107        0.00000018
     128         -0.804263        1.000000        0.15462930        0.00022800        0.00005664        0.00000084
     129         -0.804136        1.000000        0.03760944        0.00021700        0.00059924        0.00008308
     130         -0.803831        1.000000        0.01437586        0.00009014        0.00024517        0.00003356
     131         -0.803375        1.000000        0.02541591        0.00004120        0.00001347        0.00000003
     132         -0.802027        1.000000        0.02412093        0.00004493        0.00002381        0.00000064
     133         -0.801940        1.000000        0.05617230        0.00043303        0.00108508        0.00013012
     134         -0.801444        1.000000        0.00015700        0.00000125        0.00000314        0.00000038
     135         -0.799343        1.000000        0.00435364        0.00000172        0.00014601        0.00000022
     136         -0.799335        1.000000        0.00023360        0.00000049        0.00000146        0.00000003
     137         -0.797767        1.000000        0.00100516        0.00000362        0.00001917        0.00000015
     138         -0.797738        1.000000        0.00080436        0.00000567        0.00000091        0.00001256
     139         -0.797073        1.000000        0.04106522        0.00020999        0.00006711        0.00000526
     140         -0.795527        1.000000        0.00002178        0.00000011        0.00000008        0.00000001
     141         -0.794944        1.000000        0.00000039        0.00000000        0.00000000        0.00000004
     142         -0.793289        1.000000        0.00186305        0.00001325        0.00000944        0.00000059
     143         -0.792003        1.000000        0.00006707        0.00000043        0.00000139        0.00000039
     144         -0.791448        1.000000        0.00011690        0.00000077        0.00000276        0.00000085
     145         -0.790953        1.000000        0.00001013        0.00000079        0.00000009        0.00000209
     146         -0.789151        1.000000        0.47682648        0.00054169        0.00095947        0.00096909
     147         -0.787669        1.000000        0.00224726        0.00000005        0.00000002        0.00000930
     148         -0.786306        1.000000        0.05084772        0.00079077        0.00025392        0.00004522
     149         -0.783938        1.000000        0.23369464        0.00436699        0.00140775        0.00027020
     150         -0.782903        1.000000        0.00000022        0.00000001        0.00000000        0.00000005
     151         -0.781410        1.000000        0.00110164        0.00002032        0.00000079        0.00000220
     152         -0.781047        1.000000        0.00000009        0.00000000        0.00000002        0.00000001
     153         -0.780473        1.000000        0.00000575        0.00000010        0.00000000        0.00000002
     154         -0.780080        1.000000        0.00031059        0.00000750        0.00000227        0.00000077
     155         -0.778400        1.000000        0.00000026        0.00000000        0.00000005        0.00000002
     156         -0.773165        1.000000        0.00464730        0.00017029        0.00005350        0.00001426
     157         -0.771844        1.000000        0.00603091        0.00023984        0.00007877        0.00001873
     158         -0.767360        1.000000        0.00000003        0.00000000        0.00000001        0.00000000
     159         -0.761980        1.000000        0.00000001        0.00000000        0.00000000        0.00000000
     160         -0.761660        1.000000        0.00003298        0.00000001        0.00000168        0.00000040
     161         -0.758879        1.000000        0.00000344        0.00000027        0.00000010        0.00000002
     162         -0.750501        1.000000        0.00000000        0.00000000        0.00000000        0.00000000
     163         -0.661063        1.000000        0.00000000        0.00000000        0.00000000        0.00000000
     164         -0.607626        1.000000        0.01718390        0.00005285        0.00724790        0.18308817
     165         -0.595322        1.000000        0.01661562        0.00058834        0.07605069        0.11841193
     166         -0.591292        1.000000        0.01677890        0.00000423        0.02959294        0.16355229
     167         -0.586577        1.000000        0.01627625        0.00328910        0.08033882        0.11053122
     168         -0.575148        1.000000        0.02277121        0.01753430        0.02637089        0.13223206
     169         -0.568206        1.000000        0.02976150        0.00410870        0.01028468        0.13984992
     170         -0.560162        1.000000        0.02540252        0.02589851        0.00370388        0.13986644
     171         -0.550385        1.000000        0.00007037        0.00001490        0.00061352        0.00036479
     172         -0.540373        1.000000        0.00002978        0.00002862        0.00004360        0.00008380
     173         -0.529022        1.000000        0.00022929        0.00106314        0.01031886        0.00021272
     174         -0.523440        1.000000        0.00039336        0.00526682        0.03515763        0.00226413
     175         -0.518560        1.000000        0.00062426        0.00555368        0.00220034        0.00375305
     176         -0.517997        1.000000        0.00018148        0.00688800        0.00215495        0.00075071
     177         -0.515411        1.000000        0.00052574        0.00368747        0.00142635        0.00098538
     178         -0.513321        1.000000        0.00044176        0.01094382        0.00654392        0.00161713
     179         -0.513164        1.000000        0.00000424        0.00025537        0.00008482        0.00001580
     180         -0.511887        1.000000        0.00011302        0.01484767        0.00108528        0.00026353
     181         -0.510691        1.000000        0.00040470        0.00529787        0.01288301        0.00196226
     182         -0.509863        1.000000        0.00006546        0.00069474        0.00905669        0.00254304
     183         -0.509286        1.000000        0.00025775        0.03839452        0.00202046        0.00249719
     184         -0.508762        1.000000        0.00022641        0.01965901        0.01628621        0.00396111
     185         -0.507772        1.000000        0.00032675        0.01451315        0.00317678        0.00035573
     186         -0.506671        1.000000        0.00002191        0.00326795        0.00185109        0.00054097
     187         -0.504393        1.000000        0.00042035        0.05491861        0.00463720        0.00369504
     188         -0.502385        1.000000        0.00069324        0.06763448        0.00648925        0.00209305
     189         -0.501599        1.000000        0.00018131        0.01873448        0.00149805        0.00043762
     190         -0.499425        1.000000        0.00015043        0.00194476        0.01020273        0.00411536
     191         -0.498209        1.000000        0.00012342        0.00373933        0.02080092        0.01068610
     192         -0.496676        1.000000        0.00012998        0.00225538        0.01696251        0.00435913
     193         -0.495974        1.000000        0.00020542        0.01795900        0.00572416        0.00058015
     194         -0.494637        1.000000        0.00030975        0.00066670        0.00459945        0.00121731
     195         -0.494189        1.000000        0.00022838        0.01748223        0.01320628        0.00623833
     196         -0.493803        1.000000        0.00030575        0.00761805        0.00143779        0.00104582
     197         -0.493401        1.000000        0.00018617        0.00853645        0.00146891        0.00217348
     198         -0.492992        1.000000        0.00039092        0.02362378        0.00419358        0.00231051
     199         -0.490848        1.000000        0.00005817        0.00032936        0.01567545        0.00400034
     200         -0.489688        1.000000        0.00000462        0.00589461        0.00420796        0.00047033
     201         -0.488375        1.000000        0.00020296        0.00729655        0.03672975        0.00323497
     202         -0.488300        1.000000        0.00014539        0.00454053        0.03445566        0.00341570
     203         -0.487637        1.000000        0.00003402        0.00456809        0.01782285        0.00156646
     204         -0.487228        1.000000        0.00007323        0.00032410        0.07119262        0.00352151
     205         -0.486486        1.000000        0.00006591        0.00258330        0.24424013        0.01216147
     206         -0.485446        1.000000        0.00010551        0.00943279        0.04257928        0.00210925
     207         -0.481146        1.000000        0.00004359        0.00150727        0.00252701        0.00081645
     208         -0.471875        1.000000        0.00037933        0.24521889        0.06141343        0.02791115
     209         -0.469955        1.000000        0.00007191        0.05306376        0.13449701        0.07577723
     210         -0.469868        1.000000        0.00000008        0.00009527        0.00015345        0.00008844
     211         -0.469101        1.000000        0.00014670        0.04499559        0.24330873        0.14246096
     212         -0.468182        1.000000        0.00010971        0.01176312        0.07351812        0.03329995
     213         -0.466638        1.000000        0.00029222        0.22827203        0.13932313        0.13534992
     214         -0.465776        1.000000        0.00010105        0.32463219        0.14505252        0.04741760
     215         -0.465127        1.000000        0.00001534        0.50164037        0.00289377        0.00889182
     216         -0.462041        1.000000        0.00000004        0.00073322        0.00146813        0.00028659
     217         -0.461746        1.000000        0.00000276        0.16411854        0.29676804        0.05807922
     218         -0.457962        1.000000        0.00000129        0.00109142        0.00064238        0.00012856
     219         -0.456491        1.000000        0.00100518        0.41402266        0.02438064        0.00181384
     220         -0.454820        1.000000        0.00000145        0.00085567        0.00012472        0.00001452
     221         -0.452857        1.000000        0.00009552        0.26590018        0.26979226        0.00456564
     222         -0.450497        1.000000        0.00000001        0.00002003        0.00003647        0.00001851
     223         -0.449436        1.000000        0.00000001        0.00000170        0.00000815        0.00000194
     224         -0.448248        1.000000        0.00000001        0.00000615        0.00000143        0.00000077
     225         -0.445673        1.000000        0.00068669        0.17970316        0.09332514        0.11723061
     226         -0.445551        1.000000        0.00006198        0.01654302        0.00805323        0.01055215
     227         -0.444337        1.000000        0.00006201        0.01824349        0.00272141        0.00688066
     228         -0.444232        1.000000        0.00000540        0.00159772        0.00024840        0.00049160
     229         -0.442564        1.000000        0.00000009        0.00000427        0.00001917        0.00000764
     230         -0.441321        1.000000        0.00000192        0.00014004        0.00006940        0.00001631
     231         -0.441180        1.000000        0.00000029        0.00016678        0.00000967        0.00001649
     232         -0.440685        1.000000        0.00000294        0.00030024        0.00001158        0.00010912
     233         -0.440190        1.000000        0.00000028        0.00005117        0.00000623        0.00001480
     234         -0.438756        1.000000        0.00000690        0.00019200        0.00026533        0.00001209
     235         -0.438567        1.000000        0.00000180        0.00012741        0.00013103        0.00005052
     236         -0.437274        1.000000        0.00000039        0.00016985        0.00000814        0.00002010
     237         -0.435957        1.000000        0.00007082        0.00323712        0.00561399        0.00453525
     238         -0.434534        1.000000        0.00000141        0.00017423        0.00005304        0.00001684
     239         -0.433545        1.000000        0.00000067        0.00003782        0.00001358        0.00002304
     240         -0.433074        1.000000        0.00000257        0.00011777        0.00000958        0.00001094
     241         -0.432849        1.000000        0.00003032        0.04845522        0.43266656        0.04632220
     242         -0.431815        1.000000        0.00000017        0.16143420        0.00206548        0.02685707
     243         -0.431458        1.000000        0.00000226        0.25321136        0.00221261        0.04192819
     244         -0.430946        1.000000        0.00000010        0.00000260        0.00001168        0.00009204
     245         -0.430909        1.000000        0.00000014        0.00000676        0.00000349        0.00000318
     246         -0.429968        1.000000        0.00000003        0.00000263        0.00000322        0.00000115
     247         -0.429481        1.000000        0.00000231        0.00003884        0.00005833        0.00005272
     248         -0.428686        1.000000        0.00000917        0.00132343        0.00005758        0.00034394
     249         -0.428501        1.000000        0.00000705        0.00126327        0.01399948        0.00161658
     250         -0.427999        1.000000        0.00000045        0.00004584        0.00009084        0.00012556
     251         -0.427607        1.000000        0.00003482        0.00187741        0.00094469        0.00027899
     252         -0.426991        1.000000        0.00000350        0.00009693        0.00007043        0.00000037
     253         -0.426958        1.000000        0.00000047        0.00003613        0.00050967        0.00005976
     254         -0.425964        1.000000        0.00000001        0.00000017        0.00000384        0.00000471
     255         -0.425514        1.000000        0.00000002        0.00000038        0.00000042        0.00000024
     256         -0.424985        1.000000        0.00000053        0.00015106        0.00014247        0.00000755
     257         -0.423357        1.000000        0.00000017        0.00004992        0.00003458        0.00001394
     258         -0.422942        1.000000        0.00000140        0.00093599        0.00053596        0.00009282
     259         -0.422641        1.000000        0.00001758        0.00170673        0.00137958        0.00035322