# Projected DOS for atomic kind H at iteration step i = 0, E(Fermi) =    -0.099966 a.u.
#     MO Eigenvalue [a.u.]      Occupation                 s
       1         -0.913915        1.000000        0.25135194
       2         -0.912939        1.000000        0.25372781
       3         -0.906357        1.000000        0.25332974
       4         -0.899839        1.000000        0.25670845
       5         -0.894572        1.000000        0.25839455
       6         -0.888063        1.000000        0.24709397
       7         -0.887459        1.000000        0.08005577
       8         -0.882635        1.000000        0.25664405
       9         -0.882205        1.000000        0.25887551
      10         -0.879667        1.000000        0.25431045
      11         -0.876306        1.000000        0.26168621
      12         -0.873893        1.000000        0.25907510
      13         -0.873223        1.000000        0.27427263
      14         -0.870873        1.000000        0.27443732
      15         -0.870325        1.000000        0.28150845
      16         -0.870039        1.000000        0.26257979
      17         -0.869315        1.000000        0.27096257
      18         -0.868457        1.000000        0.25854625
      19         -0.867215        1.000000        0.26156971
      20         -0.866224        1.000000        0.27825948
      21         -0.865235        1.000000        0.28332005
      22         -0.864972        1.000000        0.25855105
      23         -0.864660        1.000000        0.26378076
      24         -0.863384        1.000000        0.28024835
      25         -0.862861        1.000000        0.27500229
      26         -0.861362        1.000000        0.27073927
      27         -0.861193        1.000000        0.26554072
      28         -0.861119        1.000000        0.27760652
      29         -0.860238        1.000000        0.28078218
      30         -0.859497        1.000000        0.27606478
      31         -0.858826        1.000000        0.25573495
      32         -0.857777        1.000000        0.27565666
      33         -0.856988        1.000000        0.25203489
      34         -0.856638        1.000000        0.25759316
      35         -0.854935        1.000000        0.25676292
      36         -0.854324        1.000000        0.25438187
      37         -0.854154        1.000000        0.26562210
      38         -0.853497        1.000000        0.25536082
      39         -0.851848        1.000000        0.25868081
      40         -0.851655        1.000000        0.25712494
      41         -0.850903        1.000000        0.25930218
      42         -0.850370        1.000000        0.28040881
      43         -0.850073        1.000000        0.26984735
      44         -0.849625        1.000000        0.26733612
      45         -0.849377        1.000000        0.26684471
      46         -0.849132        1.000000        0.25919524
      47         -0.848349        1.000000        0.26724916
      48         -0.848098        1.000000        0.24295448
      49         -0.847662        1.000000        0.24858502
      50         -0.846371        1.000000        0.28184793
      51         -0.845677        1.000000        0.26065581
      52         -0.845587        1.000000        0.25802781
      53         -0.845562        1.000000        0.25638353
      54         -0.845208        1.000000        0.28257725
      55         -0.845184        1.000000        0.25722003
      56         -0.843739        1.000000        0.23817748
      57         -0.843481        1.000000        0.25862980
      58         -0.842588        1.000000        0.26013998
      59         -0.842033        1.000000        0.27429659
      60         -0.841970        1.000000        0.26832877
      61         -0.841020        1.000000        0.26484459
      62         -0.840785        1.000000        0.24376930
      63         -0.840511        1.000000        0.25139980
      64         -0.840235        1.000000        0.24802984
      65         -0.839378        1.000000        0.24645890
      66         -0.839035        1.000000        0.24183646
      67         -0.838977        1.000000        0.26042222
      68         -0.838581        1.000000        0.25069794
      69         -0.838309        1.000000        0.25344829
      70         -0.838079        1.000000        0.24560533
      71         -0.837989        1.000000        0.24298092
      72         -0.837689        1.000000        0.23553124
      73         -0.836867        1.000000        0.24695226
      74         -0.836171        1.000000        0.23679907
      75         -0.835386        1.000000        0.24765973
      76         -0.835164        1.000000        0.24680022
      77         -0.834926        1.000000        0.24172174
      78         -0.834817        1.000000        0.24854798
      79         -0.833529        1.000000        0.23328165
      80         -0.833410        1.000000        0.23346386
      81         -0.833175        1.000000        0.24329696
      82         -0.831860        1.000000        0.25287394
      83         -0.830408        1.000000        0.24594497
      84         -0.830304        1.000000        0.23603591
      85         -0.830249        1.000000        0.24394510
      86         -0.830040        1.000000        0.24284917
      87         -0.829371        1.000000        0.25135004
      88         -0.828571        1.000000        0.24064243
      89         -0.827989        1.000000        0.25723622
      90         -0.826492        1.000000        0.23095299
      91         -0.826183        1.000000        0.23414833
      92         -0.825342        1.000000        0.25571976
      93         -0.824909        1.000000        0.23640613
      94         -0.824447        1.000000        0.22920286
      95         -0.824296        1.000000        0.23010697
      96         -0.823245        1.000000        0.22602805
      97         -0.822622        1.000000        0.21432807
      98         -0.822474        1.000000        0.20788815
      99         -0.822339        1.000000        0.21588810
     100         -0.822108        1.000000        0.23605835
     101         -0.821901        1.000000        0.22415074
     102         -0.821257        1.000000        0.24908994
     103         -0.820190        1.000000        0.21776136
     104         -0.818759        1.000000        0.21691143
     105         -0.818706        1.000000        0.23656103
     106         -0.818623        1.000000        0.22939531
     107         -0.818410        1.000000        0.22569595
     108         -0.817283        1.000000        0.23020323
     109         -0.816787        1.000000        0.22404031
     110         -0.816356        1.000000        0.21242086
     111         -0.816228        1.000000        0.23267377
     112         -0.815692        1.000000        0.25585441
     113         -0.815450        1.000000        0.23914899
     114         -0.814934        1.000000        0.23506694
     115         -0.814247        1.000000        0.23268830
     116         -0.813429        1.000000        0.21381791
     117         -0.812921        1.000000        0.21004084
     118         -0.812523        1.000000        0.23804714
     119         -0.811921        1.000000        0.20789495
     120         -0.811500        1.000000        0.24888151
     121         -0.808618        1.000000        0.25509322
     122         -0.808547        1.000000        0.19526981
     123         -0.808270        1.000000        0.21610652
     124         -0.807451        1.000000        0.22133998
     125         -0.806040        1.000000        0.22858551
     126         -0.805334        1.000000        0.20775653
     127         -0.804378        1.000000        0.21302862
     128         -0.804263        1.000000        0.23701734
     129         -0.804136        1.000000        0.20634420
     130         -0.803831        1.000000        0.18792761
     131         -0.803375        1.000000        0.23655807
     132         -0.802027        1.000000        0.21129143
     133         -0.801940        1.000000        0.19985022
     134         -0.801444        1.000000        0.20447093
     135         -0.799343        1.000000        0.20042964
     136         -0.799335        1.000000        0.22860472
     137         -0.797767        1.000000        0.20679754
     138         -0.797738        1.000000        0.25458966
     139         -0.797073        1.000000        0.21451300
     140         -0.795527        1.000000        0.24415671
     141         -0.794944        1.000000        0.19553159
     142         -0.793289        1.000000        0.22861408
     143         -0.792003        1.000000        0.21631882
     144         -0.791448        1.000000        0.20687412
     145         -0.790953        1.000000        0.18454209
     146         -0.789151        1.000000        0.24403054
     147         -0.787669        1.000000        0.20397603
     148         -0.786306        1.000000        0.19750184
     149         -0.783938        1.000000        0.21729017
     150         -0.782903        1.000000        0.18205830
     151         -0.781410        1.000000        0.16484890
     152         -0.781047        1.000000        0.24262453
     153         -0.780473        1.000000        0.13576137
     154         -0.780080        1.000000        0.20856530
     155         -0.778400        1.000000        0.21978347
     156         -0.773165        1.000000        0.18202261
     157         -0.771844        1.000000        0.17513954
     158         -0.767360        1.000000        0.19245814
     159         -0.761980        1.000000        0.18738292
     160         -0.761660        1.000000        0.17805231
     161         -0.758879        1.000000        0.16506666
     162         -0.750501        1.000000        0.17420525
     163         -0.661063        1.000000        0.02975895
     164         -0.607626        1.000000        0.34801628
     165         -0.595322        1.000000        0.34554724
     166         -0.591292        1.000000        0.34603079
     167         -0.586577        1.000000        0.34443899
     168         -0.575148        1.000000        0.35813383
     169         -0.568206        1.000000        0.37390050
     170         -0.560162        1.000000        0.36364079
     171         -0.550385        1.000000        0.00593431
     172         -0.540373        1.000000        0.00417922
     173         -0.529022        1.000000        0.01532764
     174         -0.523440        1.000000        0.06077599
     175         -0.518560        1.000000        0.01372498
     176         -0.517997        1.000000        0.01790257
     177         -0.515411        1.000000        0.00759418
     178         -0.513321        1.000000        0.01615372
     179         -0.513164        1.000000        0.12361300
     180         -0.511887        1.000000        0.02277766
     181         -0.510691        1.000000        0.04144103
     182         -0.509863        1.000000        0.01742378
     183         -0.509286        1.000000        0.03919464
     184         -0.508762        1.000000        0.05016807
     185         -0.507772        1.000000        0.02170154
     186         -0.506671        1.000000        0.02577284
     187         -0.504393        1.000000        0.05021242
     188         -0.502385        1.000000        0.06456587
     189         -0.501599        1.000000        0.02415832
     190         -0.499425        1.000000        0.01414884
     191         -0.498209        1.000000        0.03797052
     192         -0.496676        1.000000        0.01963964
     193         -0.495974        1.000000        0.02961530
     194         -0.494637        1.000000        0.00673903
     195         -0.494189        1.000000        0.04299511
     196         -0.493803        1.000000        0.01226379
     197         -0.493401        1.000000        0.01002312
     198         -0.492992        1.000000        0.02435083
     199         -0.490848        1.000000        0.01770964
     200         -0.489688        1.000000        0.03417217
     201         -0.488375        1.000000        0.03574820
     202         -0.488300        1.000000        0.03787660
     203         -0.487637        1.000000        0.02050254
     204         -0.487228        1.000000        0.05871720
     205         -0.486486        1.000000        0.17373193
     206         -0.485446        1.000000        0.03903818
     207         -0.481146        1.000000        0.00534863
     208         -0.471875        1.000000        0.30605842
     209         -0.469955        1.000000        0.29806113
     210         -0.469868        1.000000        0.35524166
     211         -0.469101        1.000000        0.27958609
     212         -0.468182        1.000000        0.29585422
     213         -0.466638        1.000000        0.28784680
     214         -0.465776        1.000000        0.27697785
     215         -0.465127        1.000000        0.26749880
     216         -0.462041        1.000000        0.35008020
     217         -0.461746        1.000000        0.27518799
     218         -0.457962        1.000000        0.32577558
     219         -0.456491        1.000000        0.21777672
     220         -0.454820        1.000000        0.30369923
     221         -0.452857        1.000000        0.32780487
     222         -0.450497        1.000000        0.33585208
     223         -0.449436        1.000000        0.34174362
     224         -0.448248        1.000000        0.35020654
     225         -0.445673        1.000000        0.32784595
     226         -0.445551        1.000000        0.34089494
     227         -0.444337        1.000000        0.33342584
     228         -0.444232        1.000000        0.33878036
     229         -0.442564        1.000000        0.34249915
     230         -0.441321        1.000000        0.34111520
     231         -0.441180        1.000000        0.34547624
     232         -0.440685        1.000000        0.35203324
     233         -0.440190        1.000000        0.34965113
     234         -0.438756        1.000000        0.34641818
     235         -0.438567        1.000000        0.34528206
     236         -0.437274        1.000000        0.30932337
     237         -0.435957        1.000000        0.35012451
     238         -0.434534        1.000000        0.33984579
     239         -0.433545        1.000000        0.34329686
     240         -0.433074        1.000000        0.34006415
     241         -0.432849        1.000000        0.33861702
     242         -0.431815        1.000000        0.34286537
     243         -0.431458        1.000000        0.34114467
     244         -0.430946        1.000000        0.34898235
     245         -0.430909        1.000000        0.34792869
     246         -0.429968        1.000000        0.35299395
     247         -0.429481        1.000000        0.34953846
     248         -0.428686        1.000000        0.35387737
     249         -0.428501        1.000000        0.33874542
     250         -0.427999        1.000000        0.34397282
     251         -0.427607        1.000000        0.34514976
     252         -0.426991        1.000000        0.34623318
     253         -0.426958        1.000000        0.34738416
     254         -0.425964        1.000000        0.34470190
     255         -0.425514        1.000000        0.35570431
     256         -0.424985        1.000000        0.33847096
     257         -0.423357        1.000000        0.33480802
     258         -0.422942        1.000000        0.33817925
     259         -0.422641        1.000000        0.34531146
     260         -0.422439        1.000000        0.34508046
     261         -0.421719        1.000000        0.33572569
     262         -0.421487        1.000000        0.34506456
     263         -0.420408        1.000000        0.34524557
     264         -0.420194        1.000000        0.33510074
     265         -0.419835        1.000000        0.34642000
     266         -0.418711        1.000000        0.35275795
     267         -0.418619        1.000000        0.33761945
     268         -0.418292        1.000000        0.34279624
     269         -0.418064        1.000000        0.34947869
     270         -0.417810        1.000000        0.34198944
     271         -0.417587        1.000000        0.35068570
     272         -0.417152        1.000000        0.35135741
     273         -0.416775        1.000000        0.34012032
     274         -0.416687        1.000000        0.33191911
     275         -0.416651        1.000000        0.34067183
     276         -0.416481        1.000000        0.34694424
     277         -0.416173        1.000000        0.33862929
     278         -0.416001        1.000000        0.34173806
     279         -0.415821        1.000000        0.34424481
     280         -0.415636        1.000000        0.34288816
     281         -0.415540        1.000000        0.34487042
     282         -0.415329        1.000000        0.34274796
     283         -0.415006        1.000000        0.34467887
     284         -0.414764        1.000000        0.34003875
     285         -0.414411        1.000000        0.34324979
     286         -0.413012        1.000000        0.34288253
     287         -0.412496        1.000000        0.34047896
     288         -0.412472        1.000000        0.33459124
     289         -0.411172        1.000000        0.35163720
     290         -0.410987        1.000000        0.34750167
     291         -0.410444        1.000000        0.33840918
     292         -0.409949        1.000000        0.34413869
     293         -0.409115        1.000000        0.34160898
     294         -0.408765        1.000000        0.34602446
     295         -0.408726        1.000000        0.33808610
     296         -0.408625        1.000000        0.34823611
     297         -0.408183        1.000000        0.34380600
     298         -0.408151        1.000000        0.33871745
     299         -0.408082        1.000000        0.34711996
     300         -0.405385        1.000000        0.34359382
     301         -0.404939        1.000000        0.34652147
     302         -0.404692        1.000000        0.34123372
     303         -0.404638        1.000000        0.33789537
     304         -0.404577        1.000000        0.34578101
     305         -0.404419        1.000000        0.34703370
     306         -0.403700        1.000000        0.34741729
     307         -0.403259        1.000000        0.34795791
     308         -0.403049        1.000000        0.33869414
     309         -0.402791        1.000000        0.34509654
     310         -0.402726        1.000000        0.34587637
     311         -0.402405        1.000000        0.34691159
     312         -0.402043        1.000000        0.34425992
     313         -0.401503        1.000000        0.33990261
     314         -0.401319        1.000000        0.34400329
     315         -0.400854        1.000000        0.34464416
     316         -0.400470        1.000000        0.34559781
     317         -0.400369        1.000000        0.32788163
     318         -0.399925        1.000000        0.34885623
     319         -0.399836        1.000000        0.34071135
     320         -0.399758        1.000000        0.33808396
     321         -0.399580        1.000000        0.35453915
     322         -0.399520        1.000000        0.33958462
     323         -0.399093        1.000000        0.34775293
     324         -0.398209        1.000000        0.34580017
     325         -0.397547        1.000000        0.33656620
     326         -0.397121        1.000000        0.33800658
     327         -0.395953        1.000000        0.34180609
     328         -0.395840        1.000000        0.33428529
     329         -0.395619        1.000000        0.34138391
     330         -0.394314        1.000000        0.34369764
     331         -0.393933        1.000000        0.33779757
     332         -0.393798        1.000000        0.35288454
     333         -0.393426        1.000000        0.35236016
     334         -0.393388        1.000000        0.34154035
     335         -0.392911        1.000000        0.34113771
     336         -0.392787        1.000000        0.33739077
     337         -0.392194        1.000000        0.33725227
     338         -0.391985        1.000000        0.34213662
     339         -0.391825        1.000000        0.34651324
     340         -0.391223        1.000000        0.33823042
     341         -0.390943        1.000000        0.34415619
     342         -0.390292        1.000000        0.33909941
     343         -0.389872        1.000000        0.11047446
     344         -0.389505        1.000000        0.32222949
     345         -0.389134        1.000000        0.31857364
     346         -0.388326        1.000000        0.33534681
     347         -0.388064        1.000000        0.33324739
     348         -0.387837        1.000000        0.31390375
     349         -0.387563        1.000000        0.26817439
     350         -0.387113        1.000000        0.30217069
     351         -0.386804        1.000000        0.18186036
     352         -0.386585        1.000000        0.11798514
     353         -0.385982        1.000000        0.33950352
     354         -0.385813        1.000000        0.31178310
     355         -0.385587        1.000000        0.32768715
     356         -0.385542        1.000000        0.34257728
     357         -0.385057        1.000000        0.31290425
     358         -0.384997        1.000000        0.32561322
     359         -0.384792        1.000000        0.29451295
     360         -0.383752        1.000000        0.33001373
     361         -0.383413        1.000000        0.11139847
     362         -0.381926        1.000000        0.33745584
     363         -0.381778        1.000000        0.28218914
     364         -0.380887        1.000000        0.32382350
     365         -0.380449        1.000000        0.27960009
     366         -0.380028        1.000000        0.07293005
     367         -0.379539        1.000000        0.06320951
     368         -0.378369        1.000000        0.06782293
     369         -0.377818        1.000000        0.32551661
     370         -0.376892        1.000000        0.32249232
     371         -0.376618        1.000000        0.34095246
     372         -0.376048        1.000000        0.32739638
     373         -0.374707        1.000000        0.32587905
     374         -0.374453        1.000000        0.20197636
     375         -0.373701        1.000000        0.06162837
     376         -0.372617        1.000000        0.30082231
     377         -0.372493        1.000000        0.28300703
     378         -0.372016        1.000000        0.33677161
     379         -0.371508        1.000000        0.19519309
     380         -0.370741        1.000000        0.34591602
     381         -0.369527        1.000000        0.12659470
     382         -0.366325        1.000000        0.27330187
     383         -0.366248        1.000000        0.21361822
     384         -0.365487        1.000000        0.36259402
     385         -0.362972        1.000000        0.34142824
     386         -0.360026        1.000000        0.34101356
     387         -0.359349        1.000000        0.35847892
     388         -0.358166        1.000000        0.34074187
     389         -0.356694        1.000000        0.34755089
     390         -0.353736        1.000000        0.17801268
     391         -0.345519        1.000000        0.17669176
     392         -0.340005        1.000000        0.36009705
     393         -0.339190        1.000000        0.18137936
     394         -0.335650        1.000000        0.20537223
     395         -0.327322        1.000000        0.14757795
     396         -0.326780        1.000000        0.40848551
     397         -0.326274        1.000000        0.18802561
     398         -0.323357        1.000000        0.39712709
     399         -0.319963        1.000000        0.13492871
     400         -0.319743        1.000000        0.12866095
     401         -0.317583        1.000000        0.15597217
     402         -0.316344        1.000000        0.14542948
     403         -0.314922        1.000000        0.16255077
     404         -0.314503        1.000000        0.15382277
     405         -0.313153        1.000000        0.41576424
     406         -0.312265        1.000000        0.19392182
     407         -0.311259        1.000000        0.17114994
     408         -0.310705        1.000000        0.41670358
     409         -0.310045        1.000000        0.15032383
     410         -0.309198        1.000000        0.40466968
     411         -0.309089        1.000000        0.16547512
     412         -0.307993        1.000000        0.39642996
     413         -0.307745        1.000000        0.20221717
     414         -0.307588        1.000000        0.16615984
     415         -0.304398        1.000000        0.29213975
     416         -0.303921        1.000000        0.39591956
     417         -0.303703        1.000000        0.19882539
     418         -0.303256        1.000000        0.41706160
     419         -0.302138        1.000000        0.16386104
     420         -0.301769        1.000000        0.15077939
     421         -0.301506        1.000000        0.15573002
     422         -0.299789        1.000000        0.16071237
     423         -0.299326        1.000000        0.12668038
     424         -0.297705        1.000000        0.20892366
     425         -0.297650        1.000000        0.17380520
     426         -0.297198        1.000000        0.10350519
     427         -0.296307        1.000000        0.17667624
     428         -0.295513        1.000000        0.41716010
     429         -0.295341        1.000000        0.19570791
     430         -0.294210        1.000000        0.12796263
     431         -0.293497        1.000000        0.13273101
     432         -0.292209        1.000000        0.19487124
     433         -0.292184        1.000000        0.39532796
     434         -0.290665        1.000000        0.14405286
     435         -0.290484        1.000000        0.18554251
     436         -0.289678        1.000000        0.15474216
     437         -0.289097        1.000000        0.17712513
     438         -0.286941        1.000000        0.19236024
     439         -0.286722        1.000000        0.13406834
     440         -0.286572        1.000000        0.16645486
     441         -0.285649        1.000000        0.14297031
     442         -0.284758        1.000000        0.16329316
     443         -0.284516        1.000000        0.14690442
     444         -0.282951        1.000000        0.12829508
     445         -0.282353        1.000000        0.15576373
     446         -0.281432        1.000000        0.20551477
     447         -0.280757        1.000000        0.15446492
     448         -0.279659        1.000000        0.12171468
     449         -0.279242        1.000000        0.12133320
     450         -0.278822        1.000000        0.22475482
     451         -0.278392        1.000000        0.13141706
     452         -0.277067        1.000000        0.12046080
     453         -0.276308        1.000000        0.09897199
     454         -0.275150        1.000000        0.11906726
     455         -0.274118        1.000000        0.15085842
     456         -0.272800        1.000000        0.10585643
     457         -0.272003        1.000000        0.10593709
     458         -0.270716        1.000000        0.11355546
     459         -0.268816        1.000000        0.12325124
     460         -0.268291        1.000000        0.10183434
     461         -0.267439        1.000000        0.13417588
     462         -0.266593        1.000000        0.12770400
     463         -0.266202        1.000000        0.11376555
     464         -0.265417        1.000000        0.12025479
     465         -0.264700        1.000000        0.12958901
     466         -0.264121        1.000000        0.11673182
     467         -0.262295        1.000000        0.11020863
     468         -0.261537        1.000000        0.10943383
     469         -0.259604        1.000000        0.10404508
     470         -0.258684        1.000000        0.10292312
     471         -0.258125        1.000000        0.10719065
     472         -0.257066        1.000000        0.10572496
     473         -0.256447        1.000000        0.09599366
     474         -0.255537        1.000000        0.10637749
     475         -0.255011        1.000000        0.09138095
     476         -0.254236        1.000000        0.09281316
     477         -0.251722        1.000000        0.08746709
     478         -0.251037        1.000000        0.07730205
     479         -0.249652        1.000000        0.08276621
     480         -0.249238        1.000000        0.09195147
     481         -0.246981        1.000000        0.07340906
     482         -0.245691        1.000000        0.11072432
     483         -0.244164        1.000000        0.10045427
     484         -0.243612        1.000000        0.08480247
     485         -0.243036        1.000000        0.08450423
     486         -0.241689        1.000000        0.06278935
     487         -0.240999        1.000000        0.08536323
     488         -0.240542        1.000000        0.08456058
     489         -0.239994        1.000000        0.07163204