# Projected DOS for atomic kind I at iteration step i = 0, E(Fermi) =    -0.099966 a.u.
#     MO Eigenvalue [a.u.]      Occupation                 s                py                pz                px
       1         -0.913915        1.000000        0.00009522        0.00014219        0.00002865        0.00027085
       2         -0.912939        1.000000        0.00015347        0.00001853        0.00007903        0.00052483
       3         -0.906357        1.000000        0.00016072        0.00024542        0.00024818        0.00014195
       4         -0.899839        1.000000        0.00017459        0.00000161        0.00057310        0.00005342
       5         -0.894572        1.000000        0.00007760        0.00002963        0.00022647        0.00019262
       6         -0.888063        1.000000        0.00011066        0.00029588        0.00003288        0.00013014
       7         -0.887459        1.000000        0.00001628        0.00004279        0.00002179        0.00004372
       8         -0.882635        1.000000        0.00011039        0.00000922        0.00006290        0.00038416
       9         -0.882205        1.000000        0.00014379        0.00010433        0.00010531        0.00041943
      10         -0.879667        1.000000        0.00016993        0.00027225        0.00032003        0.00000450
      11         -0.876306        1.000000        0.00006975        0.00012719        0.00004826        0.00032453
      12         -0.873893        1.000000        0.00002627        0.00003615        0.00000351        0.00009822
      13         -0.873223        1.000000        0.00005581        0.00004138        0.00010522        0.00016477
      14         -0.870873        1.000000        0.00006838        0.00015649        0.00003670        0.00008379
      15         -0.870325        1.000000        0.00005896        0.00004215        0.00009476        0.00009726
      16         -0.870039        1.000000        0.00002398        0.00007242        0.00006043        0.00003091
      17         -0.869315        1.000000        0.00002869        0.00002185        0.00006752        0.00003854
      18         -0.868457        1.000000        0.00002532        0.00006230        0.00005604        0.00003095
      19         -0.867215        1.000000        0.00001244        0.00001720        0.00003475        0.00001492
      20         -0.866224        1.000000        0.00004958        0.00000476        0.00000904        0.00027679
      21         -0.865235        1.000000        0.00003677        0.00003630        0.00008734        0.00006816
      22         -0.864972        1.000000        0.00008136        0.00009630        0.00001132        0.00031037
      23         -0.864660        1.000000        0.00006417        0.00012647        0.00007871        0.00015940
      24         -0.863384        1.000000        0.00005453        0.00019376        0.00005887        0.00016933
      25         -0.862861        1.000000        0.00001120        0.00008552        0.00004323        0.00001563
      26         -0.861362        1.000000        0.00018141        0.00018438        0.00022799        0.00014446
      27         -0.861193        1.000000        0.00001941        0.00011185        0.00005906        0.00004942
      28         -0.861119        1.000000        0.00010931        0.00013402        0.00019228        0.00010052
      29         -0.860238        1.000000        0.00025864        0.00050161        0.00038246        0.00018151
      30         -0.859497        1.000000        0.00000132        0.00000456        0.00001298        0.00000658
      31         -0.858826        1.000000        0.00003171        0.00003816        0.00003075        0.00009205
      32         -0.857777        1.000000        0.00003335        0.00007893        0.00007187        0.00004975
      33         -0.856988        1.000000        0.00001472        0.00001757        0.00001454        0.00005852
      34         -0.856638        1.000000        0.00001967        0.00002914        0.00001598        0.00009925
      35         -0.854935        1.000000        0.00012626        0.00009036        0.00019679        0.00006934
      36         -0.854324        1.000000        0.00003711        0.00009717        0.00003382        0.00005451
      37         -0.854154        1.000000        0.00002518        0.00006965        0.00002392        0.00003109
      38         -0.853497        1.000000        0.00006851        0.00009604        0.00016449        0.00006897
      39         -0.851848        1.000000        0.00004011        0.00004166        0.00006517        0.00009973
      40         -0.851655        1.000000        0.00001861        0.00004824        0.00005530        0.00004022
      41         -0.850903        1.000000        0.00003319        0.00010974        0.00001944        0.00002928
      42         -0.850370        1.000000        0.00018200        0.00036016        0.00020572        0.00034047
      43         -0.850073        1.000000        0.00001940        0.00005334        0.00001606        0.00001512
      44         -0.849625        1.000000        0.00005686        0.00004839        0.00012969        0.00023624
      45         -0.849377        1.000000        0.00006420        0.00009846        0.00002715        0.00004483
      46         -0.849132        1.000000        0.00004993        0.00002300        0.00008491        0.00005015
      47         -0.848349        1.000000        0.00015784        0.00021311        0.00010842        0.00005641
      48         -0.848098        1.000000        0.00001896        0.00007224        0.00001885        0.00005630
      49         -0.847662        1.000000        0.00026060        0.00023961        0.00026325        0.00005608
      50         -0.846371        1.000000        0.00021386        0.00050769        0.00025045        0.00022081
      51         -0.845677        1.000000        0.00002659        0.00001765        0.00004392        0.00003038
      52         -0.845587        1.000000        0.00004252        0.00007321        0.00003457        0.00003648
      53         -0.845562        1.000000        0.00003812        0.00007958        0.00004821        0.00007195
      54         -0.845208        1.000000        0.00023153        0.00049884        0.00020745        0.00035410
      55         -0.845184        1.000000        0.00005140        0.00009410        0.00004106        0.00003131
      56         -0.843739        1.000000        0.00000685        0.00001836        0.00000731        0.00004046
      57         -0.843481        1.000000        0.00010445        0.00011547        0.00015805        0.00005769
      58         -0.842588        1.000000        0.00004350        0.00004322        0.00004575        0.00003654
      59         -0.842033        1.000000        0.00001949        0.00001516        0.00002141        0.00009106
      60         -0.841970        1.000000        0.00002261        0.00001436        0.00004559        0.00006240
      61         -0.841020        1.000000        0.00001965        0.00000984        0.00003908        0.00011842
      62         -0.840785        1.000000        0.00003763        0.00001343        0.00002796        0.00006504
      63         -0.840511        1.000000        0.00005644        0.00004736        0.00015863        0.00003039
      64         -0.840235        1.000000        0.00008163        0.00010839        0.00005009        0.00005242
      65         -0.839378        1.000000        0.00001365        0.00002404        0.00003708        0.00002549
      66         -0.839035        1.000000        0.00013353        0.00014461        0.00008979        0.00005491
      67         -0.838977        1.000000        0.00002880        0.00004756        0.00004053        0.00002513
      68         -0.838581        1.000000        0.00007177        0.00010632        0.00004809        0.00007774
      69         -0.838309        1.000000        0.00001369        0.00002385        0.00003819        0.00002408
      70         -0.838079        1.000000        0.00007369        0.00003320        0.00006251        0.00013863
      71         -0.837989        1.000000        0.00002320        0.00003377        0.00005563        0.00006964
      72         -0.837689        1.000000        0.00002069        0.00003288        0.00004571        0.00003446
      73         -0.836867        1.000000        0.00002406        0.00002912        0.00005389        0.00002859
      74         -0.836171        1.000000        0.00001258        0.00000433        0.00003224        0.00007160
      75         -0.835386        1.000000        0.00002848        0.00003596        0.00001847        0.00004003
      76         -0.835164        1.000000        0.00004887        0.00004682        0.00010030        0.00002270
      77         -0.834926        1.000000        0.00003711        0.00002769        0.00010111        0.00004767
      78         -0.834817        1.000000        0.00002533        0.00003200        0.00008107        0.00001544
      79         -0.833529        1.000000        0.00008223        0.00008347        0.00008211        0.00004209
      80         -0.833410        1.000000        0.00010468        0.00010726        0.00009964        0.00004563
      81         -0.833175        1.000000        0.00003527        0.00002718        0.00012244        0.00007755
      82         -0.831860        1.000000        0.00011041        0.00010841        0.00007437        0.00003367
      83         -0.830408        1.000000        0.00007110        0.00002973        0.00011130        0.00010680
      84         -0.830304        1.000000        0.00002288        0.00002818        0.00003788        0.00002461
      85         -0.830249        1.000000        0.00005770        0.00010379        0.00008894        0.00005222
      86         -0.830040        1.000000        0.00008829        0.00013230        0.00006290        0.00002783
      87         -0.829371        1.000000        0.00001701        0.00002539        0.00002669        0.00003350
      88         -0.828571        1.000000        0.00011764        0.00015678        0.00022259        0.00003309
      89         -0.827989        1.000000        0.00010467        0.00033812        0.00005993        0.00000465
      90         -0.826492        1.000000        0.00006739        0.00004300        0.00011774        0.00005846
      91         -0.826183        1.000000        0.00014399        0.00009302        0.00019379        0.00004995
      92         -0.825342        1.000000        0.00001663        0.00004918        0.00003381        0.00003014
      93         -0.824909        1.000000        0.00005547        0.00009549        0.00002447        0.00002362
      94         -0.824447        1.000000        0.00008280        0.00009373        0.00006772        0.00005482
      95         -0.824296        1.000000        0.00004279        0.00005244        0.00004941        0.00004547
      96         -0.823245        1.000000        0.00003125        0.00006380        0.00003942        0.00005254
      97         -0.822622        1.000000        0.00007586        0.00009823        0.00004659        0.00001920
      98         -0.822474        1.000000        0.00032517        0.00033989        0.00017957        0.00001935
      99         -0.822339        1.000000        0.00005675        0.00007633        0.00003882        0.00001606
     100         -0.822108        1.000000        0.00002089        0.00005288        0.00000472        0.00001977
     101         -0.821901        1.000000        0.00003336        0.00006098        0.00001494        0.00002207
     102         -0.821257        1.000000        0.00003214        0.00009215        0.00006630        0.00004798
     103         -0.820190        1.000000        0.00001265        0.00001904        0.00010268        0.00003336
     104         -0.818759        1.000000        0.00005565        0.00007322        0.00003035        0.00003045
     105         -0.818706        1.000000        0.00001751        0.00001928        0.00003962        0.00001640
     106         -0.818623        1.000000        0.00002073        0.00002225        0.00003169        0.00002427
     107         -0.818410        1.000000        0.00000822        0.00001151        0.00005286        0.00002861
     108         -0.817283        1.000000        0.00007453        0.00014827        0.00001655        0.00003939
     109         -0.816787        1.000000        0.00006076        0.00003017        0.00004908        0.00017227
     110         -0.816356        1.000000        0.00008883        0.00007312        0.00007170        0.00004126
     111         -0.816228        1.000000        0.00001931        0.00004562        0.00002772        0.00003367
     112         -0.815692        1.000000        0.00001993        0.00004064        0.00003094        0.00002803
     113         -0.815450        1.000000        0.00002948        0.00002762        0.00003781        0.00001795
     114         -0.814934        1.000000        0.00006611        0.00005721        0.00001660        0.00004619
     115         -0.814247        1.000000        0.00002610        0.00001907        0.00003324        0.00004745
     116         -0.813429        1.000000        0.00002803        0.00004288        0.00002489        0.00008486
     117         -0.812921        1.000000        0.00061636        0.00085761        0.00002782        0.00014085
     118         -0.812523        1.000000        0.00005768        0.00014219        0.00008766        0.00004594
     119         -0.811921        1.000000        0.00028670        0.00023469        0.00016544        0.00007233
     120         -0.811500        1.000000        0.00010180        0.00009441        0.00001297        0.00009788
     121         -0.808618        1.000000        0.00016178        0.00031429        0.00000073        0.00002521
     122         -0.808547        1.000000        0.00002644        0.00000243        0.00001487        0.00005148
     123         -0.808270        1.000000        0.00003797        0.00002247        0.00001972        0.00005631
     124         -0.807451        1.000000        0.00006236        0.00006282        0.00005830        0.00002900
     125         -0.806040        1.000000        0.00005400        0.00000709        0.00014168        0.00004956
     126         -0.805334        1.000000        0.00006899        0.00009020        0.00004166        0.00002342
     127         -0.804378        1.000000        0.00001301        0.00001193        0.00001669        0.00001261
     128         -0.804263        1.000000        0.00005605        0.00009804        0.00011378        0.00003007
     129         -0.804136        1.000000        0.00010467        0.00003287        0.00017379        0.00005581
     130         -0.803831        1.000000        0.00008635        0.00006548        0.00007793        0.00006817
     131         -0.803375        1.000000        0.00002581        0.00003425        0.00009796        0.00006765
     132         -0.802027        1.000000        0.00007652        0.00007598        0.00009203        0.00006424
     133         -0.801940        1.000000        0.00001822        0.00003122        0.00008856        0.00001524
     134         -0.801444        1.000000        0.00019349        0.00010595        0.00014744        0.00002993
     135         -0.799343        1.000000        0.00007000        0.00009041        0.00002237        0.00002755
     136         -0.799335        1.000000        0.00001168        0.00002034        0.00008896        0.00004649
     137         -0.797767        1.000000        0.00012148        0.00011279        0.00002174        0.00005619
     138         -0.797738        1.000000        0.00007820        0.00001096        0.00034192        0.00003650
     139         -0.797073        1.000000        0.00005834        0.00007223        0.00003398        0.00001679
     140         -0.795527        1.000000        0.00000598        0.00001910        0.00004408        0.00001163
     141         -0.794944        1.000000        0.00000528        0.00000465        0.00000157        0.00001805
     142         -0.793289        1.000000        0.00004976        0.00000921        0.00006292        0.00017844
     143         -0.792003        1.000000        0.00001916        0.00000747        0.00007851        0.00000970
     144         -0.791448        1.000000        0.00000441        0.00004054        0.00002623        0.00001543
     145         -0.790953        1.000000        0.00006263        0.00010028        0.00001331        0.00001669
     146         -0.789151        1.000000        0.00005464        0.00010614        0.00008635        0.00002632
     147         -0.787669        1.000000        0.00000845        0.00001158        0.00000575        0.00002559
     148         -0.786306        1.000000        0.00007331        0.00011243        0.00002756        0.00001012
     149         -0.783938        1.000000        0.00015666        0.00013743        0.00009409        0.00000249
     150         -0.782903        1.000000        0.00000250        0.00000187        0.00000100        0.00000722
     151         -0.781410        1.000000        0.00823978        0.00849231        0.00032221        0.00145409
     152         -0.781047        1.000000        0.00000259        0.00000504        0.00002563        0.00000297
     153         -0.780473        1.000000        0.01058238        0.00674645        0.00467962        0.00062516
     154         -0.780080        1.000000        0.00003261        0.00002806        0.00000240        0.00006077
     155         -0.778400        1.000000        0.00001138        0.00000982        0.00006783        0.00000588
     156         -0.773165        1.000000        0.00016028        0.00037574        0.00003277        0.00006026
     157         -0.771844        1.000000        0.00035164        0.00064751        0.00008264        0.00016346
     158         -0.767360        1.000000        0.00000421        0.00001163        0.00000542        0.00000465
     159         -0.761980        1.000000        0.00000062        0.00000846        0.00001025        0.00000522
     160         -0.761660        1.000000        0.00079182        0.00000772        0.00148561        0.00060140
     161         -0.758879        1.000000        0.00000214        0.00000289        0.00000057        0.00000618
     162         -0.750501        1.000000        0.00002555        0.00001110        0.00006511        0.00000333
     163         -0.661063        1.000000        0.00001613        0.00000220        0.00000997        0.00000372
     164         -0.607626        1.000000        0.00275679        0.00057311        0.00043264        0.00030267
     165         -0.595322        1.000000        0.00267049        0.00045824        0.00041373        0.00030800
     166         -0.591292        1.000000        0.00220249        0.00051408        0.00024507        0.00018821
     167         -0.586577        1.000000        0.00456749        0.00049336        0.00094530        0.00066108
     168         -0.575148        1.000000        0.00218328        0.00026431        0.00035961        0.00035188
     169         -0.568206        1.000000        0.00137554        0.00002572        0.00011253        0.00021249
     170         -0.560162        1.000000        0.00265537        0.00023410        0.00018793        0.00039897
     171         -0.550385        1.000000        0.94801725        0.01331635        0.00046064        0.00222907
     172         -0.540373        1.000000        0.93650257        0.00059398        0.00062685        0.00090250
     173         -0.529022        1.000000        0.85104840        0.00336394        0.00342722        0.00268337
     174         -0.523440        1.000000        0.80363594        0.00101699        0.00129015        0.00453279
     175         -0.518560        1.000000        0.83742659        0.00392301        0.00369157        0.00351615
     176         -0.517997        1.000000        0.83113149        0.00291732        0.00759465        0.00421449
     177         -0.515411        1.000000        0.85685872        0.00377622        0.00546789        0.00337650
     178         -0.513321        1.000000        0.80057186        0.00726548        0.00411776        0.00653400
     179         -0.513164        1.000000        0.72679290        0.00010955        0.00308542        0.00113300
     180         -0.511887        1.000000        0.86262473        0.00369589        0.00213209        0.00309256
     181         -0.510691        1.000000        0.83065897        0.00192644        0.00247026        0.00182433
     182         -0.509863        1.000000        0.80685675        0.00631947        0.00698928        0.00591700
     183         -0.509286        1.000000        0.86239552        0.00125552        0.00125926        0.00097320
     184         -0.508762        1.000000        0.83814774        0.00176172        0.00084182        0.00095647
     185         -0.507772        1.000000        0.89161548        0.00167881        0.00257752        0.00139440
     186         -0.506671        1.000000        0.90407245        0.00152427        0.00277516        0.00089160
     187         -0.504393        1.000000        0.83194098        0.00248120        0.00172720        0.00167853
     188         -0.502385        1.000000        0.79365626        0.00273133        0.00162800        0.00210846
     189         -0.501599        1.000000        0.89707486        0.00286400        0.00098884        0.00054041
     190         -0.499425        1.000000        0.92132058        0.00782381        0.00097120        0.00319396
     191         -0.498209        1.000000        0.86679901        0.00185589        0.00123669        0.00082072
     192         -0.496676        1.000000        0.91221841        0.00366598        0.00085392        0.00147250
     193         -0.495974        1.000000        0.87261858        0.00201322        0.00112067        0.00153457
     194         -0.494637        1.000000        0.93378253        0.00123047        0.00048663        0.00081952
     195         -0.494189        1.000000        0.86103027        0.00061413        0.00071669        0.00143525
     196         -0.493803        1.000000        0.92677852        0.00047252        0.00068822        0.00119497
     197         -0.493401        1.000000        0.92361469        0.00062757        0.00021193        0.00302176
     198         -0.492992        1.000000        0.88064926        0.00134774        0.00163842        0.00103827
     199         -0.490848        1.000000        0.91730750        0.00075662        0.00194175        0.00093922
     200         -0.489688        1.000000        0.88442888        0.00155024        0.00069379        0.00048749
     201         -0.488375        1.000000        0.87192719        0.00159829        0.00112894        0.00076397
     202         -0.488300        1.000000        0.86395715        0.00166229        0.00087443        0.00087203
     203         -0.487637        1.000000        0.90503129        0.00075552        0.00056200        0.00101500
     204         -0.487228        1.000000        0.80485759        0.00124419        0.00181228        0.00094770
     205         -0.486486        1.000000        0.47660931        0.00158170        0.00440765        0.00150279
     206         -0.485446        1.000000        0.87359993        0.00139251        0.00102588        0.00095848
     207         -0.481146        1.000000        0.96860627        0.00021854        0.00028209        0.00091743
     208         -0.471875        1.000000        0.08258478        0.00679733        0.00255884        0.00251994
     209         -0.469955        1.000000        0.10209102        0.00295724        0.00084818        0.00290898
     210         -0.469868        1.000000        0.00008948        0.00008014        0.00987784        0.00757107
     211         -0.469101        1.000000        0.13557936        0.00225775        0.00075230        0.00228679
     212         -0.468182        1.000000        0.12845515        0.00289434        0.00143268        0.00085351
     213         -0.466638        1.000000        0.10484753        0.00444582        0.00099152        0.00366780
     214         -0.465776        1.000000        0.12992120        0.00396586        0.00248516        0.00186255
     215         -0.465127        1.000000        0.13828012        0.00346051        0.00045305        0.00355323
     216         -0.462041        1.000000        0.00921740        0.00005287        0.00059769        0.00101399
     217         -0.461746        1.000000        0.12936430        0.00269626        0.00090766        0.00108278
     218         -0.457962        1.000000        0.06124197        0.00192619        0.00106090        0.00169622
     219         -0.456491        1.000000        0.25774676        0.00152690        0.00062563        0.00263742
     220         -0.454820        1.000000        0.11183297        0.00095182        0.00147777        0.00531253
     221         -0.452857        1.000000        0.02357911        0.00144366        0.00106239        0.00103228
     222         -0.450497        1.000000        0.00068234        0.00005112        0.00000736        0.00005105
     223         -0.449436        1.000000        0.00008529        0.00001299        0.00002738        0.00010221
     224         -0.448248        1.000000        0.00125878        0.00005955        0.00005813        0.00031967
     225         -0.445673        1.000000        0.01246383        0.00148954        0.00048765        0.00112618
     226         -0.445551        1.000000        0.00700366        0.00019693        0.00151864        0.00284875
     227         -0.444337        1.000000        0.02788012        0.00278719        0.00117944        0.00067220
     228         -0.444232        1.000000        0.03717062        0.00467182        0.00292421        0.00020479
     229         -0.442564        1.000000        0.00011237        0.00008047        0.00004360        0.00007277
     230         -0.441321        1.000000        0.03151133        0.00011904        0.00034001        0.00715965
     231         -0.441180        1.000000        0.00149305        0.00016659        0.00101015        0.00022037
     232         -0.440685        1.000000        0.00408110        0.00027367        0.00011209        0.00075659
     233         -0.440190        1.000000        0.01366162        0.00017402        0.00027693        0.00568044
     234         -0.438756        1.000000        0.01771915        0.00019432        0.00053746        0.00125085
     235         -0.438567        1.000000        0.00301383        0.00006779        0.00013726        0.00034362
     236         -0.437274        1.000000        0.09175964        0.00019901        0.00002874        0.00216613
     237         -0.435957        1.000000        0.00133605        0.00012740        0.00010289        0.00004680
     238         -0.434534        1.000000        0.02094675        0.00336558        0.00050488        0.00174124
     239         -0.433545        1.000000        0.00289472        0.00003172        0.00027841        0.00024565
     240         -0.433074        1.000000        0.01220131        0.00034162        0.00036273        0.00074736
     241         -0.432849        1.000000        0.00708748        0.00107932        0.00311187        0.00052272
     242         -0.431815        1.000000        0.00153917        0.00045734        0.00053616        0.00010330
     243         -0.431458        1.000000        0.00246944        0.00039533        0.00089902        0.00006912
     244         -0.430946        1.000000        0.00005970        0.00004469        0.00000488        0.00001240
     245         -0.430909        1.000000        0.00178960        0.00018080        0.00017384        0.00042793
     246         -0.429968        1.000000        0.00148003        0.00008554        0.00018037        0.00019127
     247         -0.429481        1.000000        0.00055421        0.00009244        0.00002776        0.00003580
     248         -0.428686        1.000000        0.00334691        0.00100900        0.00008365        0.00005756
     249         -0.428501        1.000000        0.00099182        0.00018199        0.00016671        0.00005076
     250         -0.427999        1.000000        0.00853460        0.00163032        0.00111034        0.00027016
     251         -0.427607        1.000000        0.01186152        0.00197646        0.00074175        0.00248381
     252         -0.426991        1.000000        0.00352398        0.00006055        0.00040601        0.00040474
     253         -0.426958        1.000000        0.00012365        0.00006945        0.00002233        0.00020071
     254         -0.425964        1.000000        0.00222688        0.00088237        0.00003358        0.00027008
     255         -0.425514        1.000000        0.00075515        0.00028033        0.00006266        0.00007581
     256         -0.424985        1.000000        0.00454238        0.00087676        0.00018264        0.00031785
     257         -0.423357        1.000000        0.00144316        0.00007446        0.00021355        0.00066985
     258         -0.422942        1.000000        0.00170818        0.00018885        0.00039895        0.00023796
     259         -0.422641        1.000000        0.00220860        0.00118717        0.00038017        0.00023917