# Projected DOS for atomic kind O at iteration step i = 0, E(Fermi) =    -0.099966 a.u.
#     MO Eigenvalue [a.u.]      Occupation                 s                py                pz                px
       1         -0.913915        1.000000        0.71522252        0.00129941        0.00754223        0.02404634
       2         -0.912939        1.000000        0.71416635        0.01282252        0.01600285        0.00250368
       3         -0.906357        1.000000        0.71412753        0.00676290        0.01025385        0.01472606
       4         -0.899839        1.000000        0.71196683        0.01707043        0.00977077        0.00361825
       5         -0.894572        1.000000        0.71394615        0.01230455        0.00122442        0.01358399
       6         -0.888063        1.000000        0.72042460        0.00498911        0.00802001        0.01888645
       7         -0.887459        1.000000        0.83173528        0.00380637        0.02685872        0.05741827
       8         -0.882635        1.000000        0.70452686        0.00149008        0.03620743        0.00056271
       9         -0.882205        1.000000        0.70606796        0.00739746        0.00157188        0.02509481
      10         -0.879667        1.000000        0.70846401        0.00532551        0.00312303        0.02800584
      11         -0.876306        1.000000        0.71132840        0.00174836        0.02204387        0.00257254
      12         -0.873893        1.000000        0.71036557        0.00594394        0.00769006        0.01675972
      13         -0.873223        1.000000        0.70158083        0.00258604        0.00973065        0.01027581
      14         -0.870873        1.000000        0.70447547        0.01085440        0.00622595        0.00358144
      15         -0.870325        1.000000        0.70389303        0.00444665        0.00513426        0.00470867
      16         -0.870039        1.000000        0.70225110        0.00628485        0.02104356        0.00747096
      17         -0.869315        1.000000        0.71045315        0.01112449        0.00351344        0.00372923
      18         -0.868457        1.000000        0.70548940        0.00729409        0.01921301        0.00914619
      19         -0.867215        1.000000        0.71331560        0.00903644        0.00912657        0.00610171
      20         -0.866224        1.000000        0.70577908        0.00452473        0.00280873        0.00822360
      21         -0.865235        1.000000        0.69525035        0.00640977        0.00757575        0.00677368
      22         -0.864972        1.000000        0.70169700        0.00521018        0.00121395        0.03281811
      23         -0.864660        1.000000        0.70988814        0.01923120        0.00330835        0.00333046
      24         -0.863384        1.000000        0.70214571        0.00532947        0.00441676        0.00727320
      25         -0.862861        1.000000        0.69704619        0.01815730        0.00444369        0.00308949
      26         -0.861362        1.000000        0.70902407        0.00604821        0.00486144        0.00855753
      27         -0.861193        1.000000        0.70263399        0.01089746        0.00954615        0.00854436
      28         -0.861119        1.000000        0.61228211        0.00567783        0.00393904        0.00795876
      29         -0.860238        1.000000        0.10783534        0.00131607        0.00069807        0.00102079
      30         -0.859497        1.000000        0.69792498        0.01051102        0.00713110        0.00727639
      31         -0.858826        1.000000        0.71913609        0.01240301        0.00663643        0.00585189
      32         -0.857777        1.000000        0.69668077        0.00619982        0.00417830        0.00794661
      33         -0.856988        1.000000        0.71358278        0.01867138        0.01067509        0.00492097
      34         -0.856638        1.000000        0.70992601        0.01200857        0.00715776        0.01314605
      35         -0.854935        1.000000        0.71436228        0.01232504        0.00592511        0.00946799
      36         -0.854324        1.000000        0.71923369        0.00755755        0.00832836        0.01022609
      37         -0.854154        1.000000        0.70615035        0.00914637        0.00772656        0.00845898
      38         -0.853497        1.000000        0.71477208        0.01227126        0.00695511        0.00872404
      39         -0.851848        1.000000        0.70677819        0.00795254        0.01480889        0.00769759
      40         -0.851655        1.000000        0.71085737        0.00986499        0.01395528        0.00788160
      41         -0.850903        1.000000        0.70991267        0.01098382        0.00738848        0.00963725
      42         -0.850370        1.000000        0.00838391        0.00009573        0.00016986        0.00010101
      43         -0.850073        1.000000        0.70314348        0.00999829        0.00634839        0.00625712
      44         -0.849625        1.000000        0.70262037        0.01183090        0.00879819        0.00875656
      45         -0.849377        1.000000        0.70954351        0.00995550        0.00502289        0.00579337
      46         -0.849132        1.000000        0.70856233        0.00891744        0.01434236        0.00876835
      47         -0.848349        1.000000        0.70928519        0.01138744        0.00464362        0.00638765
      48         -0.848098        1.000000        0.71603300        0.00098008        0.03834468        0.00150076
      49         -0.847662        1.000000        0.72389212        0.01073582        0.00822603        0.00721173
      50         -0.846371        1.000000        0.00251013        0.00003718        0.00003042        0.00001020
      51         -0.845677        1.000000        0.69134583        0.01085232        0.00637993        0.00896303
      52         -0.845587        1.000000        0.70336421        0.01132668        0.00647368        0.00791860
      53         -0.845562        1.000000        0.71640569        0.00710300        0.01049121        0.00783659
      54         -0.845208        1.000000        0.00004903        0.00000082        0.00000046        0.00000056
      55         -0.845184        1.000000        0.70878287        0.01230315        0.00664238        0.00769162
      56         -0.843739        1.000000        0.73172187        0.01397215        0.00842845        0.00543706
      57         -0.843481        1.000000        0.71525430        0.01262361        0.00616652        0.00685226
      58         -0.842588        1.000000        0.71333626        0.01281347        0.00539570        0.00710198
      59         -0.842033        1.000000        0.70642608        0.00415246        0.00498772        0.00978061
      60         -0.841970        1.000000        0.70850923        0.00802780        0.00693996        0.00772578
      61         -0.841020        1.000000        0.71011167        0.01076736        0.00750438        0.00597584
      62         -0.840785        1.000000        0.72687960        0.01133225        0.00774294        0.01000330
      63         -0.840511        1.000000        0.70846686        0.02363938        0.00661931        0.00897424
      64         -0.840235        1.000000        0.72352901        0.01254117        0.00572671        0.00892972
      65         -0.839378        1.000000        0.72090130        0.01450994        0.00854998        0.00946962
      66         -0.839035        1.000000        0.72845133        0.01198491        0.00848008        0.00867061
      67         -0.838977        1.000000        0.71478966        0.01014980        0.00828036        0.00615795
      68         -0.838581        1.000000        0.72161796        0.01187334        0.00762022        0.00757731
      69         -0.838309        1.000000        0.71398080        0.00415368        0.01544214        0.01283895
      70         -0.838079        1.000000        0.72292064        0.01805921        0.00701941        0.00605163
      71         -0.837989        1.000000        0.72729638        0.01301514        0.00781471        0.00864973
      72         -0.837689        1.000000        0.73007434        0.01383271        0.01134016        0.00727190
      73         -0.836867        1.000000        0.72318271        0.00782641        0.01199320        0.00968458
      74         -0.836171        1.000000        0.73185293        0.01428687        0.00632339        0.01047855
      75         -0.835386        1.000000        0.72045550        0.01244635        0.00634785        0.00863953
      76         -0.835164        1.000000        0.70246171        0.01331387        0.00929099        0.00833912
      77         -0.834926        1.000000        0.72689842        0.01069216        0.00878659        0.01159598
      78         -0.834817        1.000000        0.70203713        0.01549085        0.00959293        0.00793053
      79         -0.833529        1.000000        0.72905288        0.01662966        0.00589747        0.01080927
      80         -0.833410        1.000000        0.72824897        0.01546804        0.00661062        0.01104568
      81         -0.833175        1.000000        0.72156922        0.01135267        0.01367493        0.00980737
      82         -0.831860        1.000000        0.72054195        0.00870494        0.00918300        0.00823598
      83         -0.830408        1.000000        0.72103089        0.01094762        0.01442493        0.00711849
      84         -0.830304        1.000000        0.72826151        0.01301132        0.00976137        0.00857086
      85         -0.830249        1.000000        0.72206318        0.01366935        0.01044459        0.00804187
      86         -0.830040        1.000000        0.72126438        0.01616261        0.00922600        0.00783717
      87         -0.829371        1.000000        0.71896578        0.00450863        0.01449737        0.01051886
      88         -0.828571        1.000000        0.72552967        0.01190893        0.00927993        0.00713037
      89         -0.827989        1.000000        0.70785488        0.01190497        0.00598981        0.00609556
      90         -0.826492        1.000000        0.73383737        0.01453848        0.00980151        0.01007216
      91         -0.826183        1.000000        0.73191938        0.01338528        0.00977809        0.01022926
      92         -0.825342        1.000000        0.70758821        0.00950755        0.00918081        0.00562030
      93         -0.824909        1.000000        0.73328985        0.01260209        0.00756949        0.00944533
      94         -0.824447        1.000000        0.73815105        0.01593069        0.00799430        0.00799208
      95         -0.824296        1.000000        0.73711052        0.01399977        0.00947891        0.00883701
      96         -0.823245        1.000000        0.74192012        0.01098346        0.00883517        0.01118793
      97         -0.822622        1.000000        0.71318555        0.01298148        0.00866440        0.01400901
      98         -0.822474        1.000000        0.75317102        0.01266075        0.00812084        0.01378931
      99         -0.822339        1.000000        0.71820840        0.01416311        0.00820456        0.01388026
     100         -0.822108        1.000000        0.72556850        0.01406931        0.00399710        0.01375205
     101         -0.821901        1.000000        0.72949147        0.01397374        0.00743432        0.01054032
     102         -0.821257        1.000000        0.31946371        0.00506765        0.00460917        0.00722529
     103         -0.820190        1.000000        0.74936773        0.01619531        0.00961318        0.00688700
     104         -0.818759        1.000000        0.74291826        0.01462186        0.00750021        0.00994734
     105         -0.818706        1.000000        0.72405320        0.02073601        0.01344744        0.00471509
     106         -0.818623        1.000000        0.73169988        0.02047763        0.01232643        0.00515950
     107         -0.818410        1.000000        0.73738720        0.01594641        0.01385132        0.00667564
     108         -0.817283        1.000000        0.73768195        0.01878345        0.00874224        0.00358836
     109         -0.816787        1.000000        0.73984030        0.01359747        0.01339691        0.00834545
     110         -0.816356        1.000000        0.75113399        0.01775429        0.00795667        0.01018127
     111         -0.816228        1.000000        0.69643972        0.00896740        0.00919121        0.01117604
     112         -0.815692        1.000000        0.71827050        0.00951160        0.00757281        0.00854641
     113         -0.815450        1.000000        0.73135836        0.00947219        0.01012893        0.00958333
     114         -0.814934        1.000000        0.70643761        0.01000497        0.00683266        0.01078949
     115         -0.814247        1.000000        0.72799875        0.02447151        0.00510384        0.00687672
     116         -0.813429        1.000000        0.75056460        0.01512121        0.00727012        0.01096299
     117         -0.812921        1.000000        0.75574511        0.01120349        0.00584094        0.01545560
     118         -0.812523        1.000000        0.71677338        0.00688631        0.00736968        0.00980074
     119         -0.811921        1.000000        0.75557975        0.01675226        0.01063849        0.00820376
     120         -0.811500        1.000000        0.72209031        0.01588779        0.00521077        0.00628872
     121         -0.808618        1.000000        0.69506277        0.03116012        0.00776960        0.01036110
     122         -0.808547        1.000000        0.76688804        0.02099029        0.01029676        0.00643938
     123         -0.808270        1.000000        0.74241186        0.01916247        0.00417906        0.01469825
     124         -0.807451        1.000000        0.73892549        0.01153465        0.01584106        0.00662026
     125         -0.806040        1.000000        0.73755876        0.01442781        0.00777945        0.00747917
     126         -0.805334        1.000000        0.75005284        0.01377793        0.00988480        0.01011787
     127         -0.804378        1.000000        0.75184582        0.00779663        0.00877765        0.01841018
     128         -0.804263        1.000000        0.55405142        0.01112811        0.00630384        0.00450080
     129         -0.804136        1.000000        0.71403753        0.01535001        0.01126426        0.00624492
     130         -0.803831        1.000000        0.75747261        0.01093620        0.01301443        0.01257636
     131         -0.803375        1.000000        0.70755607        0.01126756        0.00773594        0.00597357
     132         -0.802027        1.000000        0.72943052        0.01371662        0.00683735        0.00926918
     133         -0.801940        1.000000        0.69611541        0.01694251        0.01135669        0.00571350
     134         -0.801444        1.000000        0.75404496        0.01677821        0.01225664        0.01177534
     135         -0.799343        1.000000        0.76099180        0.01646532        0.00960736        0.00693020
     136         -0.799335        1.000000        0.74238893        0.01469885        0.00782892        0.00602713
     137         -0.797767        1.000000        0.75551273        0.01217688        0.01461395        0.00933797
     138         -0.797738        1.000000        0.69582721        0.02870995        0.00571393        0.01347433
     139         -0.797073        1.000000        0.70484525        0.01243247        0.00940227        0.00853435
     140         -0.795527        1.000000        0.73339681        0.00933417        0.00580083        0.00720360
     141         -0.794944        1.000000        0.76966402        0.01034808        0.00778672        0.01663838
     142         -0.793289        1.000000        0.72449867        0.02736005        0.00742642        0.00951337
     143         -0.792003        1.000000        0.75125683        0.01392150        0.00746248        0.01082418
     144         -0.791448        1.000000        0.76079359        0.01523683        0.00516864        0.01165881
     145         -0.790953        1.000000        0.77343227        0.01708580        0.01380276        0.01090164
     146         -0.789151        1.000000        0.16257680        0.00735996        0.00427821        0.00182656
     147         -0.787669        1.000000        0.75923126        0.01785035        0.00421531        0.01193171
     148         -0.786306        1.000000        0.70456233        0.01460834        0.01454689        0.00505962
     149         -0.783938        1.000000        0.46505976        0.01456369        0.00652445        0.00248022
     150         -0.782903        1.000000        0.78328554        0.01485407        0.01101229        0.00877601
     151         -0.781410        1.000000        0.77901262        0.00440980        0.00628383        0.02556727
     152         -0.781047        1.000000        0.71494562        0.01400287        0.02075665        0.00763358
     153         -0.780473        1.000000        0.80813773        0.01795716        0.00896721        0.00646550
     154         -0.780080        1.000000        0.75496091        0.02070412        0.00667719        0.00857356
     155         -0.778400        1.000000        0.74636006        0.01362260        0.00857934        0.01155827
     156         -0.773165        1.000000        0.77324252        0.00985248        0.01008408        0.01812836
     157         -0.771844        1.000000        0.78012090        0.00834736        0.01290137        0.01435757
     158         -0.767360        1.000000        0.77317950        0.01537640        0.01221858        0.00674122
     159         -0.761980        1.000000        0.78163823        0.01092727        0.01182569        0.00820103
     160         -0.761660        1.000000        0.77595615        0.02484766        0.00865140        0.00955357
     161         -0.758879        1.000000        0.79848268        0.00894629        0.00875213        0.01873560
     162         -0.750501        1.000000        0.79042343        0.00788871        0.00915222        0.01822386
     163         -0.661063        1.000000        0.89748847        0.00877511        0.02039127        0.04355351
     164         -0.607626        1.000000        0.00011018        0.00020414        0.00004562        0.00001995
     165         -0.595322        1.000000        0.00029015        0.00023534        0.00046199        0.00015410
     166         -0.591292        1.000000        0.00008223        0.00009728        0.00039516        0.00044954
     167         -0.586577        1.000000        0.00000036        0.00000049        0.00000057        0.00000114
     168         -0.575148        1.000000        0.00031861        0.00051647        0.00062891        0.00040979
     169         -0.568206        1.000000        0.00034068        0.00198911        0.00034937        0.00003652
     170         -0.560162        1.000000        0.00049294        0.00166582        0.00196874        0.00078338
     171         -0.550385        1.000000        0.00421631        0.01276951        0.00133648        0.00701148
     172         -0.540373        1.000000        0.00840646        0.00913216        0.01593792        0.00145130
     173         -0.529022        1.000000        0.00051764        0.00460888        0.00187580        0.00053547
     174         -0.523440        1.000000        0.00173729        0.02171625        0.00848189        0.00169040
     175         -0.518560        1.000000        0.00052449        0.00123314        0.00059343        0.00185149
     176         -0.517997        1.000000        0.00110714        0.00298570        0.00217934        0.00408688
     177         -0.515411        1.000000        0.00041558        0.00111657        0.00055967        0.00094789
     178         -0.513321        1.000000        0.00049666        0.00078246        0.00105167        0.00101924
     179         -0.513164        1.000000        0.00405480        0.01639038        0.05895641        0.06370746
     180         -0.511887        1.000000        0.00073822        0.00809150        0.00223430        0.00267524
     181         -0.510691        1.000000        0.00156521        0.01464738        0.00725165        0.00933515
     182         -0.509863        1.000000        0.00097700        0.00425058        0.00258647        0.00220270
     183         -0.509286        1.000000        0.00042378        0.00211119        0.00068495        0.00221666
     184         -0.508762        1.000000        0.00109979        0.01199384        0.00562967        0.00693389
     185         -0.507772        1.000000        0.00100319        0.00360225        0.00144669        0.00272832
     186         -0.506671        1.000000        0.00200249        0.00740484        0.00629162        0.00867341
     187         -0.504393        1.000000        0.00057734        0.00191892        0.00062026        0.00158140
     188         -0.502385        1.000000        0.00053549        0.00655641        0.00224195        0.00245372
     189         -0.501599        1.000000        0.00057921        0.00899907        0.00192228        0.00235516
     190         -0.499425        1.000000        0.00068905        0.00281982        0.00070129        0.00215794
     191         -0.498209        1.000000        0.00113914        0.00559944        0.00227775        0.00832232
     192         -0.496676        1.000000        0.00056246        0.00201491        0.00079054        0.00096870
     193         -0.495974        1.000000        0.00169225        0.00961677        0.00316399        0.00161158
     194         -0.494637        1.000000        0.00041640        0.00110836        0.00060288        0.00135126
     195         -0.494189        1.000000        0.00141288        0.00542820        0.00211476        0.01345761
     196         -0.493803        1.000000        0.00101066        0.00094471        0.00306220        0.00096393
     197         -0.493401        1.000000        0.00032777        0.00054382        0.00095094        0.00110821
     198         -0.492992        1.000000        0.00071035        0.00127607        0.00083404        0.00233282
     199         -0.490848        1.000000        0.00068022        0.00136660        0.00147816        0.00260479
     200         -0.489688        1.000000        0.00128841        0.02793390        0.00291785        0.00510274
     201         -0.488375        1.000000        0.00080761        0.00523007        0.00454532        0.00267358
     202         -0.488300        1.000000        0.00074043        0.01259085        0.00406156        0.00292184
     203         -0.487637        1.000000        0.00059104        0.00549981        0.00167376        0.00113387
     204         -0.487228        1.000000        0.00085519        0.01608016        0.00453489        0.00278739
     205         -0.486486        1.000000        0.00046141        0.03220531        0.01087601        0.00381936
     206         -0.485446        1.000000        0.00057801        0.00595649        0.00231150        0.00224111
     207         -0.481146        1.000000        0.00050083        0.00084909        0.00100597        0.00144892
     208         -0.471875        1.000000        0.00114955        0.14530431        0.06402515        0.01314244
     209         -0.469955        1.000000        0.00182855        0.16376434        0.10625907        0.02438706
     210         -0.469868        1.000000        0.00097644        0.10730648        0.13504848        0.38342529
     211         -0.469101        1.000000        0.00070737        0.05452553        0.03383243        0.00791444
     212         -0.468182        1.000000        0.00324121        0.35801791        0.06357185        0.01050328
     213         -0.466638        1.000000        0.00032523        0.02718860        0.00474448        0.00250439
     214         -0.465776        1.000000        0.00005469        0.00209012        0.00044519        0.00042490
     215         -0.465127        1.000000        0.00008815        0.00134980        0.00068961        0.00110713
     216         -0.462041        1.000000        0.00340611        0.15583762        0.32958920        0.14729569
     217         -0.461746        1.000000        0.00004865        0.00234690        0.00196550        0.00112338
     218         -0.457962        1.000000        0.00236517        0.42390081        0.09885345        0.07790215
     219         -0.456491        1.000000        0.00012868        0.00637254        0.00145935        0.00195959
     220         -0.454820        1.000000        0.00370544        0.26786271        0.16195133        0.14073814
     221         -0.452857        1.000000        0.00019803        0.02279337        0.00768524        0.00948091
     222         -0.450497        1.000000        0.00328516        0.40098096        0.21812762        0.04085596
     223         -0.449436        1.000000        0.00110687        0.36586616        0.09276162        0.19827806
     224         -0.448248        1.000000        0.00253720        0.12439762        0.49071122        0.03037573
     225         -0.445673        1.000000        0.00069063        0.10254728        0.06057376        0.04922606
     226         -0.445551        1.000000        0.00240384        0.26275285        0.15756372        0.18487418
     227         -0.444337        1.000000        0.00124615        0.26087414        0.15808373        0.17698826
     228         -0.444232        1.000000        0.00156890        0.17587215        0.21822533        0.21303379
     229         -0.442564        1.000000        0.00265534        0.55781085        0.03112860        0.06554158
     230         -0.441321        1.000000        0.00109443        0.06574172        0.01339533        0.53384369
     231         -0.441180        1.000000        0.00273354        0.43305933        0.10225004        0.11203028
     232         -0.440685        1.000000        0.00263347        0.27764614        0.12243208        0.23878691
     233         -0.440190        1.000000        0.00102124        0.08823625        0.08401636        0.45641731
     234         -0.438756        1.000000        0.00076407        0.14548667        0.15123089        0.33496408
     235         -0.438567        1.000000        0.00174467        0.19890218        0.18306952        0.26676524
     236         -0.437274        1.000000        0.00192425        0.34700827        0.11901618        0.12819190
     237         -0.435957        1.000000        0.00457589        0.12805044        0.25346587        0.24636995
     238         -0.434534        1.000000        0.00252191        0.51198671        0.02780730        0.08615505
     239         -0.433545        1.000000        0.00250797        0.12074226        0.32442248        0.20510126
     240         -0.433074        1.000000        0.00347239        0.33289087        0.17885985        0.13020229
     241         -0.432849        1.000000        0.00024529        0.01737537        0.01563944        0.00641119
     242         -0.431815        1.000000        0.00164746        0.13759672        0.16412902        0.13555450
     243         -0.431458        1.000000        0.00110286        0.08369343        0.13411634        0.09924433
     244         -0.430946        1.000000        0.00174484        0.44992513        0.10655772        0.09245740
     245         -0.430909        1.000000        0.00400268        0.04875964        0.23970091        0.35684796
     246         -0.429968        1.000000        0.00333055        0.05031835        0.26196359        0.32927106
     247         -0.429481        1.000000        0.00413217        0.01075208        0.09065867        0.54366525
     248         -0.428686        1.000000        0.00405116        0.15862723        0.20957090        0.26651451
     249         -0.428501        1.000000        0.00236783        0.17623275        0.25802211        0.20386395
     250         -0.427999        1.000000        0.00161337        0.10739584        0.34058154        0.19244167
     251         -0.427607        1.000000        0.00059734        0.17321036        0.05120306        0.40646714
     252         -0.426991        1.000000        0.00135107        0.07171461        0.36592916        0.20999262
     253         -0.426958        1.000000        0.00423341        0.12662638        0.12127593        0.39932716
     254         -0.425964        1.000000        0.00395971        0.54444781        0.05250707        0.05051488
     255         -0.425514        1.000000        0.00178142        0.05156774        0.11476092        0.47492990
     256         -0.424985        1.000000        0.00438241        0.29002690        0.14274021        0.21683714
     257         -0.423357        1.000000        0.00682017        0.40032051        0.04629943        0.20868542
     258         -0.422942        1.000000        0.00110378        0.30565435        0.15408893        0.19655067
     259         -0.422641        1.000000        0.00317769        0.09373800        0.35125467        0.19677399