# Projected DOS for atomic kind Pb at iteration step i = 0, E(Fermi) =    -0.093001 a.u.
#     MO Eigenvalue [a.u.]      Occupation                 s                py                pz                px
       1         -0.913920        1.000000        0.00000007        0.00000056        0.00000000        0.00000001
       2         -0.912937        1.000000        0.00000004        0.00000017        0.00000013        0.00000060
       3         -0.906354        1.000000        0.00000027        0.00000298        0.00000029        0.00000002
       4         -0.899839        1.000000        0.00000412        0.00003620        0.00001832        0.00000391
       5         -0.894573        1.000000        0.00000030        0.00000429        0.00000039        0.00001505
       6         -0.888065        1.000000        0.00000088        0.00000090        0.00000244        0.00001208
       7         -0.882641        1.000000        0.00000030        0.00000001        0.00000006        0.00000138
       8         -0.882204        1.000000        0.00000014        0.00000082        0.00000009        0.00000000
       9         -0.879642        1.000000        0.00000033        0.00000229        0.00000001        0.00000006
      10         -0.876342        1.000000        0.00000031        0.00000410        0.00000071        0.00000352
      11         -0.873889        1.000000        0.00000010        0.00000052        0.00000000        0.00000082
      12         -0.873223        1.000000        0.00000023        0.00000303        0.00000130        0.00000043
      13         -0.870872        1.000000        0.00000035        0.00000156        0.00000595        0.00000033
      14         -0.870715        1.000000        0.00000037        0.00000120        0.00000006        0.00000040
      15         -0.870364        1.000000        0.00000131        0.00000109        0.00000760        0.00000436
      16         -0.870039        1.000000        0.00000015        0.00000074        0.00000129        0.00000095
      17         -0.869331        1.000000        0.00000513        0.00001025        0.00003204        0.00001348
      18         -0.868456        1.000000        0.00000012        0.00000035        0.00000161        0.00000125
      19         -0.867215        1.000000        0.00005424        0.00027025        0.00036937        0.00005358
      20         -0.865715        1.000000        0.00000023        0.00000049        0.00000001        0.00000155
      21         -0.865244        1.000000        0.00000026        0.00000121        0.00000222        0.00000275
      22         -0.864761        1.000000        0.00000015        0.00000041        0.00000002        0.00000109
      23         -0.864535        1.000000        0.00000106        0.00000810        0.00001545        0.00000602
      24         -0.862972        1.000000        0.00000046        0.00000172        0.00000037        0.00000050
      25         -0.862864        1.000000        0.00000014        0.00000128        0.00000154        0.00000057
      26         -0.861521        1.000000        0.00000003        0.00000579        0.00000190        0.00000123
      27         -0.861190        1.000000        0.00000004        0.00000037        0.00000109        0.00000018
      28         -0.861121        1.000000        0.00000059        0.00000455        0.00000663        0.00000390
      29         -0.860242        1.000000        0.00000216        0.00001407        0.00003906        0.00000754
      30         -0.859496        1.000000        0.00000002        0.00000005        0.00000007        0.00000012
      31         -0.857782        1.000000        0.00000039        0.00000618        0.00000146        0.00000282
      32         -0.857441        1.000000        0.00000007        0.00000089        0.00000019        0.00000034
      33         -0.856997        1.000000        0.00000008        0.00000524        0.00000009        0.00000026
      34         -0.856634        1.000000        0.00000010        0.00000201        0.00000026        0.00000126
      35         -0.855012        1.000000        0.00000251        0.00006217        0.00000146        0.00001586
      36         -0.854164        1.000000        0.00000008        0.00000470        0.00000013        0.00000030
      37         -0.853558        1.000000        0.00000513        0.00003316        0.00001017        0.00002254
      38         -0.852397        1.000000        0.00000007        0.00000035        0.00000085        0.00000023
      39         -0.851837        1.000000        0.00000000        0.00000056        0.00000035        0.00000032
      40         -0.851654        1.000000        0.00000001        0.00000034        0.00000056        0.00000027
      41         -0.850905        1.000000        0.00000005        0.00000055        0.00000125        0.00000008
      42         -0.850357        1.000000        0.00000088        0.00000939        0.00000879        0.00000538
      43         -0.850075        1.000000        0.00000006        0.00000119        0.00000015        0.00000004
      44         -0.849398        1.000000        0.00000017        0.00000052        0.00000151        0.00000064
      45         -0.849384        1.000000        0.00000017        0.00000226        0.00000102        0.00000039
      46         -0.849143        1.000000        0.00000015        0.00000027        0.00000083        0.00000137
      47         -0.848424        1.000000        0.00000053        0.00000235        0.00000132        0.00000014
      48         -0.848094        1.000000        0.00000041        0.00000371        0.00000770        0.00000176
      49         -0.847867        1.000000        0.00000080        0.00000461        0.00000209        0.00000021
      50         -0.846383        1.000000        0.00000145        0.00001396        0.00001439        0.00000802
      51         -0.845722        1.000000        0.00000074        0.00000379        0.00000084        0.00000913
      52         -0.845604        1.000000        0.00000013        0.00000072        0.00000021        0.00000201
      53         -0.845289        1.000000        0.00000001        0.00000073        0.00000056        0.00000038
      54         -0.845218        1.000000        0.00000106        0.00000801        0.00001267        0.00000763
      55         -0.845202        1.000000        0.00000017        0.00000169        0.00000055        0.00000107
      56         -0.843709        1.000000        0.00000004        0.00000005        0.00000008        0.00000012
      57         -0.843549        1.000000        0.00000042        0.00000232        0.00000146        0.00000056
      58         -0.842608        1.000000        0.00000010        0.00000029        0.00000021        0.00000063
      59         -0.841989        1.000000        0.00000011        0.00000016        0.00000029        0.00000019
      60         -0.841880        1.000000        0.00000013        0.00000021        0.00000011        0.00000083
      61         -0.840967        1.000000        0.00000012        0.00000015        0.00000055        0.00000013
      62         -0.840544        1.000000        0.00000078        0.00000188        0.00000041        0.00000575
      63         -0.840259        1.000000        0.00000020        0.00000170        0.00000069        0.00000022
      64         -0.839999        1.000000        0.00000001        0.00000039        0.00000052        0.00000003
      65         -0.839328        1.000000        0.00000005        0.00000006        0.00000037        0.00000040
      66         -0.839108        1.000000        0.00000054        0.00000250        0.00000252        0.00000526
      67         -0.838891        1.000000        0.00000006        0.00000024        0.00000018        0.00000004
      68         -0.838537        1.000000        0.00000018        0.00000114        0.00000175        0.00000322
      69         -0.838300        1.000000        0.00000008        0.00000023        0.00000057        0.00000147
      70         -0.837869        1.000000        0.00000009        0.00000075        0.00000101        0.00000518
      71         -0.837744        1.000000        0.00000018        0.00000052        0.00000024        0.00000020
      72         -0.836629        1.000000        0.00000007        0.00000061        0.00000041        0.00000078
      73         -0.835757        1.000000        0.00000005        0.00000012        0.00000033        0.00000067
      74         -0.835591        1.000000        0.00000028        0.00000138        0.00000216        0.00000572
      75         -0.835553        1.000000        0.00000024        0.00000082        0.00000187        0.00000169
      76         -0.835335        1.000000        0.00000009        0.00000046        0.00000049        0.00000073
      77         -0.834953        1.000000        0.00000004        0.00000052        0.00000078        0.00000144
      78         -0.834617        1.000000        0.00000009        0.00000043        0.00000054        0.00000006
      79         -0.833659        1.000000        0.00000059        0.00000220        0.00000233        0.00000539
      80         -0.833468        1.000000        0.00000012        0.00000066        0.00000045        0.00000108
      81         -0.833117        1.000000        0.00000009        0.00000019        0.00000087        0.00000049
      82         -0.831905        1.000000        0.00000007        0.00000157        0.00000042        0.00000011
      83         -0.830432        1.000000        0.00000011        0.00000028        0.00000098        0.00000084
      84         -0.830300        1.000000        0.00000033        0.00000020        0.00000160        0.00000125
      85         -0.830195        1.000000        0.00000039        0.00000280        0.00000190        0.00000128
      86         -0.830114        1.000000        0.00000015        0.00000073        0.00000125        0.00000049
      87         -0.829121        1.000000        0.00000008        0.00000309        0.00000142        0.00000156
      88         -0.828375        1.000000        0.00000004        0.00000063        0.00000022        0.00000012
      89         -0.827521        1.000000        0.00000051        0.00000068        0.00000017        0.00000052
      90         -0.826665        1.000000        0.00000016        0.00000071        0.00000409        0.00000376
      91         -0.826251        1.000000        0.00000006        0.00000172        0.00000074        0.00000024
      92         -0.825381        1.000000        0.00000005        0.00000035        0.00000006        0.00000013
      93         -0.824818        1.000000        0.00000007        0.00000296        0.00000034        0.00000009
      94         -0.824349        1.000000        0.00000012        0.00000081        0.00000023        0.00000049
      95         -0.824217        1.000000        0.00000008        0.00000056        0.00000012        0.00000027
      96         -0.823211        1.000000        0.00000008        0.00000058        0.00000041        0.00000028
      97         -0.822903        1.000000        0.00000045        0.00000265        0.00000032        0.00000027
      98         -0.822614        1.000000        0.00000011        0.00000046        0.00000095        0.00000045
      99         -0.822359        1.000000        0.00000005        0.00000011        0.00000042        0.00000021
     100         -0.822116        1.000000        0.00000003        0.00000049        0.00000003        0.00000002
     101         -0.821937        1.000000        0.00000001        0.00000111        0.00000014        0.00000004
     102         -0.821375        1.000000        0.00000007        0.00000034        0.00000092        0.00000049
     103         -0.820032        1.000000        0.00000002        0.00000004        0.00000020        0.00000012
     104         -0.818811        1.000000        0.00000002        0.00000050        0.00000005        0.00000039
     105         -0.818699        1.000000        0.00000007        0.00000026        0.00000035        0.00000015
     106         -0.818618        1.000000        0.00000003        0.00000018        0.00000008        0.00000011
     107         -0.818226        1.000000        0.00000013        0.00000002        0.00000068        0.00000008
     108         -0.817284        1.000000        0.00000008        0.00000040        0.00000001        0.00000001
     109         -0.816794        1.000000        0.00000014        0.00000034        0.00000096        0.00000028
     110         -0.816413        1.000000        0.00000019        0.00000142        0.00000095        0.00000166
     111         -0.816129        1.000000        0.00000007        0.00000005        0.00000010        0.00000034
     112         -0.815668        1.000000        0.00000007        0.00000047        0.00000022        0.00000023
     113         -0.815276        1.000000        0.00000007        0.00000039        0.00000017        0.00000016
     114         -0.814699        1.000000        0.00000012        0.00000007        0.00000015        0.00000049
     115         -0.814648        1.000000        0.00000006        0.00000033        0.00000013        0.00000047
     116         -0.813424        1.000000        0.00000012        0.00000117        0.00000043        0.00000069
     117         -0.812899        1.000000        0.00000015        0.00000295        0.00000071        0.00000008
     118         -0.812063        1.000000        0.00000033        0.00000379        0.00000037        0.00000043
     119         -0.811902        1.000000        0.00000008        0.00000046        0.00000004        0.00000038
     120         -0.810957        1.000000        0.00000017        0.00000041        0.00000002        0.00000046
     121         -0.808700        1.000000        0.00000031        0.00000121        0.00000000        0.00000001
     122         -0.808533        1.000000        0.00000008        0.00000002        0.00000075        0.00000012
     123         -0.808144        1.000000        0.00000014        0.00000065        0.00000101        0.00000029
     124         -0.806464        1.000000        0.00000060        0.00000024        0.00000275        0.00000037
     125         -0.805903        1.000000        0.00000020        0.00000010        0.00000094        0.00000000
     126         -0.805436        1.000000        0.00000008        0.00000229        0.00000015        0.00000055
     127         -0.804340        1.000000        0.00000001        0.00000043        0.00000001        0.00000000
     128         -0.804080        1.000000        0.00000022        0.00000026        0.00000043        0.00000015
     129         -0.803926        1.000000        0.00000019        0.00000013        0.00000009        0.00000079
     130         -0.803392        1.000000        0.00000008        0.00000011        0.00000029        0.00000030
     131         -0.802191        1.000000        0.00000004        0.00000035        0.00000043        0.00000013
     132         -0.801942        1.000000        0.00000029        0.00000046        0.00000163        0.00000055
     133         -0.801616        1.000000        0.00000056        0.00000177        0.00000008        0.00000000
     134         -0.799726        1.000000        0.00000024        0.00000173        0.00000055        0.00000054
     135         -0.798944        1.000000        0.00000011        0.00000007        0.00000039        0.00000004
     136         -0.798299        1.000000        0.00000094        0.00000724        0.00000189        0.00000161
     137         -0.797770        1.000000        0.00000050        0.00000015        0.00000323        0.00000612
     138         -0.797273        1.000000        0.00000037        0.00000103        0.00000027        0.00000060
     139         -0.795850        1.000000        0.00000001        0.00000055        0.00000026        0.00000008
     140         -0.795468        1.000000        0.00000001        0.00000015        0.00000002        0.00000002
     141         -0.794933        1.000000        0.00000001        0.00000013        0.00000000        0.00000004
     142         -0.794852        1.000000        0.00000002        0.00000045        0.00000011        0.00000004
     143         -0.791674        1.000000        0.00000008        0.00000007        0.00000037        0.00000007
     144         -0.791049        1.000000        0.00000006        0.00000003        0.00000014        0.00000004
     145         -0.790952        1.000000        0.00000006        0.00000033        0.00000000        0.00000000
     146         -0.789161        1.000000        0.00000015        0.00000085        0.00000109        0.00000120
     147         -0.787886        1.000000        0.00000905        0.00004951        0.00000030        0.00000004
     148         -0.786941        1.000000        0.00000007        0.00000012        0.00000003        0.00000038
     149         -0.785966        1.000000        0.00000013        0.00000081        0.00000000        0.00000001
     150         -0.783666        1.000000        0.00000014        0.00000085        0.00000005        0.00000007
     151         -0.782894        1.000000        0.00000001        0.00000013        0.00000001        0.00000001
     152         -0.782250        1.000000        0.00000074        0.00000013        0.00000344        0.00000009
     153         -0.781321        1.000000        0.00000004        0.00000019        0.00000009        0.00000059
     154         -0.780573        1.000000        0.00000000        0.00000009        0.00000000        0.00000006
     155         -0.780245        1.000000        0.00000000        0.00000060        0.00000005        0.00000000
     156         -0.778202        1.000000        0.00000009        0.00000001        0.00000015        0.00000000
     157         -0.767272        1.000000        0.00000000        0.00000006        0.00000001        0.00000006
     158         -0.765479        1.000000        0.00000096        0.00000291        0.00000003        0.00000000
     159         -0.765248        1.000000        0.00000126        0.00000608        0.00000001        0.00000003
     160         -0.761964        1.000000        0.00000000        0.00000013        0.00000006        0.00000004
     161         -0.750779        1.000000        0.00000026        0.00000006        0.00000106        0.00000005
     162         -0.731156        1.000000        0.00000000        0.00000000        0.00000000        0.00000000
     163         -0.632581        1.000000        0.00000027        0.00000054        0.00000002        0.00000016
     164         -0.607623        1.000000        0.00005859        0.00004785        0.00007626        0.00002659
     165         -0.595314        1.000000        0.00009435        0.00006378        0.00006307        0.00001583
     166         -0.591295        1.000000        0.00004560        0.00003022        0.00004562        0.00001972
     167         -0.586576        1.000000        0.00014608        0.00010782        0.00007647        0.00004955
     168         -0.575150        1.000000        0.00007800        0.00004319        0.00002202        0.00001871
     169         -0.568166        1.000000        0.00001657        0.00002063        0.00000120        0.00000105
     170         -0.560179        1.000000        0.00010601        0.00008286        0.00006308        0.00001759
     171         -0.550452        1.000000        0.00159789        0.00059714        0.00003404        0.00100854
     172         -0.543606        1.000000        0.01114003        0.00881759        0.00011461        0.00001070
     173         -0.527255        1.000000        0.07444128        0.01093195        0.00294239        0.00761789
     174         -0.522775        1.000000        0.04747163        0.01654894        0.00107565        0.00075700
     175         -0.519360        1.000000        0.10451196        0.00736214        0.00498591        0.00071690
     176         -0.516082        1.000000        0.11146798        0.00856496        0.00261231        0.00073746
     177         -0.515111        1.000000        0.10779575        0.00569558        0.00202135        0.00129833
     178         -0.513733        1.000000        0.12984317        0.01068766        0.00051954        0.00118066
     179         -0.513157        1.000000        0.00032671        0.00002117        0.00001764        0.00009923
     180         -0.511418        1.000000        0.05724412        0.00959998        0.00760843        0.00973796
     181         -0.511167        1.000000        0.08619048        0.01412744        0.00360153        0.00259807
     182         -0.510352        1.000000        0.04203917        0.00646404        0.00455350        0.00137688
     183         -0.509613        1.000000        0.01053561        0.00832314        0.01699270        0.01125394
     184         -0.508087        1.000000        0.01509765        0.02665608        0.00365918        0.00271481
     185         -0.504074        1.000000        0.01705426        0.01688982        0.00347932        0.00352792
     186         -0.503813        1.000000        0.00665547        0.01773469        0.00838743        0.00087320
     187         -0.502556        1.000000        0.00793199        0.00474355        0.02162469        0.00676453
     188         -0.502142        1.000000        0.01602345        0.00448979        0.01991004        0.00240525
     189         -0.500643        1.000000        0.00230774        0.00314010        0.01737911        0.00795258
     190         -0.500015        1.000000        0.00529639        0.00340774        0.02264160        0.00260904
     191         -0.498633        1.000000        0.01415313        0.00710066        0.00983861        0.00780552
     192         -0.497808        1.000000        0.00667809        0.00200137        0.00596877        0.01579001
     193         -0.496931        1.000000        0.00435710        0.01584871        0.00561869        0.01130678
     194         -0.496382        1.000000        0.00529518        0.00795591        0.00139817        0.02400993
     195         -0.495650        1.000000        0.02160472        0.00333283        0.00855619        0.01433189
     196         -0.495531        1.000000        0.01009416        0.00571012        0.00820388        0.01211985
     197         -0.494349        1.000000        0.00143886        0.00118191        0.02465667        0.01316956
     198         -0.494013        1.000000        0.00538077        0.00053547        0.01319646        0.01759883
     199         -0.493661        1.000000        0.00657803        0.00143186        0.01118838        0.01367729
     200         -0.490405        1.000000        0.00150158        0.00363706        0.01013920        0.02361484
     201         -0.490171        1.000000        0.00497825        0.00311627        0.01887481        0.01106607
     202         -0.489395        1.000000        0.00458642        0.00348107        0.01027376        0.00985476
     203         -0.489221        1.000000        0.00377611        0.00382976        0.00733307        0.01055561
     204         -0.487779        1.000000        0.00108598        0.00094925        0.00098522        0.00623213
     205         -0.486425        1.000000        0.00067281        0.00116718        0.00032784        0.00859368
     206         -0.485515        1.000000        0.00896582        0.00060556        0.00027399        0.01208229
     207         -0.483949        1.000000        0.00270304        0.00184689        0.00084113        0.00886410
     208         -0.471877        1.000000        0.00096014        0.00063561        0.00133211        0.00013402
     209         -0.469983        1.000000        0.00260432        0.00124604        0.00070634        0.00024341
     210         -0.469866        1.000000        0.00000375        0.00000312        0.00000144        0.00000068
     211         -0.469192        1.000000        0.00120534        0.00066266        0.00169734        0.00020027
     212         -0.468173        1.000000        0.00094592        0.00194951        0.00110388        0.00012229
     213         -0.466701        1.000000        0.00345243        0.00109669        0.00189168        0.00014583
     214         -0.465267        1.000000        0.00641787        0.00007855        0.00257054        0.00186114
     215         -0.465172        1.000000        0.00725226        0.00005377        0.00386893        0.00027680
     216         -0.462041        1.000000        0.00011048        0.00000764        0.00002540        0.00000670
     217         -0.461817        1.000000        0.00225027        0.00020465        0.00286917        0.00063280
     218         -0.457952        1.000000        0.00214079        0.00011426        0.00028012        0.00067515
     219         -0.456519        1.000000        0.00592733        0.00070532        0.00414600        0.00005894
     220         -0.454816        1.000000        0.00114933        0.00002525        0.00005803        0.00014588
     221         -0.452999        1.000000        0.00014737        0.00024691        0.00013077        0.00000403
     222         -0.450461        1.000000        0.00000363        0.00001715        0.00000067        0.00000363
     223         -0.449468        1.000000        0.00000024        0.00000008        0.00000132        0.00000114
     224         -0.448244        1.000000        0.00003992        0.00000565        0.00000711        0.00001402
     225         -0.445799        1.000000        0.00089378        0.00001212        0.00010346        0.00000622
     226         -0.445556        1.000000        0.00003288        0.00000351        0.00000556        0.00004046
     227         -0.444334        1.000000        0.00431063        0.00019737        0.00049620        0.00019670
     228         -0.444152        1.000000        0.00304677        0.00143980        0.00001922        0.00001326
     229         -0.442582        1.000000        0.00001468        0.00000020        0.00000019        0.00000525
     230         -0.441328        1.000000        0.00412963        0.00001720        0.00000310        0.00124808
     231         -0.441179        1.000000        0.00083364        0.00010881        0.00019103        0.00021133
     232         -0.440683        1.000000        0.00061766        0.00003166        0.00004347        0.00004902
     233         -0.440185        1.000000        0.00049821        0.00020760        0.00001344        0.00003007
     234         -0.438756        1.000000        0.00058480        0.00026107        0.00000854        0.00000211
     235         -0.438564        1.000000        0.00024801        0.00003361        0.00000902        0.00001805
     236         -0.437271        1.000000        0.00009911        0.00002388        0.00003168        0.00001807
     237         -0.435959        1.000000        0.00025801        0.00000477        0.00002129        0.00000955
     238         -0.434529        1.000000        0.00410544        0.00004417        0.00000240        0.00067206
     239         -0.433545        1.000000        0.00036584        0.00001085        0.00000761        0.00000132
     240         -0.433074        1.000000        0.00058009        0.00002599        0.00000585        0.00001001
     241         -0.432837        1.000000        0.00056897        0.00003659        0.00000507        0.00009283
     242         -0.431823        1.000000        0.00053320        0.00000133        0.00000159        0.00004486
     243         -0.431471        1.000000        0.00076187        0.00001315        0.00000150        0.00007208
     244         -0.430913        1.000000        0.00011750        0.00002118        0.00000557        0.00000551
     245         -0.430774        1.000000        0.00000907        0.00000384        0.00000011        0.00000039
     246         -0.429968        1.000000        0.00015792        0.00000243        0.00001327        0.00000082
     247         -0.429478        1.000000        0.00015594        0.00006733        0.00013174        0.00000064
     248         -0.428684        1.000000        0.00074708        0.00000921        0.00005924        0.00003460
     249         -0.428226        1.000000        0.00005245        0.00000227        0.00000131        0.00002243
     250         -0.427981        1.000000        0.00149740        0.00031733        0.00000424        0.00000452
     251         -0.427617        1.000000        0.00228812        0.00002615        0.00025846        0.00008194
     252         -0.426983        1.000000        0.00004008        0.00000467        0.00004948        0.00005073
     253         -0.426975        1.000000        0.00003799        0.00000169        0.00001349        0.00001464
     254         -0.425958        1.000000        0.00038758        0.00000281        0.00000019        0.00000767
     255         -0.425514        1.000000        0.00006669        0.00001084        0.00000247        0.00000120
     256         -0.424988        1.000000        0.00112493        0.00001089        0.00008902        0.00004814
     257         -0.422951        1.000000        0.00013573        0.00002063        0.00002753        0.00000056
     258         -0.422638        1.000000        0.00160686        0.00006251        0.00000796        0.00001283
     259         -0.422444        1.000000        0.00082597        0.00002638        0.00006877        0.00002419