# Projected DOS for atomic kind C at iteration step i = 0, E(Fermi) =    -0.099966 a.u.
#     MO Eigenvalue [a.u.]      Occupation                 s                py                pz                px
       1         -0.913915        1.000000        0.00000000        0.00000000        0.00000000        0.00000000
       2         -0.912939        1.000000        0.00000000        0.00000000        0.00000000        0.00000000
       3         -0.906357        1.000000        0.00000001        0.00000000        0.00000001        0.00000001
       4         -0.899839        1.000000        0.00000000        0.00000000        0.00000000        0.00000000
       5         -0.894572        1.000000        0.00000000        0.00000000        0.00000000        0.00000000
       6         -0.888063        1.000000        0.00000000        0.00000000        0.00000000        0.00000000
       7         -0.887459        1.000000        0.00000004        0.00000005        0.00000005        0.00000019
       8         -0.882635        1.000000        0.00000003        0.00000000        0.00000001        0.00000004
       9         -0.882205        1.000000        0.00001834        0.00000339        0.00000155        0.00001325
      10         -0.879667        1.000000        0.00000031        0.00000011        0.00000036        0.00000001
      11         -0.876306        1.000000        0.00000621        0.00000070        0.00000668        0.00000191
      12         -0.873893        1.000000        0.00000000        0.00000000        0.00000000        0.00000000
      13         -0.873223        1.000000        0.00009063        0.00000012        0.00000283        0.00007262
      14         -0.870873        1.000000        0.00000484        0.00000079        0.00000162        0.00000266
      15         -0.870325        1.000000        0.00000002        0.00000000        0.00000001        0.00000000
      16         -0.870039        1.000000        0.00001426        0.00000002        0.00000044        0.00001094
      17         -0.869315        1.000000        0.00000006        0.00000002        0.00000003        0.00000002
      18         -0.868457        1.000000        0.00001082        0.00000003        0.00000033        0.00000809
      19         -0.867215        1.000000        0.00000172        0.00000033        0.00000059        0.00000072
      20         -0.866224        1.000000        0.00001417        0.00000027        0.00001211        0.00002037
      21         -0.865235        1.000000        0.00003478        0.00000050        0.00000161        0.00002574
      22         -0.864972        1.000000        0.00000194        0.00000020        0.00000146        0.00000231
      23         -0.864660        1.000000        0.00000011        0.00000001        0.00000000        0.00000016
      24         -0.863384        1.000000        0.00001169        0.00000016        0.00002048        0.00000302
      25         -0.862861        1.000000        0.00015866        0.00001473        0.00003477        0.00009102
      26         -0.861362        1.000000        0.00000196        0.00000000        0.00000008        0.00000134
      27         -0.861193        1.000000        0.00022492        0.00000014        0.00000657        0.00015462
      28         -0.861119        1.000000        0.00796690        0.00000304        0.00023260        0.00547579
      29         -0.860238        1.000000        0.05287181        0.00000801        0.00154367        0.03601946
      30         -0.859497        1.000000        0.00007233        0.00000330        0.00000016        0.00007047
      31         -0.858826        1.000000        0.00000929        0.00000018        0.00000637        0.00000870
      32         -0.857777        1.000000        0.00080021        0.00000026        0.00002488        0.00053370
      33         -0.856988        1.000000        0.00000049        0.00000006        0.00000014        0.00000010
      34         -0.856638        1.000000        0.00000007        0.00000001        0.00000007        0.00000007
      35         -0.854935        1.000000        0.00004646        0.00000599        0.00001257        0.00002099
      36         -0.854324        1.000000        0.00000534        0.00000030        0.00000039        0.00000365
      37         -0.854154        1.000000        0.00023613        0.00000211        0.00001058        0.00015743
      38         -0.853497        1.000000        0.00011513        0.00001427        0.00003094        0.00005459
      39         -0.851848        1.000000        0.00036249        0.00000840        0.00006167        0.00014906
      40         -0.851655        1.000000        0.00001231        0.00000201        0.00000398        0.00000563
      41         -0.850903        1.000000        0.00022360        0.00000599        0.00004504        0.00010739
      42         -0.850370        1.000000        0.06083848        0.00015829        0.01657601        0.02708460
      43         -0.850073        1.000000        0.00028871        0.00002388        0.00001812        0.00023350
      44         -0.849625        1.000000        0.00002143        0.00000009        0.00000247        0.00000292
      45         -0.849377        1.000000        0.00017432        0.00001786        0.00000588        0.00014628
      46         -0.849132        1.000000        0.00000030        0.00000000        0.00000010        0.00000016
      47         -0.848349        1.000000        0.00003497        0.00000599        0.00000104        0.00002955
      48         -0.848098        1.000000        0.00000050        0.00000002        0.00000026        0.00000026
      49         -0.847662        1.000000        0.00004266        0.00000458        0.00000958        0.00002054
      50         -0.846371        1.000000        0.06105739        0.00000666        0.00729149        0.03646583
      51         -0.845677        1.000000        0.00179548        0.00018803        0.00041343        0.00086479
      52         -0.845587        1.000000        0.00105806        0.00010996        0.00025161        0.00049968
      53         -0.845562        1.000000        0.00011710        0.00000796        0.00005694        0.00006433
      54         -0.845208        1.000000        0.05975755        0.00079750        0.01794811        0.02533937
      55         -0.845184        1.000000        0.00059054        0.00006146        0.00013527        0.00028651
      56         -0.843739        1.000000        0.00006939        0.00000139        0.00010960        0.00035467
      57         -0.843481        1.000000        0.00000240        0.00000029        0.00000035        0.00000087
      58         -0.842588        1.000000        0.00007831        0.00000746        0.00000926        0.00004922
      59         -0.842033        1.000000        0.00000790        0.00000118        0.00002007        0.00000785
      60         -0.841970        1.000000        0.00001176        0.00000246        0.00003390        0.00000980
      61         -0.841020        1.000000        0.00001901        0.00000770        0.00007179        0.00001701
      62         -0.840785        1.000000        0.00000475        0.00000253        0.00001307        0.00000558
      63         -0.840511        1.000000        0.00005055        0.00000465        0.00001017        0.00002618
      64         -0.840235        1.000000        0.00007064        0.00000648        0.00000304        0.00005328
      65         -0.839378        1.000000        0.00000050        0.00000001        0.00000099        0.00000031
      66         -0.839035        1.000000        0.00001129        0.00000104        0.00000155        0.00000770
      67         -0.838977        1.000000        0.00000427        0.00000206        0.00000045        0.00000379
      68         -0.838581        1.000000        0.00002575        0.00000201        0.00000557        0.00001385
      69         -0.838309        1.000000        0.00000153        0.00000151        0.00000454        0.00000046
      70         -0.838079        1.000000        0.00000222        0.00000007        0.00000086        0.00000193
      71         -0.837989        1.000000        0.00000350        0.00000035        0.00000300        0.00000207
      72         -0.837689        1.000000        0.00016022        0.00001405        0.00003588        0.00007507
      73         -0.836867        1.000000        0.00000912        0.00000047        0.00002833        0.00000632
      74         -0.836171        1.000000        0.00000877        0.00000123        0.00000504        0.00001393
      75         -0.835386        1.000000        0.00036065        0.00002739        0.00004847        0.00020889
      76         -0.835164        1.000000        0.00175496        0.00013984        0.00036563        0.00080765
      77         -0.834926        1.000000        0.00000591        0.00000776        0.00000195        0.00000669
      78         -0.834817        1.000000        0.00146331        0.00011550        0.00030514        0.00067673
      79         -0.833529        1.000000        0.00033263        0.00002177        0.00000102        0.00025227
      80         -0.833410        1.000000        0.00041504        0.00002991        0.00004291        0.00025211
      81         -0.833175        1.000000        0.00000279        0.00000067        0.00000013        0.00000260
      82         -0.831860        1.000000        0.00001141        0.00000104        0.00000307        0.00000671
      83         -0.830408        1.000000        0.00001789        0.00000022        0.00000342        0.00001212
      84         -0.830304        1.000000        0.00036373        0.00002983        0.00003523        0.00021308
      85         -0.830249        1.000000        0.00013037        0.00000136        0.00002114        0.00008733
      86         -0.830040        1.000000        0.00021158        0.00001961        0.00003377        0.00009762
      87         -0.829371        1.000000        0.00000502        0.00000053        0.00000075        0.00000238
      88         -0.828571        1.000000        0.00044315        0.00004702        0.00005764        0.00021087
      89         -0.827989        1.000000        0.00090453        0.00000229        0.00008280        0.00061234
      90         -0.826492        1.000000        0.00003572        0.00001165        0.00000026        0.00001902
      91         -0.826183        1.000000        0.00000540        0.00000054        0.00000595        0.00000255
      92         -0.825342        1.000000        0.00110118        0.00000188        0.00011047        0.00071635
      93         -0.824909        1.000000        0.00004515        0.00000257        0.00000832        0.00002152
      94         -0.824447        1.000000        0.00003916        0.00000352        0.00000609        0.00001831
      95         -0.824296        1.000000        0.00002517        0.00000223        0.00000370        0.00001202
      96         -0.823245        1.000000        0.00005991        0.00000155        0.00002164        0.00005073
      97         -0.822622        1.000000        0.00341064        0.00029855        0.00039547        0.00163840
      98         -0.822474        1.000000        0.00030243        0.00002804        0.00000015        0.00020802
      99         -0.822339        1.000000        0.00271418        0.00023956        0.00025964        0.00139840
     100         -0.822108        1.000000        0.00060201        0.00006659        0.00007602        0.00029084
     101         -0.821901        1.000000        0.00135404        0.00011684        0.00018316        0.00061647
     102         -0.821257        1.000000        0.03957588        0.00327030        0.00518723        0.01799297
     103         -0.820190        1.000000        0.00000075        0.00000068        0.00000092        0.00000061
     104         -0.818759        1.000000        0.00069962        0.00005807        0.00000668        0.00045941
     105         -0.818706        1.000000        0.00003148        0.00000476        0.00001685        0.00004242
     106         -0.818623        1.000000        0.00007434        0.00000712        0.00001642        0.00006570
     107         -0.818410        1.000000        0.00003359        0.00000049        0.00000529        0.00002076
     108         -0.817283        1.000000        0.00006413        0.00000850        0.00000100        0.00004212
     109         -0.816787        1.000000        0.00004548        0.00000451        0.00002295        0.00002501
     110         -0.816356        1.000000        0.00002577        0.00000204        0.00000156        0.00001534
     111         -0.816228        1.000000        0.00379392        0.00030570        0.00000289        0.00245228
     112         -0.815692        1.000000        0.00001153        0.00000075        0.00000194        0.00000841
     113         -0.815450        1.000000        0.00001670        0.00000210        0.00000217        0.00001675
     114         -0.814934        1.000000        0.00282467        0.00022997        0.00000185        0.00180294
     115         -0.814247        1.000000        0.00026421        0.00000900        0.00001658        0.00015855
     116         -0.813429        1.000000        0.00021863        0.00000082        0.00005146        0.00011183
     117         -0.812921        1.000000        0.00000483        0.00000035        0.00000090        0.00000262
     118         -0.812523        1.000000        0.00204534        0.00000020        0.00015251        0.00122094
     119         -0.811921        1.000000        0.00001600        0.00000107        0.00000178        0.00000839
     120         -0.811500        1.000000        0.00012879        0.00000587        0.00000373        0.00007786
     121         -0.808618        1.000000        0.00000925        0.00000374        0.00000213        0.00000018
     122         -0.808547        1.000000        0.00000231        0.00000061        0.00000262        0.00000659
     123         -0.808270        1.000000        0.00031477        0.00002491        0.00000345        0.00018597
     124         -0.807451        1.000000        0.00053511        0.00004085        0.00001173        0.00030441
     125         -0.806040        1.000000        0.00041036        0.00000025        0.00003569        0.00022886
     126         -0.805334        1.000000        0.00080173        0.00005851        0.00003975        0.00042172
     127         -0.804378        1.000000        0.00000914        0.00000054        0.00000115        0.00000472
     128         -0.804263        1.000000        0.01953454        0.00000413        0.00130786        0.01093812
     129         -0.804136        1.000000        0.00494489        0.00028633        0.00047286        0.00217618
     130         -0.803831        1.000000        0.00190614        0.00011054        0.00018921        0.00082276
     131         -0.803375        1.000000        0.00320791        0.00000065        0.00019787        0.00180555
     132         -0.802027        1.000000        0.00303770        0.00000141        0.00019207        0.00172147
     133         -0.801940        1.000000        0.00764109        0.00042550        0.00077516        0.00320546
     134         -0.801444        1.000000        0.00002143        0.00000122        0.00000200        0.00000932
     135         -0.799343        1.000000        0.00052044        0.00004164        0.00001359        0.00028193
     136         -0.799335        1.000000        0.00002897        0.00000028        0.00000177        0.00001675
     137         -0.797767        1.000000        0.00013204        0.00000108        0.00000805        0.00006933
     138         -0.797738        1.000000        0.00022938        0.00004952        0.00000005        0.00010489
     139         -0.797073        1.000000        0.00549421        0.00000419        0.00031215        0.00293185
     140         -0.795527        1.000000        0.00000286        0.00000004        0.00000040        0.00000164
     141         -0.794944        1.000000        0.00000007        0.00000000        0.00000024        0.00000073
     142         -0.793289        1.000000        0.00025230        0.00000469        0.00001202        0.00013046
     143         -0.792003        1.000000        0.00000971        0.00000247        0.00001447        0.00000491
     144         -0.791448        1.000000        0.00001755        0.00000358        0.00003151        0.00000726
     145         -0.790953        1.000000        0.00000282        0.00002051        0.00000334        0.00000237
     146         -0.789151        1.000000        0.06294244        0.00559657        0.00038506        0.03143039
     147         -0.787669        1.000000        0.00030861        0.00002515        0.00000058        0.00015245
     148         -0.786306        1.000000        0.00750536        0.00001935        0.00035956        0.00367401
     149         -0.783938        1.000000        0.03527695        0.00010964        0.00162189        0.01694173
     150         -0.782903        1.000000        0.00000005        0.00000041        0.00000013        0.00000018
     151         -0.781410        1.000000        0.00015919        0.00000096        0.00001531        0.00006674
     152         -0.781047        1.000000        0.00000003        0.00000002        0.00000016        0.00000004
     153         -0.780473        1.000000        0.00000082        0.00000005        0.00000027        0.00000045
     154         -0.780080        1.000000        0.00004847        0.00000025        0.00000220        0.00002234
     155         -0.778400        1.000000        0.00000011        0.00000007        0.00000047        0.00000009
     156         -0.773165        1.000000        0.00077797        0.00000473        0.00003013        0.00034030
     157         -0.771844        1.000000        0.00102417        0.00000664        0.00003754        0.00044558
     158         -0.767360        1.000000        0.00000002        0.00000002        0.00000004        0.00000000
     159         -0.761980        1.000000        0.00000001        0.00000002        0.00000002        0.00000000
     160         -0.761660        1.000000        0.00000681        0.00000153        0.00000058        0.00000080
     161         -0.758879        1.000000        0.00000067        0.00000001        0.00000001        0.00000028
     162         -0.750501        1.000000        0.00000000        0.00000000        0.00000000        0.00000000
     163         -0.661063        1.000000        0.00000002        0.00000000        0.00000000        0.00000010
     164         -0.607626        1.000000        0.43811046        0.00000461        0.00008570        0.00155284
     165         -0.595322        1.000000        0.43615477        0.00000014        0.00055818        0.00084635
     166         -0.591292        1.000000        0.43825085        0.00005085        0.00012564        0.00129343
     167         -0.586577        1.000000        0.43677370        0.00001302        0.00053580        0.00076470
     168         -0.575148        1.000000        0.43393077        0.00043497        0.00058117        0.00281266
     169         -0.568206        1.000000        0.42873949        0.00016090        0.00054190        0.00817354
     170         -0.560162        1.000000        0.42736118        0.00040070        0.00009140        0.00498040
     171         -0.550385        1.000000        0.00033216        0.00000764        0.00038716        0.00002864
     172         -0.540373        1.000000        0.00021568        0.00000551        0.00000963        0.00000756
     173         -0.529022        1.000000        0.00017396        0.00022030        0.00122835        0.00036008
     174         -0.523440        1.000000        0.00036542        0.00064597        0.00274745        0.00028097
     175         -0.518560        1.000000        0.00069181        0.00049988        0.00102437        0.00026110
     176         -0.517997        1.000000        0.00061336        0.00078288        0.00041651        0.00029209
     177         -0.515411        1.000000        0.00077327        0.00033576        0.00061192        0.00024650
     178         -0.513321        1.000000        0.00079448        0.00110022        0.00061579        0.00090898
     179         -0.513164        1.000000        0.00001035        0.00004237        0.00000700        0.00000595
     180         -0.511887        1.000000        0.00022849        0.00164580        0.00005907        0.00008007
     181         -0.510691        1.000000        0.00044244        0.00036032        0.00176552        0.00032976
     182         -0.509863        1.000000        0.00045792        0.00021893        0.00183521        0.00040465
     183         -0.509286        1.000000        0.00029850        0.00285684        0.00020436        0.00009884
     184         -0.508762        1.000000        0.00033209        0.00163665        0.00183301        0.00061588
     185         -0.507772        1.000000        0.00072144        0.00136935        0.00033707        0.00013788
     186         -0.506671        1.000000        0.00006749        0.00043317        0.00054688        0.00014142
     187         -0.504393        1.000000        0.00041898        0.00499288        0.00062343        0.00017143
     188         -0.502385        1.000000        0.00083149        0.00586334        0.00064133        0.00031892
     189         -0.501599        1.000000        0.00037576        0.00184121        0.00021064        0.00021439
     190         -0.499425        1.000000        0.00006075        0.00022322        0.00134343        0.00047528
     191         -0.498209        1.000000        0.00023424        0.00040604        0.00232027        0.00082062
     192         -0.496676        1.000000        0.00010907        0.00039178        0.00237633        0.00067059
     193         -0.495974        1.000000        0.00008781        0.00160586        0.00051383        0.00028227
     194         -0.494637        1.000000        0.00021387        0.00009745        0.00069049        0.00079148
     195         -0.494189        1.000000        0.00026708        0.00182929        0.00185125        0.00046954
     196         -0.493803        1.000000        0.00024127        0.00078356        0.00017260        0.00011956
     197         -0.493401        1.000000        0.00010567        0.00086496        0.00038131        0.00012652
     198         -0.492992        1.000000        0.00034281        0.00189310        0.00072574        0.00005228
     199         -0.490848        1.000000        0.00002721        0.00017417        0.00180004        0.00053193
     200         -0.489688        1.000000        0.00001519        0.00065578        0.00049337        0.00005951
     201         -0.488375        1.000000        0.00004638        0.00097838        0.00486305        0.00015507
     202         -0.488300        1.000000        0.00007464        0.00053180        0.00482816        0.00012159
     203         -0.487637        1.000000        0.00006875        0.00073359        0.00242459        0.00012750
     204         -0.487228        1.000000        0.00020859        0.00024009        0.00780120        0.00035780
     205         -0.486486        1.000000        0.00016119        0.00015911        0.02454974        0.00072325
     206         -0.485446        1.000000        0.00016740        0.00101115        0.00371022        0.00014359
     207         -0.481146        1.000000        0.00015659        0.00013546        0.00038706        0.00032558
     208         -0.471875        1.000000        0.00014992        0.02903426        0.00644598        0.00226516
     209         -0.469955        1.000000        0.00003812        0.00618946        0.01447422        0.00810064
     210         -0.469868        1.000000        0.00000004        0.00001087        0.00001617        0.00000902
     211         -0.469101        1.000000        0.00008483        0.00534248        0.02527065        0.01675455
     212         -0.468182        1.000000        0.00003849        0.00136635        0.00786087        0.00310995
     213         -0.466638        1.000000        0.00007727        0.02514829        0.01286853        0.01496535
     214         -0.465776        1.000000        0.00018215        0.03495874        0.01622875        0.00400346
     215         -0.465127        1.000000        0.00000263        0.05739340        0.00028349        0.00108063
     216         -0.462041        1.000000        0.00000003        0.00009010        0.00017081        0.00003051
     217         -0.461746        1.000000        0.00000252        0.01984509        0.03455353        0.00613498
     218         -0.457962        1.000000        0.00000037        0.00013813        0.00007479        0.00001538
     219         -0.456491        1.000000        0.00031174        0.05393453        0.00229904        0.00111761
     220         -0.454820        1.000000        0.00000165        0.00008824        0.00001674        0.00000252
     221         -0.452857        1.000000        0.00002321        0.03075459        0.03275311        0.00046655
     222         -0.450497        1.000000        0.00000029        0.00000047        0.00000044        0.00000268
     223         -0.449436        1.000000        0.00000001        0.00000010        0.00000107        0.00000011
     224         -0.448248        1.000000        0.00000004        0.00000059        0.00000014        0.00000020
     225         -0.445673        1.000000        0.00002746        0.02365167        0.01325712        0.01447844
     226         -0.445551        1.000000        0.00000242        0.00214938        0.00115963        0.00126814
     227         -0.444337        1.000000        0.00000687        0.00247494        0.00048462        0.00078845
     228         -0.444232        1.000000        0.00000059        0.00019186        0.00002734        0.00008652
     229         -0.442564        1.000000        0.00000002        0.00000060        0.00000303        0.00000037
     230         -0.441321        1.000000        0.00000089        0.00002458        0.00001554        0.00000413
     231         -0.441180        1.000000        0.00000020        0.00001352        0.00000069        0.00000337
     232         -0.440685        1.000000        0.00000451        0.00004412        0.00000570        0.00002308
     233         -0.440190        1.000000        0.00000086        0.00000845        0.00000518        0.00000487
     234         -0.438756        1.000000        0.00000147        0.00003007        0.00001359        0.00004254
     235         -0.438567        1.000000        0.00000112        0.00002181        0.00001460        0.00001339
     236         -0.437274        1.000000        0.00000078        0.00000570        0.00000074        0.00000269
     237         -0.435957        1.000000        0.00000913        0.00055941        0.00100235        0.00047374
     238         -0.434534        1.000000        0.00000220        0.00002032        0.00001058        0.00000283
     239         -0.433545        1.000000        0.00000049        0.00000888        0.00000413        0.00000089
     240         -0.433074        1.000000        0.00000653        0.00008127        0.00000250        0.00000394
     241         -0.432849        1.000000        0.00000020        0.00730216        0.06599623        0.00845040
     242         -0.431815        1.000000        0.00009460        0.02204937        0.00025394        0.00225295
     243         -0.431458        1.000000        0.00012348        0.03455842        0.00026766        0.00374681
     244         -0.430946        1.000000        0.00000074        0.00000020        0.00000479        0.00009142
     245         -0.430909        1.000000        0.00000139        0.00000336        0.00001590        0.00000566
     246         -0.429968        1.000000        0.00000045        0.00000040        0.00000035        0.00000071
     247         -0.429481        1.000000        0.00000164        0.00001144        0.00001764        0.00000417
     248         -0.428686        1.000000        0.00000748        0.00020110        0.00003732        0.00002906
     249         -0.428501        1.000000        0.00000086        0.00019961        0.00200834        0.00021768
     250         -0.427999        1.000000        0.00001043        0.00008884        0.00000827        0.00008669
     251         -0.427607        1.000000        0.00001171        0.00026666        0.00011130        0.00016808
     252         -0.426991        1.000000        0.00000094        0.00002387        0.00000487        0.00001180
     253         -0.426958        1.000000        0.00000006        0.00000548        0.00007692        0.00000782
     254         -0.425964        1.000000        0.00000043        0.00000298        0.00000167        0.00000377
     255         -0.425514        1.000000        0.00000000        0.00000013        0.00000004        0.00000001
     256         -0.424985        1.000000        0.00000365        0.00000987        0.00003985        0.00000374
     257         -0.423357        1.000000        0.00000123        0.00000888        0.00000212        0.00000367
     258         -0.422942        1.000000        0.00001056        0.00017425        0.00002709        0.00000836
     259         -0.422641        1.000000        0.00000807        0.00018369        0.00023850        0.00015504