# Projected DOS for atomic kind H at iteration step i = 0, E(Fermi) =    -0.093001 a.u.
#     MO Eigenvalue [a.u.]      Occupation                 s
       1         -0.913920        1.000000        0.25134977
       2         -0.912937        1.000000        0.25372544
       3         -0.906354        1.000000        0.25333201
       4         -0.899839        1.000000        0.25670865
       5         -0.894573        1.000000        0.25839466
       6         -0.888065        1.000000        0.24709339
       7         -0.882641        1.000000        0.25664136
       8         -0.882204        1.000000        0.25887482
       9         -0.879642        1.000000        0.25434043
      10         -0.876342        1.000000        0.26162360
      11         -0.873889        1.000000        0.25907455
      12         -0.873223        1.000000        0.27427042
      13         -0.870872        1.000000        0.27444744
      14         -0.870715        1.000000        0.18904950
      15         -0.870364        1.000000        0.28044557
      16         -0.870039        1.000000        0.26255259
      17         -0.869331        1.000000        0.27077572
      18         -0.868456        1.000000        0.25857174
      19         -0.867215        1.000000        0.26156872
      20         -0.865715        1.000000        0.26738257
      21         -0.865244        1.000000        0.28330774
      22         -0.864761        1.000000        0.26092748
      23         -0.864535        1.000000        0.26324104
      24         -0.862972        1.000000        0.27153983
      25         -0.862864        1.000000        0.27503515
      26         -0.861521        1.000000        0.27060911
      27         -0.861190        1.000000        0.26562887
      28         -0.861121        1.000000        0.27753004
      29         -0.860242        1.000000        0.28077904
      30         -0.859496        1.000000        0.27606721
      31         -0.857782        1.000000        0.27565740
      32         -0.857441        1.000000        0.25386712
      33         -0.856997        1.000000        0.25207254
      34         -0.856634        1.000000        0.25762139
      35         -0.855012        1.000000        0.25674468
      36         -0.854164        1.000000        0.26562339
      37         -0.853558        1.000000        0.25547224
      38         -0.852397        1.000000        0.22900387
      39         -0.851837        1.000000        0.25792071
      40         -0.851654        1.000000        0.25715353
      41         -0.850905        1.000000        0.25925874
      42         -0.850357        1.000000        0.28039876
      43         -0.850075        1.000000        0.26983065
      44         -0.849398        1.000000        0.26255108
      45         -0.849384        1.000000        0.26657571
      46         -0.849143        1.000000        0.25919752
      47         -0.848424        1.000000        0.26414758
      48         -0.848094        1.000000        0.24290943
      49         -0.847867        1.000000        0.25187175
      50         -0.846383        1.000000        0.28184451
      51         -0.845722        1.000000        0.26146290
      52         -0.845604        1.000000        0.25777613
      53         -0.845289        1.000000        0.25233285
      54         -0.845218        1.000000        0.28257808
      55         -0.845202        1.000000        0.25701969
      56         -0.843709        1.000000        0.23806793
      57         -0.843549        1.000000        0.25764339
      58         -0.842608        1.000000        0.25991997
      59         -0.841989        1.000000        0.26671249
      60         -0.841880        1.000000        0.27452997
      61         -0.840967        1.000000        0.26839794
      62         -0.840544        1.000000        0.25076188
      63         -0.840259        1.000000        0.24835601
      64         -0.839999        1.000000        0.23798315
      65         -0.839328        1.000000        0.24476171
      66         -0.839108        1.000000        0.23873943
      67         -0.838891        1.000000        0.26241402
      68         -0.838537        1.000000        0.24802463
      69         -0.838300        1.000000        0.25143922
      70         -0.837869        1.000000        0.24082005
      71         -0.837744        1.000000        0.24514018
      72         -0.836629        1.000000        0.24804783
      73         -0.835757        1.000000        0.23182960
      74         -0.835591        1.000000        0.24296393
      75         -0.835553        1.000000        0.24423179
      76         -0.835335        1.000000        0.24955451
      77         -0.834953        1.000000        0.25072441
      78         -0.834617        1.000000        0.23252539
      79         -0.833659        1.000000        0.23049290
      80         -0.833468        1.000000        0.23496336
      81         -0.833117        1.000000        0.24229605
      82         -0.831905        1.000000        0.25399039
      83         -0.830432        1.000000        0.23842198
      84         -0.830300        1.000000        0.24335073
      85         -0.830195        1.000000        0.24027920
      86         -0.830114        1.000000        0.24121562
      87         -0.829121        1.000000        0.23816240
      88         -0.828375        1.000000        0.23767344
      89         -0.827521        1.000000        0.26046822
      90         -0.826665        1.000000        0.22979711
      91         -0.826251        1.000000        0.23109250
      92         -0.825381        1.000000        0.25598543
      93         -0.824818        1.000000        0.23268950
      94         -0.824349        1.000000        0.22712812
      95         -0.824217        1.000000        0.23002525
      96         -0.823211        1.000000        0.22504844
      97         -0.822903        1.000000        0.20881801
      98         -0.822614        1.000000        0.21626489
      99         -0.822359        1.000000        0.21839723
     100         -0.822116        1.000000        0.23503071
     101         -0.821937        1.000000        0.22691112
     102         -0.821375        1.000000        0.24380780
     103         -0.820032        1.000000        0.21499174
     104         -0.818811        1.000000        0.21560077
     105         -0.818699        1.000000        0.22741264
     106         -0.818618        1.000000        0.23700054
     107         -0.818226        1.000000        0.23165563
     108         -0.817284        1.000000        0.23021971
     109         -0.816794        1.000000        0.22555086
     110         -0.816413        1.000000        0.21120769
     111         -0.816129        1.000000        0.23037650
     112         -0.815668        1.000000        0.24988680
     113         -0.815276        1.000000        0.24211821
     114         -0.814699        1.000000        0.22912596
     115         -0.814648        1.000000        0.23718359
     116         -0.813424        1.000000        0.21321376
     117         -0.812899        1.000000        0.21055693
     118         -0.812063        1.000000        0.20585155
     119         -0.811902        1.000000        0.23920563
     120         -0.810957        1.000000        0.26134722
     121         -0.808700        1.000000        0.25406758
     122         -0.808533        1.000000        0.19481683
     123         -0.808144        1.000000        0.22022890
     124         -0.806464        1.000000        0.21478175
     125         -0.805903        1.000000        0.23135020
     126         -0.805436        1.000000        0.20931844
     127         -0.804340        1.000000        0.21270434
     128         -0.804080        1.000000        0.23293305
     129         -0.803926        1.000000        0.18406678
     130         -0.803392        1.000000        0.23961196
     131         -0.802191        1.000000        0.19735887
     132         -0.801942        1.000000        0.21188213
     133         -0.801616        1.000000        0.20410848
     134         -0.799726        1.000000        0.20725922
     135         -0.798944        1.000000        0.23253720
     136         -0.798299        1.000000        0.20586507
     137         -0.797770        1.000000        0.25472149
     138         -0.797273        1.000000        0.21779530
     139         -0.795850        1.000000        0.21512612
     140         -0.795468        1.000000        0.24387819
     141         -0.794933        1.000000        0.19553604
     142         -0.794852        1.000000        0.20958082
     143         -0.791674        1.000000        0.19172729
     144         -0.791049        1.000000        0.23133039
     145         -0.790952        1.000000        0.18456132
     146         -0.789161        1.000000        0.24404519
     147         -0.787886        1.000000        0.13429865
     148         -0.786941        1.000000        0.20353759
     149         -0.785966        1.000000        0.19347190
     150         -0.783666        1.000000        0.22179014
     151         -0.782894        1.000000        0.18205892
     152         -0.782250        1.000000        0.16619788
     153         -0.781321        1.000000        0.16524411
     154         -0.780573        1.000000        0.24178195
     155         -0.780245        1.000000        0.20838228
     156         -0.778202        1.000000        0.22006321
     157         -0.767272        1.000000        0.19244308
     158         -0.765479        1.000000        0.18513667
     159         -0.765248        1.000000        0.18182408
     160         -0.761964        1.000000        0.18742341
     161         -0.750779        1.000000        0.17387422
     162         -0.731156        1.000000        0.17766628
     163         -0.632581        1.000000        0.03584269
     164         -0.607623        1.000000        0.34801578
     165         -0.595314        1.000000        0.34553514
     166         -0.591295        1.000000        0.34608458
     167         -0.586576        1.000000        0.34436206
     168         -0.575150        1.000000        0.35812821
     169         -0.568166        1.000000        0.37382893
     170         -0.560179        1.000000        0.36363044
     171         -0.550452        1.000000        0.00593006
     172         -0.543606        1.000000        0.00409323
     173         -0.527255        1.000000        0.02758828
     174         -0.522775        1.000000        0.04884772
     175         -0.519360        1.000000        0.01491794
     176         -0.516082        1.000000        0.00869181
     177         -0.515111        1.000000        0.01536333
     178         -0.513733        1.000000        0.01684491
     179         -0.513157        1.000000        0.12488117
     180         -0.511418        1.000000        0.02670555
     181         -0.511167        1.000000        0.02390410
     182         -0.510352        1.000000        0.05459085
     183         -0.509613        1.000000        0.01998754
     184         -0.508087        1.000000        0.05264841
     185         -0.504074        1.000000        0.03063394
     186         -0.503813        1.000000        0.04341999
     187         -0.502556        1.000000        0.03401225
     188         -0.502142        1.000000        0.05093661
     189         -0.500643        1.000000        0.02286080
     190         -0.500015        1.000000        0.01571133
     191         -0.498633        1.000000        0.03772888
     192         -0.497808        1.000000        0.01533979
     193         -0.496931        1.000000        0.01212388
     194         -0.496382        1.000000        0.00965702
     195         -0.495650        1.000000        0.02764882
     196         -0.495531        1.000000        0.01979041
     197         -0.494349        1.000000        0.02583081
     198         -0.494013        1.000000        0.02466642
     199         -0.493661        1.000000        0.01584946
     200         -0.490405        1.000000        0.00731565
     201         -0.490171        1.000000        0.01275559
     202         -0.489395        1.000000        0.03651837
     203         -0.489221        1.000000        0.03009007
     204         -0.487779        1.000000        0.08775488
     205         -0.486425        1.000000        0.21067172
     206         -0.485515        1.000000        0.01915967
     207         -0.483949        1.000000        0.00629807
     208         -0.471877        1.000000        0.30584427
     209         -0.469983        1.000000        0.29787556
     210         -0.469866        1.000000        0.35524964
     211         -0.469192        1.000000        0.28217116
     212         -0.468173        1.000000        0.29575433
     213         -0.466701        1.000000        0.28912054
     214         -0.465267        1.000000        0.26889649
     215         -0.465172        1.000000        0.26895468
     216         -0.462041        1.000000        0.34983578
     217         -0.461817        1.000000        0.27667397
     218         -0.457952        1.000000        0.32556906
     219         -0.456519        1.000000        0.21769589
     220         -0.454816        1.000000        0.30370153
     221         -0.452999        1.000000        0.33006222
     222         -0.450461        1.000000        0.33590786
     223         -0.449468        1.000000        0.34173940
     224         -0.448244        1.000000        0.35019782
     225         -0.445799        1.000000        0.32817098
     226         -0.445556        1.000000        0.34192023
     227         -0.444334        1.000000        0.33320661
     228         -0.444152        1.000000        0.33892802
     229         -0.442582        1.000000        0.34250359
     230         -0.441328        1.000000        0.34109355
     231         -0.441179        1.000000        0.34547428
     232         -0.440683        1.000000        0.35200865
     233         -0.440185        1.000000        0.34943155
     234         -0.438756        1.000000        0.34632513
     235         -0.438564        1.000000        0.34525353
     236         -0.437271        1.000000        0.30933148
     237         -0.435959        1.000000        0.35016679
     238         -0.434529        1.000000        0.33987276
     239         -0.433545        1.000000        0.34329474
     240         -0.433074        1.000000        0.34005837
     241         -0.432837        1.000000        0.33878175
     242         -0.431823        1.000000        0.34270382
     243         -0.431471        1.000000        0.34134452
     244         -0.430913        1.000000        0.34792719
     245         -0.430774        1.000000        0.34979115
     246         -0.429968        1.000000        0.35298656
     247         -0.429478        1.000000        0.34954261
     248         -0.428684        1.000000        0.35386864
     249         -0.428226        1.000000        0.33948170
     250         -0.427981        1.000000        0.34391811
     251         -0.427617        1.000000        0.34535415
     252         -0.426983        1.000000        0.34644771
     253         -0.426975        1.000000        0.34705911
     254         -0.425958        1.000000        0.34467256
     255         -0.425514        1.000000        0.35570270
     256         -0.424988        1.000000        0.33849688
     257         -0.422951        1.000000        0.33814840
     258         -0.422638        1.000000        0.34528091
     259         -0.422444        1.000000        0.34507439
     260         -0.422350        1.000000        0.33529187
     261         -0.421956        1.000000        0.33713814
     262         -0.421498        1.000000        0.34516517
     263         -0.420417        1.000000        0.34500014
     264         -0.420203        1.000000        0.33528447
     265         -0.419837        1.000000        0.34643114
     266         -0.418705        1.000000        0.35321099
     267         -0.418329        1.000000        0.33769498
     268         -0.418297        1.000000        0.34277880
     269         -0.417983        1.000000        0.34979100
     270         -0.417812        1.000000        0.34197862
     271         -0.417576        1.000000        0.35061753
     272         -0.417120        1.000000        0.35133102
     273         -0.416767        1.000000        0.34029346
     274         -0.416664        1.000000        0.34068014
     275         -0.416633        1.000000        0.33071201
     276         -0.416481        1.000000        0.34691962
     277         -0.416129        1.000000        0.34012208
     278         -0.415964        1.000000        0.34200128
     279         -0.415787        1.000000        0.34461751
     280         -0.415636        1.000000        0.34290508
     281         -0.415505        1.000000        0.34436023
     282         -0.415307        1.000000        0.34254547
     283         -0.415006        1.000000        0.34465666
     284         -0.414759        1.000000        0.34001891
     285         -0.414411        1.000000        0.34324712
     286         -0.412975        1.000000        0.34431486
     287         -0.412249        1.000000        0.34009494
     288         -0.412009        1.000000        0.33383952
     289         -0.411173        1.000000        0.35163377
     290         -0.410988        1.000000        0.34750573
     291         -0.410353        1.000000        0.33912347
     292         -0.409990        1.000000        0.34389501
     293         -0.409044        1.000000        0.34182394
     294         -0.408802        1.000000        0.33774133
     295         -0.408698        1.000000        0.34688034
     296         -0.408615        1.000000        0.34827885
     297         -0.408200        1.000000        0.33875655
     298         -0.408181        1.000000        0.34276727
     299         -0.408077        1.000000        0.34777409
     300         -0.405407        1.000000        0.34402106
     301         -0.405029        1.000000        0.34688059
     302         -0.404648        1.000000        0.33739657
     303         -0.404597        1.000000        0.34543303
     304         -0.404480        1.000000        0.34257401
     305         -0.404400        1.000000        0.34525004
     306         -0.403683        1.000000        0.34755214
     307         -0.403269        1.000000        0.34778641
     308         -0.403047        1.000000        0.33869720
     309         -0.402719        1.000000        0.34602549
     310         -0.402559        1.000000        0.34583536
     311         -0.402368        1.000000        0.34275418
     312         -0.402051        1.000000        0.34406367
     313         -0.401501        1.000000        0.33985558
     314         -0.400856        1.000000        0.34460344
     315         -0.400449        1.000000        0.34561713
     316         -0.400355        1.000000        0.32783286
     317         -0.399925        1.000000        0.34881843
     318         -0.399806        1.000000        0.33844457
     319         -0.399673        1.000000        0.34073011
     320         -0.399578        1.000000        0.35174841
     321         -0.399565        1.000000        0.34364447
     322         -0.399232        1.000000        0.34696519
     323         -0.399134        1.000000        0.34788993
     324         -0.398199        1.000000        0.34582834
     325         -0.397510        1.000000        0.33405202
     326         -0.397008        1.000000        0.33875012
     327         -0.395945        1.000000        0.34179462
     328         -0.395645        1.000000        0.33332355
     329         -0.395537        1.000000        0.34173414
     330         -0.394280        1.000000        0.34376027
     331         -0.393928        1.000000        0.33781047
     332         -0.393500        1.000000        0.35374785
     333         -0.393429        1.000000        0.35014437
     334         -0.393393        1.000000        0.34188005
     335         -0.392920        1.000000        0.34059186
     336         -0.392526        1.000000        0.34484893
     337         -0.391940        1.000000        0.34056321
     338         -0.391857        1.000000        0.34700858
     339         -0.391443        1.000000        0.32723122
     340         -0.391226        1.000000        0.33812020
     341         -0.390935        1.000000        0.33881574
     342         -0.390740        1.000000        0.12679855
     343         -0.390227        1.000000        0.34151214
     344         -0.389533        1.000000        0.34437350
     345         -0.389154        1.000000        0.33268413
     346         -0.388863        1.000000        0.28142422
     347         -0.388304        1.000000        0.33321651
     348         -0.388038        1.000000        0.33116633
     349         -0.387781        1.000000        0.30988746
     350         -0.387268        1.000000        0.29942814
     351         -0.387096        1.000000        0.24545873
     352         -0.386832        1.000000        0.20722139
     353         -0.386612        1.000000        0.13844095
     354         -0.385855        1.000000        0.33959132
     355         -0.385556        1.000000        0.32836022
     356         -0.385498        1.000000        0.34164924
     357         -0.385156        1.000000        0.27768453
     358         -0.385031        1.000000        0.30254938
     359         -0.384871        1.000000        0.33915694
     360         -0.383867        1.000000        0.10967076
     361         -0.383313        1.000000        0.32606909
     362         -0.381915        1.000000        0.33644609
     363         -0.381599        1.000000        0.29616258
     364         -0.380895        1.000000        0.25428463
     365         -0.380630        1.000000        0.13562155
     366         -0.380357        1.000000        0.29700491
     367         -0.379371        1.000000        0.04633247
     368         -0.377885        1.000000        0.31561118
     369         -0.377204        1.000000        0.21556070
     370         -0.376653        1.000000        0.28458167
     371         -0.376484        1.000000        0.28828147
     372         -0.375545        1.000000        0.27628470
     373         -0.374750        1.000000        0.04083794
     374         -0.374382        1.000000        0.18184261
     375         -0.374104        1.000000        0.33752351
     376         -0.372650        1.000000        0.25403640
     377         -0.372504        1.000000        0.30072567
     378         -0.372155        1.000000        0.33820777
     379         -0.371818        1.000000        0.21293241
     380         -0.370696        1.000000        0.34595154
     381         -0.369823        1.000000        0.15306213
     382         -0.366424        1.000000        0.19024619
     383         -0.366223        1.000000        0.30300140
     384         -0.365626        1.000000        0.36202377
     385         -0.363091        1.000000        0.34157562
     386         -0.359803        1.000000        0.34098270
     387         -0.359349        1.000000        0.35838535
     388         -0.358165        1.000000        0.34072305
     389         -0.357583        1.000000        0.34586825
     390         -0.353742        1.000000        0.17801747
     391         -0.345491        1.000000        0.17669456
     392         -0.339401        1.000000        0.36014804
     393         -0.339208        1.000000        0.18137900
     394         -0.337399        1.000000        0.20595123
     395         -0.327321        1.000000        0.14756433
     396         -0.326770        1.000000        0.40849152
     397         -0.326266        1.000000        0.18804593
     398         -0.323349        1.000000        0.39711882
     399         -0.319962        1.000000        0.13494430
     400         -0.319741        1.000000        0.12867604
     401         -0.317595        1.000000        0.15638021
     402         -0.316347        1.000000        0.14540265
     403         -0.314516        1.000000        0.15486212
     404         -0.313574        1.000000        0.18406295
     405         -0.313153        1.000000        0.41574546
     406         -0.312465        1.000000        0.19321865
     407         -0.311277        1.000000        0.16978607
     408         -0.310698        1.000000        0.41668370
     409         -0.310044        1.000000        0.15029024
     410         -0.309107        1.000000        0.16497282
     411         -0.309008        1.000000        0.39330178
     412         -0.308120        1.000000        0.20849910
     413         -0.307896        1.000000        0.35235657
     414         -0.307590        1.000000        0.20014201
     415         -0.304651        1.000000        0.16675831
     416         -0.304173        1.000000        0.30494041
     417         -0.303896        1.000000        0.41330577
     418         -0.303230        1.000000        0.41743994
     419         -0.302792        1.000000        0.17708648
     420         -0.301768        1.000000        0.15052479
     421         -0.301532        1.000000        0.15576883
     422         -0.299694        1.000000        0.16153913
     423         -0.299321        1.000000        0.12677340
     424         -0.298308        1.000000        0.23790720
     425         -0.297643        1.000000        0.14736100
     426         -0.296273        1.000000        0.17544690
     427         -0.295520        1.000000        0.41942720
     428         -0.294547        1.000000        0.19077813
     429         -0.293493        1.000000        0.13429862
     430         -0.293303        1.000000        0.13144975
     431         -0.292264        1.000000        0.31440981
     432         -0.292215        1.000000        0.17814002
     433         -0.291735        1.000000        0.23491113
     434         -0.290748        1.000000        0.14401963
     435         -0.290301        1.000000        0.17231905
     436         -0.289181        1.000000        0.15577643
     437         -0.288223        1.000000        0.22401024
     438         -0.286606        1.000000        0.15577081
     439         -0.285629        1.000000        0.15035091
     440         -0.285303        1.000000        0.16302135
     441         -0.284961        1.000000        0.14979662
     442         -0.284162        1.000000        0.15561294
     443         -0.283401        1.000000        0.14702612
     444         -0.282247        1.000000        0.17925790
     445         -0.282178        1.000000        0.12203733
     446         -0.281295        1.000000        0.17919861
     447         -0.279996        1.000000        0.18844156
     448         -0.278718        1.000000        0.12502161
     449         -0.278632        1.000000        0.11495651
     450         -0.277985        1.000000        0.12064593
     451         -0.277577        1.000000        0.21389295
     452         -0.276746        1.000000        0.13430953
     453         -0.273948        1.000000        0.09803021
     454         -0.273274        1.000000        0.10598354
     455         -0.272695        1.000000        0.13288331
     456         -0.272357        1.000000        0.12242693
     457         -0.271369        1.000000        0.11094340
     458         -0.270331        1.000000        0.11399230
     459         -0.269404        1.000000        0.12131944
     460         -0.267348        1.000000        0.12968862
     461         -0.266677        1.000000        0.12922055
     462         -0.266209        1.000000        0.11414031
     463         -0.265426        1.000000        0.11990291
     464         -0.264417        1.000000        0.12639982
     465         -0.264034        1.000000        0.11571147
     466         -0.262270        1.000000        0.10054685
     467         -0.261292        1.000000        0.10749425
     468         -0.261059        1.000000        0.10192498
     469         -0.259304        1.000000        0.10784345
     470         -0.257978        1.000000        0.09617445
     471         -0.257752        1.000000        0.09100111
     472         -0.256433        1.000000        0.10027893
     473         -0.255826        1.000000        0.08072396
     474         -0.254924        1.000000        0.08819166
     475         -0.254150        1.000000        0.11160037
     476         -0.253875        1.000000        0.09709067
     477         -0.251277        1.000000        0.09375635
     478         -0.250871        1.000000        0.09071102
     479         -0.249165        1.000000        0.10573414
     480         -0.247039        1.000000        0.07286838
     481         -0.244687        1.000000        0.09789717
     482         -0.243970        1.000000        0.10141140
     483         -0.242768        1.000000        0.08785871
     484         -0.242526        1.000000        0.07932046
     485         -0.241896        1.000000        0.06388470
     486         -0.241503        1.000000        0.07587429
     487         -0.240722        1.000000        0.08280680
     488         -0.239623        1.000000        0.09193205
     489         -0.239280        1.000000        0.07640963