# Projected DOS for atomic kind I at iteration step i = 0, E(Fermi) =    -0.093001 a.u.
#     MO Eigenvalue [a.u.]      Occupation                 s                py                pz                px
       1         -0.913920        1.000000        0.00009524        0.00014219        0.00002864        0.00027084
       2         -0.912937        1.000000        0.00015346        0.00001854        0.00007903        0.00052481
       3         -0.906354        1.000000        0.00016066        0.00024540        0.00024816        0.00014192
       4         -0.899839        1.000000        0.00017458        0.00000160        0.00057309        0.00005342
       5         -0.894573        1.000000        0.00007758        0.00002964        0.00022646        0.00019259
       6         -0.888065        1.000000        0.00011057        0.00029583        0.00003289        0.00013015
       7         -0.882641        1.000000        0.00011041        0.00000920        0.00006289        0.00038420
       8         -0.882204        1.000000        0.00014378        0.00010433        0.00010531        0.00041942
       9         -0.879642        1.000000        0.00016941        0.00027187        0.00032024        0.00000468
      10         -0.876342        1.000000        0.00006939        0.00012742        0.00004787        0.00032431
      11         -0.873889        1.000000        0.00002617        0.00003607        0.00000351        0.00009815
      12         -0.873223        1.000000        0.00005578        0.00004136        0.00010521        0.00016476
      13         -0.870872        1.000000        0.00006831        0.00015636        0.00003675        0.00008372
      14         -0.870715        1.000000        0.00005064        0.00006627        0.00003108        0.00008581
      15         -0.870364        1.000000        0.00007052        0.00005506        0.00010565        0.00009534
      16         -0.870039        1.000000        0.00002393        0.00007220        0.00006031        0.00003087
      17         -0.869331        1.000000        0.00003217        0.00002533        0.00007126        0.00003816
      18         -0.868456        1.000000        0.00002537        0.00006248        0.00005621        0.00003099
      19         -0.867215        1.000000        0.00001246        0.00001722        0.00003477        0.00001492
      20         -0.865715        1.000000        0.00007065        0.00003336        0.00000357        0.00031188
      21         -0.865244        1.000000        0.00003687        0.00003632        0.00008749        0.00006782
      22         -0.864761        1.000000        0.00006252        0.00011279        0.00001368        0.00025092
      23         -0.864535        1.000000        0.00006449        0.00012781        0.00007882        0.00015992
      24         -0.862972        1.000000        0.00003826        0.00014577        0.00006714        0.00021914
      25         -0.862864        1.000000        0.00001145        0.00008547        0.00004411        0.00001563
      26         -0.861521        1.000000        0.00023714        0.00024072        0.00027484        0.00014454
      27         -0.861190        1.000000        0.00001981        0.00011198        0.00005993        0.00004974
      28         -0.861121        1.000000        0.00010914        0.00013421        0.00019181        0.00010026
      29         -0.860242        1.000000        0.00025847        0.00050131        0.00038220        0.00018143
      30         -0.859496        1.000000        0.00000132        0.00000457        0.00001298        0.00000657
      31         -0.857782        1.000000        0.00003342        0.00007898        0.00007181        0.00004977
      32         -0.857441        1.000000        0.00002217        0.00006454        0.00003148        0.00006331
      33         -0.856997        1.000000        0.00001966        0.00002244        0.00001847        0.00005904
      34         -0.856634        1.000000        0.00002010        0.00003108        0.00001622        0.00009926
      35         -0.855012        1.000000        0.00015972        0.00012182        0.00021508        0.00007466
      36         -0.854164        1.000000        0.00002542        0.00007022        0.00002509        0.00003089
      37         -0.853558        1.000000        0.00008805        0.00011248        0.00018788        0.00006268
      38         -0.852397        1.000000        0.00003504        0.00005978        0.00004133        0.00005481
      39         -0.851837        1.000000        0.00003698        0.00004309        0.00006283        0.00010358
      40         -0.851654        1.000000        0.00001842        0.00004828        0.00005537        0.00004012
      41         -0.850905        1.000000        0.00003313        0.00010964        0.00002031        0.00002948
      42         -0.850357        1.000000        0.00018224        0.00036036        0.00020582        0.00034041
      43         -0.850075        1.000000        0.00001989        0.00005389        0.00001657        0.00001528
      44         -0.849398        1.000000        0.00005554        0.00004941        0.00011045        0.00020946
      45         -0.849384        1.000000        0.00006802        0.00009910        0.00003783        0.00005905
      46         -0.849143        1.000000        0.00005003        0.00002294        0.00008505        0.00005042
      47         -0.848424        1.000000        0.00023168        0.00025576        0.00018778        0.00005807
      48         -0.848094        1.000000        0.00001961        0.00007232        0.00001910        0.00005575
      49         -0.847867        1.000000        0.00029144        0.00028030        0.00026275        0.00006710
      50         -0.846383        1.000000        0.00021129        0.00050724        0.00025037        0.00022041
      51         -0.845722        1.000000        0.00003602        0.00001703        0.00005394        0.00004088
      52         -0.845604        1.000000        0.00003366        0.00006825        0.00002598        0.00002409
      53         -0.845289        1.000000        0.00003721        0.00007028        0.00004598        0.00006113
      54         -0.845218        1.000000        0.00023225        0.00049896        0.00020736        0.00035414
      55         -0.845202        1.000000        0.00005332        0.00009885        0.00004199        0.00003187
      56         -0.843709        1.000000        0.00000654        0.00001782        0.00000733        0.00003752
      57         -0.843549        1.000000        0.00013154        0.00013445        0.00017615        0.00006332
      58         -0.842608        1.000000        0.00004721        0.00004534        0.00004561        0.00003622
      59         -0.841989        1.000000        0.00002265        0.00001183        0.00005668        0.00005195
      60         -0.841880        1.000000        0.00002044        0.00001531        0.00001252        0.00010830
      61         -0.840967        1.000000        0.00002367        0.00001088        0.00004441        0.00010077
      62         -0.840544        1.000000        0.00007655        0.00006504        0.00017205        0.00003210
      63         -0.840259        1.000000        0.00008559        0.00011241        0.00005204        0.00005187
      64         -0.839999        1.000000        0.00002763        0.00001577        0.00002521        0.00006592
      65         -0.839328        1.000000        0.00001539        0.00002121        0.00003405        0.00002872
      66         -0.839108        1.000000        0.00017066        0.00017796        0.00012053        0.00004670
      67         -0.838891        1.000000        0.00001601        0.00002752        0.00003454        0.00002254
      68         -0.838537        1.000000        0.00006438        0.00010951        0.00005746        0.00005800
      69         -0.838300        1.000000        0.00002105        0.00003389        0.00004172        0.00002590
      70         -0.837869        1.000000        0.00002686        0.00003283        0.00007555        0.00005157
      71         -0.837744        1.000000        0.00002978        0.00002807        0.00006567        0.00004565
      72         -0.836629        1.000000        0.00002012        0.00002170        0.00003724        0.00003751
      73         -0.835757        1.000000        0.00001458        0.00000759        0.00004298        0.00005312
      74         -0.835591        1.000000        0.00008970        0.00005272        0.00015685        0.00006268
      75         -0.835553        1.000000        0.00009286        0.00003902        0.00007285        0.00015237
      76         -0.835335        1.000000        0.00003099        0.00002876        0.00002701        0.00004923
      77         -0.834953        1.000000        0.00003590        0.00003044        0.00009854        0.00001652
      78         -0.834617        1.000000        0.00003273        0.00002871        0.00009787        0.00005405
      79         -0.833659        1.000000        0.00023405        0.00021828        0.00019892        0.00006454
      80         -0.833468        1.000000        0.00003649        0.00003612        0.00003990        0.00003235
      81         -0.833117        1.000000        0.00003330        0.00002349        0.00012102        0.00007714
      82         -0.831905        1.000000        0.00012168        0.00011308        0.00007652        0.00003513
      83         -0.830432        1.000000        0.00004742        0.00002388        0.00016883        0.00001520
      84         -0.830300        1.000000        0.00006707        0.00001741        0.00011638        0.00013122
      85         -0.830195        1.000000        0.00006447        0.00009777        0.00005016        0.00001922
      86         -0.830114        1.000000        0.00005285        0.00007549        0.00009324        0.00003277
      87         -0.829121        1.000000        0.00012999        0.00018484        0.00020220        0.00004959
      88         -0.828375        1.000000        0.00002897        0.00003202        0.00002687        0.00003939
      89         -0.827521        1.000000        0.00009093        0.00030451        0.00005029        0.00000240
      90         -0.826665        1.000000        0.00007832        0.00006012        0.00010696        0.00006156
      91         -0.826251        1.000000        0.00024355        0.00015890        0.00027339        0.00006869
      92         -0.825381        1.000000        0.00001640        0.00004870        0.00003393        0.00003113
      93         -0.824818        1.000000        0.00010464        0.00016083        0.00003632        0.00002640
      94         -0.824349        1.000000        0.00005931        0.00005908        0.00005921        0.00005497
      95         -0.824217        1.000000        0.00003294        0.00004351        0.00004269        0.00003835
      96         -0.823211        1.000000        0.00003324        0.00006540        0.00003970        0.00005315
      97         -0.822903        1.000000        0.00049311        0.00050043        0.00025608        0.00002154
      98         -0.822614        1.000000        0.00003751        0.00006233        0.00002931        0.00002130
      99         -0.822359        1.000000        0.00001746        0.00003761        0.00001692        0.00001760
     100         -0.822116        1.000000        0.00002272        0.00005504        0.00000749        0.00002062
     101         -0.821937        1.000000        0.00002898        0.00005689        0.00001967        0.00002174
     102         -0.821375        1.000000        0.00002990        0.00008691        0.00006045        0.00004120
     103         -0.820032        1.000000        0.00001141        0.00001729        0.00009132        0.00003403
     104         -0.818811        1.000000        0.00006054        0.00007130        0.00004055        0.00003620
     105         -0.818699        1.000000        0.00001938        0.00002377        0.00002751        0.00003267
     106         -0.818618        1.000000        0.00001037        0.00001608        0.00001499        0.00002300
     107         -0.818226        1.000000        0.00002063        0.00001554        0.00008606        0.00001038
     108         -0.817284        1.000000        0.00007454        0.00014826        0.00001674        0.00003942
     109         -0.816794        1.000000        0.00005676        0.00002830        0.00004663        0.00017697
     110         -0.816413        1.000000        0.00012809        0.00009641        0.00009479        0.00004765
     111         -0.816129        1.000000        0.00001699        0.00004668        0.00003018        0.00003299
     112         -0.815668        1.000000        0.00002954        0.00003847        0.00003653        0.00002500
     113         -0.815276        1.000000        0.00002351        0.00002927        0.00003374        0.00001813
     114         -0.814699        1.000000        0.00002892        0.00001686        0.00004068        0.00005259
     115         -0.814648        1.000000        0.00006550        0.00006793        0.00001192        0.00004553
     116         -0.813424        1.000000        0.00003091        0.00004425        0.00002854        0.00008670
     117         -0.812899        1.000000        0.00064014        0.00085179        0.00003839        0.00015397
     118         -0.812063        1.000000        0.00042466        0.00034784        0.00020874        0.00009213
     119         -0.811902        1.000000        0.00003865        0.00010332        0.00007265        0.00002974
     120         -0.810957        1.000000        0.00003572        0.00004597        0.00000440        0.00009221
     121         -0.808700        1.000000        0.00020191        0.00035813        0.00000279        0.00002829
     122         -0.808533        1.000000        0.00002402        0.00000219        0.00001347        0.00005135
     123         -0.808144        1.000000        0.00013291        0.00004082        0.00028257        0.00006894
     124         -0.806464        1.000000        0.00013695        0.00003224        0.00024317        0.00008179
     125         -0.805903        1.000000        0.00005128        0.00000718        0.00014296        0.00005592
     126         -0.805436        1.000000        0.00011155        0.00010686        0.00005196        0.00004529
     127         -0.804340        1.000000        0.00001634        0.00001322        0.00001856        0.00001208
     128         -0.804080        1.000000        0.00005252        0.00007719        0.00010706        0.00003385
     129         -0.803926        1.000000        0.00008473        0.00007992        0.00004618        0.00007062
     130         -0.803392        1.000000        0.00003366        0.00003770        0.00011489        0.00005350
     131         -0.802191        1.000000        0.00001547        0.00003366        0.00006201        0.00002240
     132         -0.801942        1.000000        0.00007083        0.00007110        0.00008504        0.00006738
     133         -0.801616        1.000000        0.00036781        0.00020920        0.00024620        0.00004489
     134         -0.799726        1.000000        0.00004464        0.00004086        0.00003373        0.00003964
     135         -0.798944        1.000000        0.00001274        0.00002090        0.00009046        0.00004180
     136         -0.798299        1.000000        0.00013751        0.00014658        0.00003518        0.00007997
     137         -0.797770        1.000000        0.00007792        0.00001120        0.00034158        0.00003659
     138         -0.797273        1.000000        0.00005295        0.00005577        0.00003179        0.00004522
     139         -0.795850        1.000000        0.00003523        0.00003638        0.00002819        0.00007181
     140         -0.795468        1.000000        0.00000628        0.00001822        0.00004452        0.00001193
     141         -0.794933        1.000000        0.00000540        0.00000470        0.00000165        0.00001802
     142         -0.794852        1.000000        0.00000727        0.00000421        0.00000577        0.00002777
     143         -0.791674        1.000000        0.00001941        0.00002044        0.00002638        0.00002028
     144         -0.791049        1.000000        0.00000840        0.00002707        0.00010249        0.00000408
     145         -0.790952        1.000000        0.00006262        0.00010023        0.00001335        0.00001667
     146         -0.789161        1.000000        0.00005440        0.00010700        0.00008527        0.00002607
     147         -0.787886        1.000000        0.00901163        0.00581006        0.00407894        0.00053290
     148         -0.786941        1.000000        0.00000995        0.00001278        0.00000504        0.00002697
     149         -0.785966        1.000000        0.00003671        0.00005376        0.00001602        0.00000643
     150         -0.783666        1.000000        0.00017277        0.00012914        0.00010746        0.00000471
     151         -0.782894        1.000000        0.00000226        0.00000156        0.00000084        0.00000699
     152         -0.782250        1.000000        0.00049846        0.00000532        0.00091059        0.00047903
     153         -0.781321        1.000000        0.00819859        0.00851129        0.00023150        0.00147028
     154         -0.780573        1.000000        0.00000275        0.00000539        0.00002771        0.00000314
     155         -0.780245        1.000000        0.00002571        0.00002044        0.00000071        0.00006327
     156         -0.778202        1.000000        0.00001063        0.00000908        0.00006153        0.00000600
     157         -0.767272        1.000000        0.00000417        0.00001181        0.00000532        0.00000484
     158         -0.765479        1.000000        0.00024277        0.00058578        0.00005645        0.00006555
     159         -0.765248        1.000000        0.00042126        0.00073365        0.00008875        0.00019338
     160         -0.761964        1.000000        0.00000054        0.00000838        0.00000955        0.00000530
     161         -0.750779        1.000000        0.00002520        0.00001140        0.00006226        0.00000324
     162         -0.731156        1.000000        0.00000194        0.00000101        0.00000112        0.00000067
     163         -0.632581        1.000000        0.00002819        0.00000251        0.00001193        0.00000448
     164         -0.607623        1.000000        0.00272925        0.00057303        0.00043180        0.00030201
     165         -0.595314        1.000000        0.00270040        0.00045914        0.00041432        0.00030831
     166         -0.591295        1.000000        0.00204014        0.00051127        0.00024482        0.00018638
     167         -0.586576        1.000000        0.00469486        0.00049501        0.00094803        0.00066369
     168         -0.575150        1.000000        0.00216792        0.00026461        0.00035941        0.00035164
     169         -0.568166        1.000000        0.00150372        0.00002622        0.00011217        0.00021305
     170         -0.560179        1.000000        0.00267649        0.00023431        0.00018816        0.00039958
     171         -0.550452        1.000000        0.94767211        0.01326440        0.00046844        0.00214305
     172         -0.543606        1.000000        0.93686684        0.00052696        0.00055806        0.00090999
     173         -0.527255        1.000000        0.82952516        0.00306381        0.00350762        0.00270492
     174         -0.522775        1.000000        0.81166641        0.00192476        0.00200921        0.00468543
     175         -0.519360        1.000000        0.83648488        0.00437122        0.00284864        0.00354596
     176         -0.516082        1.000000        0.84164864        0.00331869        0.00674391        0.00342663
     177         -0.515111        1.000000        0.83261729        0.00301098        0.00682328        0.00502223
     178         -0.513733        1.000000        0.79659579        0.00774744        0.00459469        0.00649840
     179         -0.513157        1.000000        0.72554062        0.00003482        0.00308119        0.00108963
     180         -0.511418        1.000000        0.84077440        0.00362352        0.00306581        0.00378673
     181         -0.511167        1.000000        0.82054307        0.00515964        0.00545880        0.00489539
     182         -0.510352        1.000000        0.81162880        0.00207206        0.00226767        0.00163689
     183         -0.509613        1.000000        0.90269845        0.00167596        0.00129646        0.00081183
     184         -0.508087        1.000000        0.81930126        0.00226823        0.00101571        0.00132620
     185         -0.504074        1.000000        0.87949375        0.00243565        0.00320660        0.00145960
     186         -0.503813        1.000000        0.85283794        0.00214512        0.00103436        0.00161096
     187         -0.502556        1.000000        0.86928754        0.00247463        0.00150407        0.00106079
     188         -0.502142        1.000000        0.82671783        0.00195386        0.00173347        0.00183745
     189         -0.500643        1.000000        0.90181904        0.00458955        0.00128694        0.00148605
     190         -0.500015        1.000000        0.91915583        0.00316435        0.00160070        0.00124134
     191         -0.498633        1.000000        0.86213890        0.00155014        0.00120234        0.00080478
     192         -0.497808        1.000000        0.92300448        0.00369462        0.00072323        0.00197507
     193         -0.496931        1.000000        0.92636486        0.00268390        0.00059805        0.00164598
     194         -0.496382        1.000000        0.93401154        0.00058473        0.00032289        0.00176952
     195         -0.495650        1.000000        0.88002411        0.00178694        0.00097647        0.00131883
     196         -0.495531        1.000000        0.90922452        0.00259359        0.00085578        0.00130768
     197         -0.494349        1.000000        0.89065829        0.00087343        0.00110932        0.00116129
     198         -0.494013        1.000000        0.90016317        0.00047452        0.00082374        0.00125598
     199         -0.493661        1.000000        0.92446899        0.00103001        0.00074397        0.00104962
     200         -0.490405        1.000000        0.94003090        0.00051057        0.00059333        0.00103872
     201         -0.490171        1.000000        0.92438384        0.00063291        0.00168236        0.00107789
     202         -0.489395        1.000000        0.87329335        0.00146816        0.00097373        0.00064643
     203         -0.489221        1.000000        0.89645655        0.00158267        0.00040844        0.00066419
     204         -0.487779        1.000000        0.73339904        0.00167811        0.00205403        0.00123559
     205         -0.486425        1.000000        0.36596820        0.00146289        0.00532569        0.00183453
     206         -0.485515        1.000000        0.92671924        0.00109309        0.00073842        0.00050413
     207         -0.483949        1.000000        0.96700266        0.00025672        0.00032294        0.00083369
     208         -0.471877        1.000000        0.08317152        0.00680601        0.00254906        0.00252932
     209         -0.469983        1.000000        0.10070890        0.00287285        0.00089401        0.00286064
     210         -0.469866        1.000000        0.00007840        0.00007896        0.00987876        0.00757209
     211         -0.469192        1.000000        0.12980592        0.00239663        0.00070809        0.00235218
     212         -0.468173        1.000000        0.12870681        0.00287440        0.00144462        0.00086279
     213         -0.466701        1.000000        0.10268222        0.00447455        0.00086631        0.00374692
     214         -0.465267        1.000000        0.14841048        0.00379086        0.00266233        0.00177518
     215         -0.465172        1.000000        0.13493308        0.00353976        0.00056867        0.00348588
     216         -0.462041        1.000000        0.00958146        0.00006462        0.00060041        0.00101376
     217         -0.461817        1.000000        0.12500631        0.00274603        0.00090218        0.00113212
     218         -0.457952        1.000000        0.06174932        0.00191625        0.00106229        0.00170184
     219         -0.456519        1.000000        0.25798546        0.00151275        0.00063034        0.00262025
     220         -0.454816        1.000000        0.11182920        0.00095246        0.00147695        0.00531066
     221         -0.452999        1.000000        0.01804375        0.00156926        0.00102431        0.00103341
     222         -0.450461        1.000000        0.00059280        0.00005252        0.00000796        0.00005296
     223         -0.449468        1.000000        0.00008691        0.00001291        0.00002779        0.00010471
     224         -0.448244        1.000000        0.00126368        0.00005933        0.00005822        0.00031935
     225         -0.445799        1.000000        0.00887321        0.00158560        0.00041014        0.00095023
     226         -0.445556        1.000000        0.00640224        0.00009648        0.00159845        0.00299641
     227         -0.444334        1.000000        0.02747968        0.00271403        0.00106525        0.00068765
     228         -0.444152        1.000000        0.03864636        0.00464469        0.00296387        0.00016323
     229         -0.442582        1.000000        0.00011413        0.00008035        0.00004328        0.00007535
     230         -0.441328        1.000000        0.03156960        0.00011911        0.00034023        0.00716144
     231         -0.441179        1.000000        0.00149915        0.00016627        0.00100996        0.00021973
     232         -0.440683        1.000000        0.00412821        0.00027471        0.00011216        0.00074590
     233         -0.440185        1.000000        0.01413789        0.00017708        0.00027921        0.00566718
     234         -0.438756        1.000000        0.01804756        0.00019440        0.00054150        0.00126277
     235         -0.438564        1.000000        0.00295455        0.00006688        0.00013537        0.00033898
     236         -0.437271        1.000000        0.09173904        0.00019875        0.00002869        0.00216637
     237         -0.435959        1.000000        0.00122919        0.00012836        0.00010241        0.00004580
     238         -0.434529        1.000000        0.02090032        0.00336497        0.00050369        0.00173647
     239         -0.433545        1.000000        0.00290282        0.00003164        0.00027760        0.00024538
     240         -0.433074        1.000000        0.01222317        0.00034126        0.00036266        0.00074683
     241         -0.432837        1.000000        0.00672825        0.00109652        0.00312013        0.00052235
     242         -0.431823        1.000000        0.00153432        0.00047066        0.00056001        0.00010529
     243         -0.431471        1.000000        0.00228345        0.00038414        0.00088308        0.00007259
     244         -0.430913        1.000000        0.00178997        0.00018077        0.00017420        0.00042777
     245         -0.430774        1.000000        0.00009506        0.00003923        0.00000890        0.00002051
     246         -0.429968        1.000000        0.00148732        0.00008541        0.00017957        0.00019137
     247         -0.429478        1.000000        0.00055552        0.00009239        0.00002785        0.00003576
     248         -0.428684        1.000000        0.00336062        0.00100815        0.00008336        0.00005732
     249         -0.428226        1.000000        0.00096494        0.00020161        0.00016760        0.00005857
     250         -0.427981        1.000000        0.00882942        0.00160357        0.00109931        0.00026143
     251         -0.427617        1.000000        0.01128295        0.00198133        0.00075427        0.00249411
     252         -0.426983        1.000000        0.00283566        0.00006420        0.00032682        0.00036704
     253         -0.426975        1.000000        0.00083865        0.00007356        0.00010273        0.00026422
     254         -0.425958        1.000000        0.00235757        0.00087821        0.00002959        0.00026807
     255         -0.425514        1.000000        0.00076023        0.00027981        0.00006271        0.00007559
     256         -0.424988        1.000000        0.00451020        0.00087507        0.00018346        0.00032088
     257         -0.422951        1.000000        0.00143744        0.00019815        0.00041383        0.00033771
     258         -0.422638        1.000000        0.00230202        0.00118886        0.00037210        0.00024221
     259         -0.422444        1.000000        0.00350839        0.00072867        0.00031215        0.00024478