# Projected DOS for atomic kind Pb at iteration step i = 0, E(Fermi) =    -0.099966 a.u.
#     MO Eigenvalue [a.u.]      Occupation                 s                py                pz                px
       1         -0.913915        1.000000        0.00000007        0.00000056        0.00000000        0.00000001
       2         -0.912939        1.000000        0.00000004        0.00000017        0.00000013        0.00000060
       3         -0.906357        1.000000        0.00000027        0.00000298        0.00000029        0.00000002
       4         -0.899839        1.000000        0.00000412        0.00003620        0.00001832        0.00000391
       5         -0.894572        1.000000        0.00000030        0.00000429        0.00000039        0.00001505
       6         -0.888063        1.000000        0.00000088        0.00000090        0.00000244        0.00001209
       7         -0.887459        1.000000        0.00000011        0.00000048        0.00000001        0.00000007
       8         -0.882635        1.000000        0.00000030        0.00000001        0.00000006        0.00000138
       9         -0.882205        1.000000        0.00000014        0.00000082        0.00000009        0.00000000
      10         -0.879667        1.000000        0.00000033        0.00000229        0.00000001        0.00000006
      11         -0.876306        1.000000        0.00000031        0.00000412        0.00000072        0.00000351
      12         -0.873893        1.000000        0.00000010        0.00000052        0.00000000        0.00000082
      13         -0.873223        1.000000        0.00000023        0.00000303        0.00000130        0.00000043
      14         -0.870873        1.000000        0.00000035        0.00000156        0.00000595        0.00000033
      15         -0.870325        1.000000        0.00000139        0.00000114        0.00000835        0.00000478
      16         -0.870039        1.000000        0.00000015        0.00000074        0.00000130        0.00000096
      17         -0.869315        1.000000        0.00000502        0.00001014        0.00003142        0.00001312
      18         -0.868457        1.000000        0.00000012        0.00000035        0.00000161        0.00000124
      19         -0.867215        1.000000        0.00005421        0.00027018        0.00036928        0.00005360
      20         -0.866224        1.000000        0.00000029        0.00000005        0.00000001        0.00000147
      21         -0.865235        1.000000        0.00000025        0.00000120        0.00000217        0.00000276
      22         -0.864972        1.000000        0.00000025        0.00000003        0.00000001        0.00000124
      23         -0.864660        1.000000        0.00000105        0.00000804        0.00001525        0.00000592
      24         -0.863384        1.000000        0.00000054        0.00000290        0.00000033        0.00000062
      25         -0.862861        1.000000        0.00000014        0.00000127        0.00000154        0.00000057
      26         -0.861362        1.000000        0.00000003        0.00000563        0.00000189        0.00000119
      27         -0.861193        1.000000        0.00000004        0.00000034        0.00000103        0.00000016
      28         -0.861119        1.000000        0.00000059        0.00000456        0.00000666        0.00000392
      29         -0.860238        1.000000        0.00000216        0.00001408        0.00003908        0.00000755
      30         -0.859497        1.000000        0.00000002        0.00000005        0.00000007        0.00000012
      31         -0.858826        1.000000        0.00000004        0.00000113        0.00000007        0.00000014
      32         -0.857777        1.000000        0.00000039        0.00000617        0.00000146        0.00000282
      33         -0.856988        1.000000        0.00000007        0.00000479        0.00000010        0.00000030
      34         -0.856638        1.000000        0.00000011        0.00000199        0.00000027        0.00000128
      35         -0.854935        1.000000        0.00000279        0.00006660        0.00000180        0.00001757
      36         -0.854324        1.000000        0.00000008        0.00000040        0.00000078        0.00000042
      37         -0.854154        1.000000        0.00000007        0.00000475        0.00000011        0.00000028
      38         -0.853497        1.000000        0.00000479        0.00002867        0.00000997        0.00002091
      39         -0.851848        1.000000        0.00000000        0.00000060        0.00000041        0.00000036
      40         -0.851655        1.000000        0.00000001        0.00000034        0.00000056        0.00000026
      41         -0.850903        1.000000        0.00000005        0.00000056        0.00000127        0.00000008
      42         -0.850370        1.000000        0.00000089        0.00000939        0.00000880        0.00000537
      43         -0.850073        1.000000        0.00000006        0.00000118        0.00000015        0.00000005
      44         -0.849625        1.000000        0.00000019        0.00000038        0.00000167        0.00000072
      45         -0.849377        1.000000        0.00000015        0.00000240        0.00000095        0.00000037
      46         -0.849132        1.000000        0.00000015        0.00000026        0.00000084        0.00000137
      47         -0.848349        1.000000        0.00000032        0.00000174        0.00000107        0.00000013
      48         -0.848098        1.000000        0.00000041        0.00000369        0.00000769        0.00000176
      49         -0.847662        1.000000        0.00000082        0.00000465        0.00000224        0.00000021
      50         -0.846371        1.000000        0.00000146        0.00001398        0.00001444        0.00000802
      51         -0.845677        1.000000        0.00000052        0.00000272        0.00000057        0.00000627
      52         -0.845587        1.000000        0.00000030        0.00000152        0.00000042        0.00000430
      53         -0.845562        1.000000        0.00000003        0.00000067        0.00000056        0.00000061
      54         -0.845208        1.000000        0.00000106        0.00000803        0.00001265        0.00000763
      55         -0.845184        1.000000        0.00000019        0.00000177        0.00000060        0.00000148
      56         -0.843739        1.000000        0.00000004        0.00000009        0.00000005        0.00000012
      57         -0.843481        1.000000        0.00000039        0.00000209        0.00000151        0.00000053
      58         -0.842588        1.000000        0.00000010        0.00000028        0.00000025        0.00000067
      59         -0.842033        1.000000        0.00000013        0.00000018        0.00000012        0.00000070
      60         -0.841970        1.000000        0.00000012        0.00000020        0.00000025        0.00000034
      61         -0.841020        1.000000        0.00000011        0.00000021        0.00000041        0.00000012
      62         -0.840785        1.000000        0.00000003        0.00000042        0.00000076        0.00000004
      63         -0.840511        1.000000        0.00000072        0.00000168        0.00000044        0.00000611
      64         -0.840235        1.000000        0.00000023        0.00000167        0.00000069        0.00000027
      65         -0.839378        1.000000        0.00000006        0.00000006        0.00000032        0.00000043
      66         -0.839035        1.000000        0.00000048        0.00000213        0.00000196        0.00000430
      67         -0.838977        1.000000        0.00000009        0.00000045        0.00000032        0.00000035
      68         -0.838581        1.000000        0.00000019        0.00000117        0.00000144        0.00000222
      69         -0.838309        1.000000        0.00000006        0.00000016        0.00000044        0.00000050
      70         -0.838079        1.000000        0.00000018        0.00000053        0.00000216        0.00000179
      71         -0.837989        1.000000        0.00000008        0.00000046        0.00000176        0.00000604
      72         -0.837689        1.000000        0.00000024        0.00000106        0.00000056        0.00000188
      73         -0.836867        1.000000        0.00000005        0.00000079        0.00000016        0.00000035
      74         -0.836171        1.000000        0.00000006        0.00000019        0.00000037        0.00000066
      75         -0.835386        1.000000        0.00000015        0.00000071        0.00000038        0.00000103
      76         -0.835164        1.000000        0.00000022        0.00000083        0.00000097        0.00000260
      77         -0.834926        1.000000        0.00000011        0.00000042        0.00000055        0.00000005
      78         -0.834817        1.000000        0.00000003        0.00000074        0.00000161        0.00000440
      79         -0.833529        1.000000        0.00000026        0.00000104        0.00000114        0.00000230
      80         -0.833410        1.000000        0.00000036        0.00000114        0.00000201        0.00000451
      81         -0.833175        1.000000        0.00000009        0.00000024        0.00000092        0.00000048
      82         -0.831860        1.000000        0.00000009        0.00000153        0.00000029        0.00000023
      83         -0.830408        1.000000        0.00000035        0.00000023        0.00000154        0.00000106
      84         -0.830304        1.000000        0.00000005        0.00000022        0.00000019        0.00000038
      85         -0.830249        1.000000        0.00000016        0.00000087        0.00000112        0.00000053
      86         -0.830040        1.000000        0.00000049        0.00000392        0.00000281        0.00000153
      87         -0.829371        1.000000        0.00000002        0.00000046        0.00000016        0.00000003
      88         -0.828571        1.000000        0.00000004        0.00000228        0.00000085        0.00000107
      89         -0.827989        1.000000        0.00000060        0.00000074        0.00000026        0.00000061
      90         -0.826492        1.000000        0.00000014        0.00000051        0.00000423        0.00000370
      91         -0.826183        1.000000        0.00000004        0.00000126        0.00000093        0.00000034
      92         -0.825342        1.000000        0.00000005        0.00000035        0.00000006        0.00000013
      93         -0.824909        1.000000        0.00000004        0.00000164        0.00000017        0.00000002
      94         -0.824447        1.000000        0.00000011        0.00000165        0.00000027        0.00000041
      95         -0.824296        1.000000        0.00000009        0.00000076        0.00000016        0.00000034
      96         -0.823245        1.000000        0.00000008        0.00000056        0.00000043        0.00000031
      97         -0.822622        1.000000        0.00000007        0.00000078        0.00000069        0.00000019
      98         -0.822474        1.000000        0.00000031        0.00000164        0.00000035        0.00000037
      99         -0.822339        1.000000        0.00000010        0.00000025        0.00000054        0.00000032
     100         -0.822108        1.000000        0.00000003        0.00000038        0.00000003        0.00000002
     101         -0.821901        1.000000        0.00000001        0.00000121        0.00000009        0.00000004
     102         -0.821257        1.000000        0.00000008        0.00000059        0.00000111        0.00000053
     103         -0.820190        1.000000        0.00000003        0.00000003        0.00000019        0.00000010
     104         -0.818759        1.000000        0.00000001        0.00000052        0.00000007        0.00000038
     105         -0.818706        1.000000        0.00000009        0.00000015        0.00000043        0.00000011
     106         -0.818623        1.000000        0.00000008        0.00000025        0.00000043        0.00000012
     107         -0.818410        1.000000        0.00000006        0.00000007        0.00000025        0.00000013
     108         -0.817283        1.000000        0.00000008        0.00000040        0.00000001        0.00000001
     109         -0.816787        1.000000        0.00000015        0.00000031        0.00000103        0.00000026
     110         -0.816356        1.000000        0.00000015        0.00000111        0.00000089        0.00000164
     111         -0.816228        1.000000        0.00000005        0.00000007        0.00000007        0.00000028
     112         -0.815692        1.000000        0.00000006        0.00000034        0.00000023        0.00000029
     113         -0.815450        1.000000        0.00000007        0.00000054        0.00000020        0.00000015
     114         -0.814934        1.000000        0.00000005        0.00000036        0.00000020        0.00000035
     115         -0.814247        1.000000        0.00000015        0.00000012        0.00000013        0.00000058
     116         -0.813429        1.000000        0.00000012        0.00000107        0.00000041        0.00000067
     117         -0.812921        1.000000        0.00000010        0.00000291        0.00000053        0.00000009
     118         -0.812523        1.000000        0.00000013        0.00000074        0.00000003        0.00000036
     119         -0.811921        1.000000        0.00000022        0.00000297        0.00000032        0.00000045
     120         -0.811500        1.000000        0.00000019        0.00000071        0.00000008        0.00000053
     121         -0.808618        1.000000        0.00000026        0.00000102        0.00000000        0.00000000
     122         -0.808547        1.000000        0.00000009        0.00000002        0.00000081        0.00000011
     123         -0.808270        1.000000        0.00000002        0.00000021        0.00000010        0.00000003
     124         -0.807451        1.000000        0.00000002        0.00000100        0.00000004        0.00000052
     125         -0.806040        1.000000        0.00000021        0.00000010        0.00000098        0.00000000
     126         -0.805334        1.000000        0.00000042        0.00000110        0.00000053        0.00000052
     127         -0.804378        1.000000        0.00000001        0.00000039        0.00000001        0.00000000
     128         -0.804263        1.000000        0.00000024        0.00000031        0.00000037        0.00000020
     129         -0.804136        1.000000        0.00000008        0.00000104        0.00000133        0.00000046
     130         -0.803831        1.000000        0.00000026        0.00000003        0.00000069        0.00000052
     131         -0.803375        1.000000        0.00000004        0.00000008        0.00000019        0.00000021
     132         -0.802027        1.000000        0.00000032        0.00000048        0.00000176        0.00000060
     133         -0.801940        1.000000        0.00000003        0.00000025        0.00000034        0.00000008
     134         -0.801444        1.000000        0.00000034        0.00000092        0.00000011        0.00000000
     135         -0.799343        1.000000        0.00000049        0.00000356        0.00000113        0.00000097
     136         -0.799335        1.000000        0.00000011        0.00000010        0.00000037        0.00000005
     137         -0.797767        1.000000        0.00000075        0.00000649        0.00000165        0.00000125
     138         -0.797738        1.000000        0.00000050        0.00000018        0.00000322        0.00000611
     139         -0.797073        1.000000        0.00000026        0.00000077        0.00000009        0.00000022
     140         -0.795527        1.000000        0.00000000        0.00000014        0.00000002        0.00000001
     141         -0.794944        1.000000        0.00000001        0.00000013        0.00000000        0.00000004
     142         -0.793289        1.000000        0.00000014        0.00000036        0.00000018        0.00000059
     143         -0.792003        1.000000        0.00000010        0.00000006        0.00000026        0.00000011
     144         -0.791448        1.000000        0.00000002        0.00000005        0.00000016        0.00000000
     145         -0.790953        1.000000        0.00000006        0.00000032        0.00000000        0.00000000
     146         -0.789151        1.000000        0.00000015        0.00000085        0.00000110        0.00000121
     147         -0.787669        1.000000        0.00000006        0.00000014        0.00000001        0.00000033
     148         -0.786306        1.000000        0.00000024        0.00000140        0.00000001        0.00000001
     149         -0.783938        1.000000        0.00000017        0.00000097        0.00000006        0.00000006
     150         -0.782903        1.000000        0.00000001        0.00000012        0.00000001        0.00000001
     151         -0.781410        1.000000        0.00000016        0.00000122        0.00000009        0.00000055
     152         -0.781047        1.000000        0.00000000        0.00000009        0.00000000        0.00000006
     153         -0.780473        1.000000        0.00001082        0.00005876        0.00000026        0.00000010
     154         -0.780080        1.000000        0.00000001        0.00000062        0.00000006        0.00000001
     155         -0.778400        1.000000        0.00000010        0.00000001        0.00000016        0.00000001
     156         -0.773165        1.000000        0.00000062        0.00000177        0.00000002        0.00000001
     157         -0.771844        1.000000        0.00000104        0.00000476        0.00000001        0.00000001
     158         -0.767360        1.000000        0.00000000        0.00000006        0.00000001        0.00000006
     159         -0.761980        1.000000        0.00000000        0.00000013        0.00000006        0.00000004
     160         -0.761660        1.000000        0.00000127        0.00000016        0.00000601        0.00000013
     161         -0.758879        1.000000        0.00000000        0.00000004        0.00000001        0.00000001
     162         -0.750501        1.000000        0.00000027        0.00000006        0.00000107        0.00000005
     163         -0.661063        1.000000        0.00000012        0.00000031        0.00000001        0.00000010
     164         -0.607626        1.000000        0.00006024        0.00004803        0.00007704        0.00002687
     165         -0.595322        1.000000        0.00009283        0.00006365        0.00006244        0.00001578
     166         -0.591292        1.000000        0.00004731        0.00003056        0.00004828        0.00001989
     167         -0.586577        1.000000        0.00013975        0.00010490        0.00007561        0.00004836
     168         -0.575148        1.000000        0.00007994        0.00004414        0.00002208        0.00001911
     169         -0.568206        1.000000        0.00001534        0.00001942        0.00000117        0.00000100
     170         -0.560162        1.000000        0.00010434        0.00008260        0.00006259        0.00001738
     171         -0.550385        1.000000        0.00136965        0.00048598        0.00003177        0.00100201
     172         -0.540373        1.000000        0.01295766        0.00872758        0.00014577        0.00001185
     173         -0.529022        1.000000        0.07865799        0.01013325        0.00443892        0.00957478
     174         -0.523440        1.000000        0.03225518        0.01472900        0.00081910        0.00019727
     175         -0.518560        1.000000        0.10751457        0.00687357        0.00366248        0.00085604
     176         -0.517997        1.000000        0.10727849        0.00530349        0.00078913        0.00042934
     177         -0.515411        1.000000        0.09560535        0.01083411        0.00384862        0.00100631
     178         -0.513321        1.000000        0.11983940        0.01618754        0.00172380        0.00129030
     179         -0.513164        1.000000        0.00134515        0.00011735        0.00005396        0.00021471
     180         -0.511887        1.000000        0.04308657        0.00938715        0.00477839        0.01636277
     181         -0.510691        1.000000        0.05127557        0.00893347        0.00319721        0.00202745
     182         -0.509863        1.000000        0.11901537        0.00798968        0.00327640        0.00091889
     183         -0.509286        1.000000        0.01031671        0.00942054        0.02010327        0.00301627
     184         -0.508762        1.000000        0.00391255        0.02558866        0.00765848        0.00075696
     185         -0.507772        1.000000        0.00733723        0.00737105        0.03126792        0.00533744
     186         -0.506671        1.000000        0.01439502        0.01400290        0.00468717        0.00063536
     187         -0.504393        1.000000        0.01239731        0.01190075        0.01187324        0.00121251
     188         -0.502385        1.000000        0.01532188        0.00500117        0.01413377        0.00450059
     189         -0.501599        1.000000        0.00397294        0.00458906        0.02347782        0.00498456
     190         -0.499425        1.000000        0.00374526        0.00165136        0.00259499        0.01966592
     191         -0.498209        1.000000        0.01313231        0.00413984        0.00942938        0.00814604
     192         -0.496676        1.000000        0.00658958        0.00512245        0.00582799        0.01301816
     193         -0.495974        1.000000        0.02866254        0.00118855        0.00583014        0.01437335
     194         -0.494637        1.000000        0.00276092        0.02439957        0.00466317        0.01305275
     195         -0.494189        1.000000        0.00068460        0.00196876        0.01037305        0.01619631
     196         -0.493803        1.000000        0.01580151        0.00192597        0.00119209        0.02197649
     197         -0.493401        1.000000        0.01043980        0.00194378        0.00250109        0.03084206
     198         -0.492992        1.000000        0.00331314        0.00337666        0.04344978        0.00214992
     199         -0.490848        1.000000        0.00598552        0.00419180        0.02135307        0.00108843
     200         -0.489688        1.000000        0.00652950        0.00011544        0.01559212        0.00738609
     201         -0.488375        1.000000        0.00194776        0.00424349        0.00688977        0.00898869
     202         -0.488300        1.000000        0.00185916        0.00574758        0.00480624        0.01391638
     203         -0.487637        1.000000        0.00221304        0.00166922        0.00341776        0.02858934
     204         -0.487228        1.000000        0.00926395        0.00247881        0.00040258        0.01229892
     205         -0.486486        1.000000        0.00233923        0.00367766        0.00059169        0.00355185
     206         -0.485446        1.000000        0.00279996        0.00082140        0.00196968        0.00804769
     207         -0.481146        1.000000        0.00291068        0.00261409        0.00062311        0.00877535
     208         -0.471875        1.000000        0.00095641        0.00062565        0.00132586        0.00013321
     209         -0.469955        1.000000        0.00256499        0.00127521        0.00058456        0.00025731
     210         -0.469868        1.000000        0.00000414        0.00000333        0.00000154        0.00000077
     211         -0.469101        1.000000        0.00135238        0.00078237        0.00177841        0.00028030
     212         -0.468182        1.000000        0.00094590        0.00194950        0.00109617        0.00011772
     213         -0.466638        1.000000        0.00400646        0.00101661        0.00199814        0.00011987
     214         -0.465776        1.000000        0.00511041        0.00010565        0.00197536        0.00200461
     215         -0.465127        1.000000        0.00712663        0.00004740        0.00396269        0.00018144
     216         -0.462041        1.000000        0.00010270        0.00000698        0.00001557        0.00000454
     217         -0.461746        1.000000        0.00198477        0.00020809        0.00293035        0.00064869
     218         -0.457962        1.000000        0.00213050        0.00011415        0.00028007        0.00066051
     219         -0.456491        1.000000        0.00596409        0.00069981        0.00415800        0.00005928
     220         -0.454820        1.000000        0.00113895        0.00002505        0.00005797        0.00014055
     221         -0.452857        1.000000        0.00011357        0.00026644        0.00018518        0.00000390
     222         -0.450497        1.000000        0.00000362        0.00001914        0.00000069        0.00000400
     223         -0.449436        1.000000        0.00000024        0.00000010        0.00000125        0.00000112
     224         -0.448248        1.000000        0.00003977        0.00000564        0.00000709        0.00001373
     225         -0.445673        1.000000        0.00101966        0.00001118        0.00014811        0.00000988
     226         -0.445551        1.000000        0.00009180        0.00000418        0.00001675        0.00003983
     227         -0.444337        1.000000        0.00428894        0.00025617        0.00046951        0.00018586
     228         -0.444232        1.000000        0.00347715        0.00134972        0.00004831        0.00002343
     229         -0.442564        1.000000        0.00001455        0.00000018        0.00000019        0.00000514
     230         -0.441321        1.000000        0.00413935        0.00001684        0.00000308        0.00124753
     231         -0.441180        1.000000        0.00083857        0.00010837        0.00018976        0.00021269
     232         -0.440685        1.000000        0.00062073        0.00003060        0.00004303        0.00004905
     233         -0.440190        1.000000        0.00053344        0.00019493        0.00001346        0.00003101
     234         -0.438756        1.000000        0.00060534        0.00025456        0.00000832        0.00000210
     235         -0.438567        1.000000        0.00025075        0.00003453        0.00000894        0.00001790
     236         -0.437274        1.000000        0.00010078        0.00002367        0.00003159        0.00001809
     237         -0.435957        1.000000        0.00026173        0.00000484        0.00002222        0.00000959
     238         -0.434534        1.000000        0.00412316        0.00004393        0.00000239        0.00067388
     239         -0.433545        1.000000        0.00036942        0.00001088        0.00000745        0.00000140
     240         -0.433074        1.000000        0.00058050        0.00002587        0.00000589        0.00001009
     241         -0.432849        1.000000        0.00054173        0.00003731        0.00000529        0.00010267
     242         -0.431815        1.000000        0.00051737        0.00000135        0.00000104        0.00004342
     243         -0.431458        1.000000        0.00072404        0.00001245        0.00000150        0.00007667
     244         -0.430946        1.000000        0.00000470        0.00000204        0.00000009        0.00000047
     245         -0.430909        1.000000        0.00011594        0.00002103        0.00000552        0.00000558
     246         -0.429968        1.000000        0.00016011        0.00000248        0.00001294        0.00000081
     247         -0.429481        1.000000        0.00015675        0.00006717        0.00013151        0.00000064
     248         -0.428686        1.000000        0.00075003        0.00000915        0.00005887        0.00003457
     249         -0.428501        1.000000        0.00003778        0.00000266        0.00000085        0.00002252
     250         -0.427999        1.000000        0.00167413        0.00030902        0.00000437        0.00000491
     251         -0.427607        1.000000        0.00223520        0.00002716        0.00027112        0.00008165
     252         -0.426991        1.000000        0.00004053        0.00000584        0.00006146        0.00006354
     253         -0.426958        1.000000        0.00003717        0.00000091        0.00000090        0.00000156
     254         -0.425964        1.000000        0.00042876        0.00000242        0.00000019        0.00000676
     255         -0.425514        1.000000        0.00006608        0.00001084        0.00000247        0.00000113
     256         -0.424985        1.000000        0.00111658        0.00001118        0.00008811        0.00004816
     257         -0.423357        1.000000        0.00050436        0.00004141        0.00000174        0.00000340
     258         -0.422942        1.000000        0.00005005        0.00002301        0.00002789        0.00000172
     259         -0.422641        1.000000        0.00160498        0.00006277        0.00000664        0.00001227