# Projected DOS for atomic kind O at iteration step i = 0, E(Fermi) =    -0.093001 a.u.
#     MO Eigenvalue [a.u.]      Occupation                 s                py                pz                px
       1         -0.913920        1.000000        0.71522452        0.00129941        0.00754215        0.02404657
       2         -0.912937        1.000000        0.71416933        0.01282148        0.01600297        0.00250399
       3         -0.906354        1.000000        0.71412537        0.00676358        0.01025338        0.01472586
       4         -0.899839        1.000000        0.71196672        0.01707037        0.00977073        0.00361828
       5         -0.894573        1.000000        0.71394637        0.01230399        0.00122466        0.01358403
       6         -0.888065        1.000000        0.72042422        0.00498952        0.00802030        0.01888683
       7         -0.882641        1.000000        0.70452921        0.00148975        0.03620836        0.00056242
       8         -0.882204        1.000000        0.70606941        0.00739693        0.00157198        0.02509439
       9         -0.879642        1.000000        0.70845122        0.00532244        0.00313924        0.02797597
      10         -0.876342        1.000000        0.71137403        0.00174839        0.02203961        0.00259475
      11         -0.873889        1.000000        0.71037041        0.00594271        0.00769123        0.01675573
      12         -0.873223        1.000000        0.70158024        0.00258729        0.00973147        0.01027587
      13         -0.870872        1.000000        0.70446724        0.01085423        0.00622343        0.00358203
      14         -0.870715        1.000000        0.75521939        0.00572641        0.01863492        0.03112822
      15         -0.870364        1.000000        0.70462194        0.00426221        0.00533767        0.00499147
      16         -0.870039        1.000000        0.70227575        0.00629098        0.02103517        0.00747541
      17         -0.869331        1.000000        0.71050421        0.01129398        0.00346583        0.00373160
      18         -0.868456        1.000000        0.70546788        0.00728555        0.01922096        0.00914259
      19         -0.867215        1.000000        0.71331586        0.00903558        0.00912747        0.00610206
      20         -0.865715        1.000000        0.70667253        0.00428582        0.00384679        0.01733769
      21         -0.865244        1.000000        0.69525477        0.00639896        0.00759528        0.00677642
      22         -0.864761        1.000000        0.70465363        0.00470084        0.00232202        0.02692702
      23         -0.864535        1.000000        0.71025324        0.01942687        0.00328168        0.00333356
      24         -0.862972        1.000000        0.70744725        0.00607980        0.00511124        0.00924481
      25         -0.862864        1.000000        0.69701959        0.01814236        0.00444257        0.00308635
      26         -0.861521        1.000000        0.70912657        0.00597200        0.00478622        0.00859258
      27         -0.861190        1.000000        0.70214250        0.01086279        0.00950905        0.00853944
      28         -0.861121        1.000000        0.61235117        0.00571593        0.00396840        0.00795314
      29         -0.860242        1.000000        0.10823980        0.00132206        0.00069972        0.00102400
      30         -0.859496        1.000000        0.69791978        0.01050947        0.00713057        0.00727658
      31         -0.857782        1.000000        0.69668021        0.00619427        0.00418051        0.00794868
      32         -0.857441        1.000000        0.71860175        0.01067003        0.00990939        0.00673052
      33         -0.856997        1.000000        0.71364259        0.01864693        0.01066816        0.00483947
      34         -0.856634        1.000000        0.70995633        0.01192719        0.00714414        0.01317958
      35         -0.855012        1.000000        0.71455432        0.01219400        0.00598734        0.00935926
      36         -0.854164        1.000000        0.70614249        0.00915191        0.00772388        0.00844833
      37         -0.853558        1.000000        0.71419089        0.01247825        0.00713317        0.00866441
      38         -0.852397        1.000000        0.73442653        0.00859137        0.00883459        0.01861986
      39         -0.851837        1.000000        0.70767551        0.00798651        0.01472458        0.00794186
      40         -0.851654        1.000000        0.71083792        0.00987284        0.01392687        0.00789481
      41         -0.850905        1.000000        0.71009618        0.01095979        0.00741225        0.00964490
      42         -0.850357        1.000000        0.00832027        0.00009691        0.00016642        0.00010113
      43         -0.850075        1.000000        0.70311666        0.00998988        0.00634921        0.00626170
      44         -0.849398        1.000000        0.70662661        0.01164676        0.00867235        0.00959079
      45         -0.849384        1.000000        0.70931363        0.01005074        0.00529758        0.00605538
      46         -0.849143        1.000000        0.70853977        0.00892422        0.01437169        0.00875148
      47         -0.848424        1.000000        0.71128918        0.01177321        0.00530015        0.00625913
      48         -0.848094        1.000000        0.71606309        0.00097371        0.03836946        0.00149742
      49         -0.847867        1.000000        0.72149657        0.01048973        0.00742602        0.00725879
      50         -0.846383        1.000000        0.00259815        0.00003686        0.00003275        0.00001137
      51         -0.845722        1.000000        0.68248781        0.01119882        0.00605397        0.00765637
      52         -0.845604        1.000000        0.70925530        0.01130771        0.00622024        0.00940286
      53         -0.845289        1.000000        0.71935236        0.00742028        0.01090465        0.00888995
      54         -0.845218        1.000000        0.00012217        0.00000210        0.00000115        0.00000135
      55         -0.845202        1.000000        0.71024412        0.01249695        0.00664422        0.00762237
      56         -0.843709        1.000000        0.73213569        0.01314485        0.00915636        0.00536231
      57         -0.843549        1.000000        0.71613685        0.01256667        0.00621847        0.00689660
      58         -0.842608        1.000000        0.71348366        0.01270791        0.00547074        0.00720373
      59         -0.841989        1.000000        0.70840201        0.00977296        0.00773219        0.00676225
      60         -0.841880        1.000000        0.70777548        0.00286801        0.00368149        0.01090800
      61         -0.840967        1.000000        0.70689649        0.01087955        0.00767842        0.00526459
      62         -0.840544        1.000000        0.70906375        0.02358385        0.00664511        0.00906754
      63         -0.840259        1.000000        0.72337745        0.01241099        0.00572124        0.00881236
      64         -0.839999        1.000000        0.73028456        0.01343208        0.00648911        0.01165349
      65         -0.839328        1.000000        0.72239653        0.01357416        0.00907368        0.01008195
      66         -0.839108        1.000000        0.73039770        0.01239925        0.00861881        0.00913055
      67         -0.838891        1.000000        0.71340532        0.00980512        0.00833897        0.00591021
      68         -0.838537        1.000000        0.72281157        0.01159419        0.00849659        0.00829529
      69         -0.838300        1.000000        0.71626441        0.00568481        0.01418542        0.01222423
      70         -0.837869        1.000000        0.72821199        0.01094913        0.01079343        0.00803093
      71         -0.837744        1.000000        0.72455007        0.01047722        0.00905677        0.00916424
      72         -0.836629        1.000000        0.72297128        0.00787352        0.01066637        0.01003136
      73         -0.835757        1.000000        0.73386495        0.01379016        0.00807003        0.01180023
      74         -0.835591        1.000000        0.70338910        0.01328906        0.00969594        0.00908742
      75         -0.835553        1.000000        0.72184768        0.01899645        0.00773353        0.00458851
      76         -0.835335        1.000000        0.71915721        0.01293482        0.00615658        0.00792956
      77         -0.834953        1.000000        0.71540485        0.01638145        0.00935104        0.00675674
      78         -0.834617        1.000000        0.73405071        0.01068715        0.00942188        0.01303225
      79         -0.833659        1.000000        0.73503981        0.01455402        0.00726610        0.01085849
      80         -0.833468        1.000000        0.72391419        0.01793535        0.00557323        0.01078543
      81         -0.833117        1.000000        0.72235461        0.01127627        0.01384636        0.00995093
      82         -0.831905        1.000000        0.71983331        0.00829037        0.00927978        0.00823390
      83         -0.830432        1.000000        0.71908538        0.01308427        0.00919508        0.00676496
      84         -0.830300        1.000000        0.72265850        0.01144962        0.01545739        0.00672967
      85         -0.830195        1.000000        0.72282885        0.01598591        0.00965237        0.00859999
      86         -0.830114        1.000000        0.72395876        0.01434588        0.01043991        0.00870347
      87         -0.829121        1.000000        0.72315008        0.01271028        0.00947343        0.00804128
      88         -0.828375        1.000000        0.72942529        0.00442751        0.01371013        0.01441689
      89         -0.827521        1.000000        0.70388350        0.01161462        0.00560616        0.00550003
      90         -0.826665        1.000000        0.73411385        0.01460215        0.00990337        0.00990746
      91         -0.826251        1.000000        0.73468811        0.01289001        0.00993586        0.01061255
      92         -0.825381        1.000000        0.70719504        0.00957415        0.00906023        0.00559091
      93         -0.824818        1.000000        0.73559633        0.01404592        0.00696184        0.00924437
      94         -0.824349        1.000000        0.73943773        0.01490688        0.00886124        0.00907455
      95         -0.824217        1.000000        0.73710787        0.01313448        0.00987324        0.00935691
      96         -0.823211        1.000000        0.74259927        0.01103625        0.00882445        0.01133701
      97         -0.822903        1.000000        0.75053174        0.01129255        0.00794631        0.01393235
      98         -0.822614        1.000000        0.70172924        0.01357174        0.00889019        0.01336749
      99         -0.822359        1.000000        0.70946042        0.01466401        0.00804768        0.01345838
     100         -0.822116        1.000000        0.72132228        0.01393419        0.00441195        0.01315593
     101         -0.821937        1.000000        0.71494863        0.01376365        0.00686091        0.01090074
     102         -0.821375        1.000000        0.37072328        0.00627871        0.00516790        0.00783522
     103         -0.820032        1.000000        0.75181154        0.01655021        0.00929657        0.00718645
     104         -0.818811        1.000000        0.74190885        0.01479599        0.00743980        0.01006966
     105         -0.818699        1.000000        0.73423406        0.02028777        0.01171416        0.00546352
     106         -0.818618        1.000000        0.72247776        0.02325804        0.01260492        0.00396655
     107         -0.818226        1.000000        0.73124555        0.01473229        0.01525106        0.00695105
     108         -0.817284        1.000000        0.73765588        0.01878541        0.00874312        0.00359112
     109         -0.816794        1.000000        0.73842553        0.01349925        0.01291528        0.00872971
     110         -0.816413        1.000000        0.75216687        0.01821626        0.00781431        0.01005731
     111         -0.816129        1.000000        0.69053561        0.00935874        0.00942463        0.01183978
     112         -0.815668        1.000000        0.72291208        0.00984725        0.00832456        0.00878367
     113         -0.815276        1.000000        0.72897201        0.00862264        0.01008428        0.01002061
     114         -0.814699        1.000000        0.73385028        0.02259139        0.00655641        0.00666295
     115         -0.814648        1.000000        0.71047554        0.01089400        0.00726799        0.00884483
     116         -0.813424        1.000000        0.75022509        0.01466948        0.00749082        0.01109712
     117         -0.812899        1.000000        0.75509647        0.01079914        0.00602740        0.01543514
     118         -0.812063        1.000000        0.75714908        0.01605795        0.01046932        0.00911902
     119         -0.811902        1.000000        0.72205067        0.00725972        0.00696240        0.00955612
     120         -0.810957        1.000000        0.71429527        0.01595613        0.00390143        0.00338815
     121         -0.808700        1.000000        0.69624615        0.03103106        0.00779706        0.01020252
     122         -0.808533        1.000000        0.76742609        0.02098804        0.01027004        0.00638930
     123         -0.808144        1.000000        0.72706597        0.01452554        0.01289823        0.00497423
     124         -0.806464        1.000000        0.72987177        0.01301002        0.01619090        0.00451221
     125         -0.805903        1.000000        0.73559887        0.01360457        0.00761513        0.00733714
     126         -0.805436        1.000000        0.74370796        0.01500795        0.00763128        0.00921410
     127         -0.804340        1.000000        0.75215201        0.00779798        0.00884190        0.01842496
     128         -0.804080        1.000000        0.57199294        0.01196377        0.00631325        0.00551972
     129         -0.803926        1.000000        0.77606062        0.00955580        0.01329073        0.01469377
     130         -0.803392        1.000000        0.68665838        0.01091356        0.00776063        0.00547627
     131         -0.802191        1.000000        0.67066981        0.01810852        0.00845618        0.00651419
     132         -0.801942        1.000000        0.70526226        0.01374188        0.00640713        0.00898050
     133         -0.801616        1.000000        0.75413827        0.01701505        0.01206815        0.01156779
     134         -0.799726        1.000000        0.75313200        0.01838735        0.00829711        0.00700131
     135         -0.798944        1.000000        0.74000819        0.01373604        0.00742330        0.00572850
     136         -0.798299        1.000000        0.75277714        0.01514142        0.01320444        0.01050714
     137         -0.797770        1.000000        0.69557408        0.02875437        0.00569300        0.01349817
     138         -0.797273        1.000000        0.72771372        0.01726194        0.00977167        0.01005371
     139         -0.795850        1.000000        0.73272771        0.01952220        0.00819448        0.00977248
     140         -0.795468        1.000000        0.73358485        0.00926779        0.00579807        0.00732270
     141         -0.794933        1.000000        0.76965575        0.01033841        0.00779288        0.01664549
     142         -0.794852        1.000000        0.74568570        0.01962427        0.00492113        0.01962350
     143         -0.791674        1.000000        0.77129989        0.01861121        0.00376040        0.01417186
     144         -0.791049        1.000000        0.74000122        0.01110831        0.00894369        0.00844660
     145         -0.790952        1.000000        0.77341966        0.01707880        0.01380343        0.01090140
     146         -0.789161        1.000000        0.16104722        0.00730761        0.00427922        0.00179508
     147         -0.787886        1.000000        0.81287517        0.01963600        0.00790815        0.00578761
     148         -0.786941        1.000000        0.76183116        0.01782748        0.00420853        0.01140057
     149         -0.785966        1.000000        0.73815422        0.01499815        0.01574287        0.00531381
     150         -0.783666        1.000000        0.42431125        0.01538776        0.00482631        0.00161940
     151         -0.782894        1.000000        0.78328429        0.01485239        0.01101502        0.00877653
     152         -0.782250        1.000000        0.79069902        0.02049018        0.01142070        0.00905816
     153         -0.781321        1.000000        0.77796914        0.00422707        0.00619672        0.02590567
     154         -0.780573        1.000000        0.71610389        0.01403519        0.02023410        0.00780529
     155         -0.780245        1.000000        0.75551323        0.02068620        0.00645662        0.00867419
     156         -0.778202        1.000000        0.74513826        0.01364220        0.00951405        0.01155377
     157         -0.767272        1.000000        0.77308242        0.01542933        0.01221672        0.00680204
     158         -0.765479        1.000000        0.77771182        0.01151242        0.01338868        0.00975478
     159         -0.765248        1.000000        0.78070404        0.00953449        0.01440116        0.01020228
     160         -0.761964        1.000000        0.78145204        0.01115189        0.01175029        0.00819828
     161         -0.750779        1.000000        0.79082579        0.00780671        0.00934573        0.01804399
     162         -0.731156        1.000000        0.77641847        0.00297406        0.00498615        0.03794985
     163         -0.632581        1.000000        0.88320498        0.01086640        0.02261354        0.04742410
     164         -0.607623        1.000000        0.00011014        0.00020415        0.00004562        0.00001992
     165         -0.595314        1.000000        0.00029003        0.00023518        0.00046202        0.00015411
     166         -0.591295        1.000000        0.00008228        0.00009730        0.00039526        0.00044970
     167         -0.586576        1.000000        0.00000037        0.00000050        0.00000055        0.00000115
     168         -0.575150        1.000000        0.00031822        0.00051614        0.00062858        0.00040995
     169         -0.568166        1.000000        0.00034196        0.00198990        0.00035205        0.00003667
     170         -0.560179        1.000000        0.00049299        0.00166562        0.00196870        0.00078327
     171         -0.550452        1.000000        0.00426262        0.01272198        0.00150805        0.00692808
     172         -0.543606        1.000000        0.00826529        0.01009022        0.01656813        0.00157939
     173         -0.527255        1.000000        0.00089939        0.00902460        0.00368542        0.00087206
     174         -0.522775        1.000000        0.00141737        0.01795592        0.00683469        0.00148148
     175         -0.519360        1.000000        0.00041129        0.00092240        0.00034997        0.00158731
     176         -0.516082        1.000000        0.00056307        0.00150284        0.00106356        0.00157816
     177         -0.515111        1.000000        0.00095955        0.00282532        0.00219669        0.00392904
     178         -0.513733        1.000000        0.00066169        0.00142547        0.00123140        0.00179289
     179         -0.513157        1.000000        0.00409719        0.01655574        0.05966683        0.06440447
     180         -0.511418        1.000000        0.00057059        0.00513704        0.00127240        0.00163237
     181         -0.511167        1.000000        0.00081384        0.00387081        0.00260111        0.00478204
     182         -0.510352        1.000000        0.00192427        0.01969475        0.00968254        0.00980828
     183         -0.509613        1.000000        0.00047213        0.00401466        0.00087459        0.00170876
     184         -0.508087        1.000000        0.00098100        0.01021759        0.00470766        0.00447363
     185         -0.504074        1.000000        0.00115986        0.00665942        0.00458773        0.00584192
     186         -0.503813        1.000000        0.00067633        0.00189872        0.00068457        0.00184971
     187         -0.502556        1.000000        0.00091750        0.00837543        0.00216094        0.00282256
     188         -0.502142        1.000000        0.00094983        0.00378653        0.00210874        0.00449765
     189         -0.500643        1.000000        0.00068083        0.00395162        0.00152493        0.00204203
     190         -0.500015        1.000000        0.00084362        0.00279523        0.00231510        0.00248516
     191         -0.498633        1.000000        0.00108088        0.00476415        0.00241116        0.00675257
     192         -0.497808        1.000000        0.00072430        0.00220690        0.00209350        0.00234453
     193         -0.496931        1.000000        0.00058624        0.00165330        0.00112907        0.00209745
     194         -0.496382        1.000000        0.00055087        0.00209773        0.00110647        0.00293643
     195         -0.495650        1.000000        0.00141853        0.00728744        0.00261769        0.00137030
     196         -0.495531        1.000000        0.00091725        0.00359757        0.00162450        0.00138569
     197         -0.494349        1.000000        0.00092549        0.00269540        0.00141077        0.00632270
     198         -0.494013        1.000000        0.00121689        0.00278411        0.00235920        0.00701488
     199         -0.493661        1.000000        0.00091351        0.00177134        0.00232765        0.00271446
     200         -0.490405        1.000000        0.00068348        0.00263678        0.00099960        0.00133059
     201         -0.490171        1.000000        0.00064603        0.00179883        0.00135184        0.00230677
     202         -0.489395        1.000000        0.00106150        0.01613126        0.00264512        0.00435672
     203         -0.489221        1.000000        0.00094383        0.02031357        0.00207605        0.00413427
     204         -0.487779        1.000000        0.00043293        0.01708081        0.00597271        0.00290860
     205         -0.486425        1.000000        0.00027917        0.04020960        0.01319063        0.00338283
     206         -0.485515        1.000000        0.00096118        0.00717514        0.00123087        0.00249583
     207         -0.483949        1.000000        0.00045684        0.00103694        0.00099718        0.00120549
     208         -0.471877        1.000000        0.00115500        0.14576715        0.06449516        0.01324761
     209         -0.469983        1.000000        0.00172013        0.15402306        0.09995881        0.02292050
     210         -0.469866        1.000000        0.00097619        0.10734456        0.13511414        0.38341575
     211         -0.469192        1.000000        0.00079738        0.06248910        0.03952556        0.00916830
     212         -0.468173        1.000000        0.00323712        0.35694061        0.06344548        0.01047322
     213         -0.466701        1.000000        0.00035537        0.03036771        0.00521485        0.00258594
     214         -0.465267        1.000000        0.00004603        0.00099030        0.00031122        0.00033442
     215         -0.465172        1.000000        0.00008473        0.00135102        0.00069625        0.00110729
     216         -0.462041        1.000000        0.00339368        0.15530776        0.32847275        0.14678869
     217         -0.461817        1.000000        0.00005960        0.00276826        0.00308608        0.00164651
     218         -0.457952        1.000000        0.00237415        0.42331743        0.09902654        0.07801959
     219         -0.456519        1.000000        0.00012848        0.00639557        0.00145772        0.00189768
     220         -0.454816        1.000000        0.00369760        0.26816313        0.16170844        0.14066206
     221         -0.452999        1.000000        0.00019355        0.02163845        0.00723181        0.00908475
     222         -0.450461        1.000000        0.00329793        0.40057975        0.21917802        0.04022365
     223         -0.449468        1.000000        0.00109412        0.36618868        0.09272208        0.19800720
     224         -0.448244        1.000000        0.00253727        0.12440320        0.49070479        0.03038007
     225         -0.445799        1.000000        0.00056229        0.08904958        0.05215722        0.03731066
     226         -0.445556        1.000000        0.00253213        0.27491392        0.16485403        0.19516087
     227         -0.444334        1.000000        0.00123585        0.26843803        0.15584194        0.17672923
     228         -0.444152        1.000000        0.00160276        0.17035127        0.22205939        0.21517180
     229         -0.442582        1.000000        0.00264597        0.55762465        0.03089893        0.06595823
     230         -0.441328        1.000000        0.00109486        0.06559882        0.01335411        0.53399584
     231         -0.441179        1.000000        0.00273383        0.43305471        0.10226460        0.11202740
     232         -0.440683        1.000000        0.00263581        0.27802571        0.12245368        0.23839340
     233         -0.440185        1.000000        0.00102105        0.08820481        0.08419090        0.45604914
     234         -0.438756        1.000000        0.00075661        0.14476606        0.15055505        0.33612932
     235         -0.438564        1.000000        0.00174892        0.19905110        0.18329348        0.26649169
     236         -0.437271        1.000000        0.00192455        0.34699812        0.11900586        0.12822669
     237         -0.435959        1.000000        0.00457889        0.12821024        0.25354891        0.24655366
     238         -0.434529        1.000000        0.00252274        0.51205963        0.02779658        0.08613580
     239         -0.433545        1.000000        0.00250766        0.12072496        0.32447569        0.20506547
     240         -0.433074        1.000000        0.00347159        0.33295478        0.17880736        0.13017556
     241         -0.432837        1.000000        0.00024934        0.01708553        0.01511969        0.00599902
     242         -0.431823        1.000000        0.00160837        0.13486279        0.16102229        0.13242610
     243         -0.431471        1.000000        0.00114510        0.08640037        0.13713699        0.10234325
     244         -0.430913        1.000000        0.00400735        0.04796261        0.23994935        0.35739148
     245         -0.430774        1.000000        0.00147105        0.45708045        0.10779910        0.08348229
     246         -0.429968        1.000000        0.00333073        0.05030119        0.26209696        0.32915830
     247         -0.429478        1.000000        0.00413237        0.01075768        0.09045976        0.54385532
     248         -0.428684        1.000000        0.00405134        0.15870425        0.20963189        0.26640784
     249         -0.428226        1.000000        0.00261490        0.17842758        0.25708859        0.20326394
     250         -0.427981        1.000000        0.00161434        0.10791790        0.34057230        0.19189896
     251         -0.427617        1.000000        0.00060747        0.17316805        0.05151637        0.40638534
     252         -0.426983        1.000000        0.00195229        0.08362001        0.31485437        0.24905478
     253         -0.426975        1.000000        0.00364560        0.11701964        0.17194284        0.35812687
     254         -0.425958        1.000000        0.00395664        0.54416304        0.05268958        0.05056820
     255         -0.425514        1.000000        0.00178124        0.05155631        0.11475630        0.47494266
     256         -0.424988        1.000000        0.00438164        0.29125385        0.14231993        0.21603069
     257         -0.422951        1.000000        0.00125484        0.30009323        0.16008731        0.19589468
     258         -0.422638        1.000000        0.00316060        0.09668648        0.34463219        0.20010344
     259         -0.422444        1.000000        0.00275112        0.19207692        0.20163175        0.24210186