# Projected DOS for atomic kind C at iteration step i = 0, E(Fermi) =    -0.093001 a.u.
#     MO Eigenvalue [a.u.]      Occupation                 s                py                pz                px
       1         -0.913920        1.000000        0.00000000        0.00000000        0.00000000        0.00000000
       2         -0.912937        1.000000        0.00000000        0.00000000        0.00000000        0.00000000
       3         -0.906354        1.000000        0.00000001        0.00000000        0.00000001        0.00000001
       4         -0.899839        1.000000        0.00000000        0.00000000        0.00000000        0.00000000
       5         -0.894573        1.000000        0.00000000        0.00000000        0.00000000        0.00000000
       6         -0.888065        1.000000        0.00000000        0.00000000        0.00000000        0.00000000
       7         -0.882641        1.000000        0.00000003        0.00000000        0.00000001        0.00000004
       8         -0.882204        1.000000        0.00001835        0.00000339        0.00000155        0.00001326
       9         -0.879642        1.000000        0.00000032        0.00000011        0.00000037        0.00000001
      10         -0.876342        1.000000        0.00000617        0.00000069        0.00000667        0.00000189
      11         -0.873889        1.000000        0.00000000        0.00000000        0.00000000        0.00000000
      12         -0.873223        1.000000        0.00009069        0.00000012        0.00000283        0.00007267
      13         -0.870872        1.000000        0.00000488        0.00000079        0.00000164        0.00000268
      14         -0.870715        1.000000        0.00000109        0.00000021        0.00000127        0.00000138
      15         -0.870364        1.000000        0.00000002        0.00000000        0.00000006        0.00000002
      16         -0.870039        1.000000        0.00001432        0.00000002        0.00000044        0.00001098
      17         -0.869331        1.000000        0.00000006        0.00000002        0.00000003        0.00000002
      18         -0.868456        1.000000        0.00001081        0.00000003        0.00000033        0.00000808
      19         -0.867215        1.000000        0.00000173        0.00000033        0.00000059        0.00000073
      20         -0.865715        1.000000        0.00001157        0.00000012        0.00001049        0.00001583
      21         -0.865244        1.000000        0.00003449        0.00000050        0.00000162        0.00002552
      22         -0.864761        1.000000        0.00000544        0.00000025        0.00000505        0.00000597
      23         -0.864535        1.000000        0.00000010        0.00000001        0.00000000        0.00000016
      24         -0.862972        1.000000        0.00001294        0.00000010        0.00001928        0.00000682
      25         -0.862864        1.000000        0.00015956        0.00001480        0.00003514        0.00009146
      26         -0.861521        1.000000        0.00000064        0.00000000        0.00000005        0.00000044
      27         -0.861190        1.000000        0.00026633        0.00000015        0.00000778        0.00018309
      28         -0.861121        1.000000        0.00796221        0.00000304        0.00023248        0.00547262
      29         -0.860242        1.000000        0.05283498        0.00000802        0.00154275        0.03599544
      30         -0.859496        1.000000        0.00007271        0.00000331        0.00000017        0.00007076
      31         -0.857782        1.000000        0.00080028        0.00000026        0.00002489        0.00053376
      32         -0.857441        1.000000        0.00000603        0.00000029        0.00000410        0.00000529
      33         -0.856997        1.000000        0.00000060        0.00000007        0.00000013        0.00000013
      34         -0.856634        1.000000        0.00000011        0.00000001        0.00000010        0.00000011
      35         -0.855012        1.000000        0.00004029        0.00000519        0.00001095        0.00001808
      36         -0.854164        1.000000        0.00023716        0.00000221        0.00001078        0.00015795
      37         -0.853558        1.000000        0.00012184        0.00001508        0.00003280        0.00005778
      38         -0.852397        1.000000        0.00003376        0.00000034        0.00000457        0.00001483
      39         -0.851837        1.000000        0.00033086        0.00000824        0.00005672        0.00013582
      40         -0.851654        1.000000        0.00001215        0.00000200        0.00000393        0.00000560
      41         -0.850905        1.000000        0.00021058        0.00000592        0.00004185        0.00010173
      42         -0.850357        1.000000        0.06084905        0.00015852        0.01657752        0.02708845
      43         -0.850075        1.000000        0.00029272        0.00002385        0.00001939        0.00023505
      44         -0.849398        1.000000        0.00004498        0.00000141        0.00000576        0.00001613
      45         -0.849384        1.000000        0.00016458        0.00001632        0.00000638        0.00013591
      46         -0.849143        1.000000        0.00000035        0.00000000        0.00000012        0.00000018
      47         -0.848424        1.000000        0.00003426        0.00000552        0.00000166        0.00002793
      48         -0.848094        1.000000        0.00000047        0.00000001        0.00000025        0.00000023
      49         -0.847867        1.000000        0.00004390        0.00000512        0.00000883        0.00002303
      50         -0.846383        1.000000        0.06104566        0.00000667        0.00729206        0.03646324
      51         -0.845722        1.000000        0.00257094        0.00026684        0.00060324        0.00122665
      52         -0.845604        1.000000        0.00049266        0.00005193        0.00011119        0.00023568
      53         -0.845289        1.000000        0.00005528        0.00000041        0.00004723        0.00005207
      54         -0.845218        1.000000        0.05974636        0.00079741        0.01794707        0.02533616
      55         -0.845202        1.000000        0.00047436        0.00004852        0.00010855        0.00023187
      56         -0.843709        1.000000        0.00006453        0.00000121        0.00010465        0.00033655
      57         -0.843549        1.000000        0.00000206        0.00000023        0.00000030        0.00000067
      58         -0.842608        1.000000        0.00007792        0.00000739        0.00000925        0.00004905
      59         -0.841989        1.000000        0.00001739        0.00000324        0.00005096        0.00001258
      60         -0.841880        1.000000        0.00000313        0.00000048        0.00000452        0.00000682
      61         -0.840967        1.000000        0.00002176        0.00000931        0.00008348        0.00001991
      62         -0.840544        1.000000        0.00004430        0.00000403        0.00000906        0.00002287
      63         -0.840259        1.000000        0.00007658        0.00000699        0.00000434        0.00005623
      64         -0.839999        1.000000        0.00000170        0.00000062        0.00000088        0.00000158
      65         -0.839328        1.000000        0.00000072        0.00000004        0.00000099        0.00000044
      66         -0.839108        1.000000        0.00001499        0.00000108        0.00000224        0.00000979
      67         -0.838891        1.000000        0.00000178        0.00000221        0.00000021        0.00000193
      68         -0.838537        1.000000        0.00004190        0.00000312        0.00000939        0.00002108
      69         -0.838300        1.000000        0.00000554        0.00000162        0.00000446        0.00000246
      70         -0.837869        1.000000        0.00008748        0.00000728        0.00002291        0.00004206
      71         -0.837744        1.000000        0.00012576        0.00001042        0.00003531        0.00005883
      72         -0.836629        1.000000        0.00001767        0.00000141        0.00002246        0.00001302
      73         -0.835757        1.000000        0.00004338        0.00000477        0.00001704        0.00002662
      74         -0.835591        1.000000        0.00190734        0.00014436        0.00041078        0.00088236
      75         -0.835553        1.000000        0.00019766        0.00001466        0.00003835        0.00009832
      76         -0.835335        1.000000        0.00034582        0.00002580        0.00005365        0.00019288
      77         -0.834953        1.000000        0.00010860        0.00000770        0.00002402        0.00005138
      78         -0.834617        1.000000        0.00000435        0.00000655        0.00000048        0.00000547
      79         -0.833659        1.000000        0.00009108        0.00000608        0.00000778        0.00005886
      80         -0.833468        1.000000        0.00055795        0.00003751        0.00001661        0.00040056
      81         -0.833117        1.000000        0.00000153        0.00000055        0.00000007        0.00000164
      82         -0.831905        1.000000        0.00000155        0.00000030        0.00000114        0.00000197
      83         -0.830432        1.000000        0.00118069        0.00010691        0.00017780        0.00057316
      84         -0.830300        1.000000        0.00000154        0.00000007        0.00000036        0.00000116
      85         -0.830195        1.000000        0.00021068        0.00002050        0.00002483        0.00010920
      86         -0.830114        1.000000        0.00009134        0.00000073        0.00001869        0.00006134
      87         -0.829121        1.000000        0.00070176        0.00007376        0.00009288        0.00033534
      88         -0.828375        1.000000        0.00001911        0.00000146        0.00000206        0.00001060
      89         -0.827521        1.000000        0.00108929        0.00000260        0.00009948        0.00073372
      90         -0.826665        1.000000        0.00010942        0.00002249        0.00000452        0.00005440
      91         -0.826251        1.000000        0.00000274        0.00000065        0.00000376        0.00000170
      92         -0.825381        1.000000        0.00111905        0.00000193        0.00011200        0.00072866
      93         -0.824818        1.000000        0.00010609        0.00000701        0.00001867        0.00004906
      94         -0.824349        1.000000        0.00003270        0.00000288        0.00000507        0.00001592
      95         -0.824217        1.000000        0.00003186        0.00000289        0.00000471        0.00001493
      96         -0.823211        1.000000        0.00006973        0.00000205        0.00002210        0.00005592
      97         -0.822903        1.000000        0.00058154        0.00005099        0.00007401        0.00026982
      98         -0.822614        1.000000        0.00429716        0.00037179        0.00050529        0.00206343
      99         -0.822359        1.000000        0.00330307        0.00029042        0.00031127        0.00171390
     100         -0.822116        1.000000        0.00113394        0.00010830        0.00014810        0.00053273
     101         -0.821937        1.000000        0.00252018        0.00021380        0.00034362        0.00114494
     102         -0.821375        1.000000        0.03495412        0.00288300        0.00461326        0.01588462
     103         -0.820032        1.000000        0.00000089        0.00000055        0.00000117        0.00000054
     104         -0.818811        1.000000        0.00089710        0.00007391        0.00002668        0.00055345
     105         -0.818699        1.000000        0.00007251        0.00000412        0.00001805        0.00005340
     106         -0.818618        1.000000        0.00004929        0.00000973        0.00001730        0.00006435
     107         -0.818226        1.000000        0.00000267        0.00000043        0.00000027        0.00000313
     108         -0.817284        1.000000        0.00006454        0.00000852        0.00000107        0.00004225
     109         -0.816794        1.000000        0.00005685        0.00000418        0.00002650        0.00003048
     110         -0.816413        1.000000        0.00001622        0.00000124        0.00000206        0.00000789
     111         -0.816129        1.000000        0.00442975        0.00035739        0.00000306        0.00286005
     112         -0.815668        1.000000        0.00001029        0.00000090        0.00000243        0.00000911
     113         -0.815276        1.000000        0.00000633        0.00000100        0.00000150        0.00000846
     114         -0.814699        1.000000        0.00010177        0.00000533        0.00000421        0.00006243
     115         -0.814648        1.000000        0.00231809        0.00018901        0.00000255        0.00147359
     116         -0.813424        1.000000        0.00032469        0.00000069        0.00006401        0.00017047
     117         -0.812899        1.000000        0.00003799        0.00000278        0.00000359        0.00001874
     118         -0.812063        1.000000        0.00002853        0.00000166        0.00000279        0.00001217
     119         -0.811902        1.000000        0.00145270        0.00000011        0.00010709        0.00086520
     120         -0.810957        1.000000        0.00009262        0.00000068        0.00000603        0.00005471
     121         -0.808700        1.000000        0.00001040        0.00000378        0.00000231        0.00000089
     122         -0.808533        1.000000        0.00000217        0.00000061        0.00000263        0.00000655
     123         -0.808144        1.000000        0.00200134        0.00013590        0.00015633        0.00096490
     124         -0.806464        1.000000        0.00221893        0.00013646        0.00021953        0.00097962
     125         -0.805903        1.000000        0.00044391        0.00000026        0.00003824        0.00024732
     126         -0.805436        1.000000        0.00147058        0.00010631        0.00007324        0.00076431
     127         -0.804340        1.000000        0.00000178        0.00000004        0.00000037        0.00000174
     128         -0.804080        1.000000        0.01791942        0.00000279        0.00120576        0.01001660
     129         -0.803926        1.000000        0.00020874        0.00001427        0.00001061        0.00010584
     130         -0.803392        1.000000        0.00517119        0.00000088        0.00032592        0.00289809
     131         -0.802191        1.000000        0.01077846        0.00060212        0.00109571        0.00453129
     132         -0.801942        1.000000        0.00559721        0.00000196        0.00034059        0.00315118
     133         -0.801616        1.000000        0.00002533        0.00000146        0.00000240        0.00001101
     134         -0.799726        1.000000        0.00055741        0.00004405        0.00001576        0.00030287
     135         -0.798944        1.000000        0.00004195        0.00000002        0.00000224        0.00002398
     136         -0.798299        1.000000        0.00022639        0.00000079        0.00001362        0.00012061
     137         -0.797770        1.000000        0.00024037        0.00004810        0.00000005        0.00011029
     138         -0.797273        1.000000        0.00188297        0.00000365        0.00010613        0.00100727
     139         -0.795850        1.000000        0.00159886        0.00000295        0.00008905        0.00084521
     140         -0.795468        1.000000        0.00000726        0.00000004        0.00000058        0.00000406
     141         -0.794933        1.000000        0.00000007        0.00000000        0.00000024        0.00000073
     142         -0.794852        1.000000        0.00005136        0.00000421        0.00000192        0.00002666
     143         -0.791674        1.000000        0.00003419        0.00000584        0.00004278        0.00001599
     144         -0.791049        1.000000        0.00000280        0.00000023        0.00000366        0.00000130
     145         -0.790952        1.000000        0.00000282        0.00002051        0.00000334        0.00000237
     146         -0.789161        1.000000        0.06312318        0.00561144        0.00038545        0.03151877
     147         -0.787886        1.000000        0.00000027        0.00000012        0.00000002        0.00000016
     148         -0.786941        1.000000        0.00013015        0.00001006        0.00000014        0.00006393
     149         -0.785966        1.000000        0.00381386        0.00001014        0.00018157        0.00186276
     150         -0.783666        1.000000        0.03989284        0.00012646        0.00182471        0.01912543
     151         -0.782894        1.000000        0.00000005        0.00000041        0.00000013        0.00000018
     152         -0.782250        1.000000        0.00003145        0.00000237        0.00000374        0.00000848
     153         -0.781321        1.000000        0.00024036        0.00000123        0.00002074        0.00010319
     154         -0.780573        1.000000        0.00000004        0.00000002        0.00000018        0.00000005
     155         -0.780245        1.000000        0.00002168        0.00000015        0.00000096        0.00000999
     156         -0.778202        1.000000        0.00000010        0.00000006        0.00000044        0.00000010
     157         -0.767272        1.000000        0.00000002        0.00000002        0.00000005        0.00000000
     158         -0.765479        1.000000        0.00020840        0.00000179        0.00000688        0.00008546
     159         -0.765248        1.000000        0.00025583        0.00000223        0.00000826        0.00010506
     160         -0.761964        1.000000        0.00000001        0.00000002        0.00000002        0.00000000
     161         -0.750779        1.000000        0.00000000        0.00000000        0.00000000        0.00000000
     162         -0.731156        1.000000        0.00000007        0.00000000        0.00000000        0.00000003
     163         -0.632581        1.000000        0.00000004        0.00000001        0.00000000        0.00000013
     164         -0.607623        1.000000        0.43812448        0.00000475        0.00008565        0.00155136
     165         -0.595314        1.000000        0.43613908        0.00000016        0.00055858        0.00084617
     166         -0.591295        1.000000        0.43833599        0.00005036        0.00012590        0.00129496
     167         -0.586576        1.000000        0.43671705        0.00001305        0.00053518        0.00076390
     168         -0.575150        1.000000        0.43394594        0.00043376        0.00058008        0.00281172
     169         -0.568166        1.000000        0.42870448        0.00016100        0.00054505        0.00816635
     170         -0.560179        1.000000        0.42735222        0.00040066        0.00009136        0.00498148
     171         -0.550452        1.000000        0.00037136        0.00000823        0.00038991        0.00002829
     172         -0.543606        1.000000        0.00024504        0.00000419        0.00000429        0.00000613
     173         -0.527255        1.000000        0.00012392        0.00010447        0.00201098        0.00044717
     174         -0.522775        1.000000        0.00034401        0.00069443        0.00192833        0.00021238
     175         -0.519360        1.000000        0.00082135        0.00073745        0.00095311        0.00020758
     176         -0.516082        1.000000        0.00095394        0.00034019        0.00069910        0.00034437
     177         -0.515111        1.000000        0.00057340        0.00033014        0.00078122        0.00051726
     178         -0.513733        1.000000        0.00064682        0.00138253        0.00039314        0.00069682
     179         -0.513157        1.000000        0.00000270        0.00002350        0.00000113        0.00000045
     180         -0.511418        1.000000        0.00033359        0.00205666        0.00053848        0.00022330
     181         -0.511167        1.000000        0.00053709        0.00077888        0.00120739        0.00046520
     182         -0.510352        1.000000        0.00022658        0.00094101        0.00199551        0.00009583
     183         -0.509613        1.000000        0.00014947        0.00089203        0.00044339        0.00009026
     184         -0.508087        1.000000        0.00044531        0.00264339        0.00174895        0.00051688
     185         -0.504074        1.000000        0.00030281        0.00172363        0.00051969        0.00034661
     186         -0.503813        1.000000        0.00063317        0.00413387        0.00051915        0.00016807
     187         -0.502556        1.000000        0.00032865        0.00281477        0.00024046        0.00036157
     188         -0.502142        1.000000        0.00066516        0.00409151        0.00051111        0.00009341
     189         -0.500643        1.000000        0.00024384        0.00178074        0.00067689        0.00027421
     190         -0.500015        1.000000        0.00021907        0.00142503        0.00023024        0.00018755
     191         -0.498633        1.000000        0.00024629        0.00043460        0.00313833        0.00090368
     192         -0.497808        1.000000        0.00008367        0.00050270        0.00100276        0.00025636
     193         -0.496931        1.000000        0.00012800        0.00058932        0.00100901        0.00018389
     194         -0.496382        1.000000        0.00010375        0.00048772        0.00019388        0.00030498
     195         -0.495650        1.000000        0.00007636        0.00128890        0.00071587        0.00052275
     196         -0.495531        1.000000        0.00027811        0.00059182        0.00116744        0.00049515
     197         -0.494349        1.000000        0.00031951        0.00194760        0.00091146        0.00036159
     198         -0.494013        1.000000        0.00023327        0.00063544        0.00106810        0.00010480
     199         -0.493661        1.000000        0.00019116        0.00084841        0.00037185        0.00010295
     200         -0.490405        1.000000        0.00003010        0.00074172        0.00022750        0.00007142
     201         -0.490171        1.000000        0.00006386        0.00017151        0.00122156        0.00051135
     202         -0.489395        1.000000        0.00003011        0.00034423        0.00348210        0.00013545
     203         -0.489221        1.000000        0.00005979        0.00014224        0.00156049        0.00008644
     204         -0.487779        1.000000        0.00012431        0.00091279        0.01316133        0.00041068
     205         -0.486425        1.000000        0.00020855        0.00031406        0.02962363        0.00103113
     206         -0.485515        1.000000        0.00025010        0.00013903        0.00104456        0.00002646
     207         -0.483949        1.000000        0.00022970        0.00009151        0.00035183        0.00018331
     208         -0.471877        1.000000        0.00014969        0.02917431        0.00627148        0.00218098
     209         -0.469983        1.000000        0.00004047        0.00566366        0.01584982        0.00920920
     210         -0.469866        1.000000        0.00000003        0.00000755        0.00001265        0.00000711
     211         -0.469192        1.000000        0.00007573        0.00590583        0.02434304        0.01608511
     212         -0.468173        1.000000        0.00003862        0.00126118        0.00796336        0.00319192
     213         -0.466701        1.000000        0.00006301        0.02355389        0.01299071        0.01589503
     214         -0.465267        1.000000        0.00014888        0.03644781        0.01553769        0.00295503
     215         -0.465172        1.000000        0.00001128        0.05630902        0.00123695        0.00116082
     216         -0.462041        1.000000        0.00000005        0.00016555        0.00028609        0.00005039
     217         -0.461817        1.000000        0.00000310        0.02079193        0.03387176        0.00593824
     218         -0.457952        1.000000        0.00000038        0.00013705        0.00007239        0.00001511
     219         -0.456519        1.000000        0.00031349        0.05385100        0.00233957        0.00114696
     220         -0.454816        1.000000        0.00000161        0.00008865        0.00001814        0.00000257
     221         -0.452999        1.000000        0.00002108        0.03214997        0.03193956        0.00036875
     222         -0.450461        1.000000        0.00000028        0.00000043        0.00000043        0.00000271
     223         -0.449468        1.000000        0.00000001        0.00000011        0.00000109        0.00000011
     224         -0.448244        1.000000        0.00000004        0.00000060        0.00000015        0.00000021
     225         -0.445799        1.000000        0.00003165        0.02501848        0.01500961        0.01574472
     226         -0.445556        1.000000        0.00000084        0.00050217        0.00027823        0.00029274
     227         -0.444334        1.000000        0.00000690        0.00217775        0.00041002        0.00065613
     228         -0.444152        1.000000        0.00000031        0.00006259        0.00001193        0.00005023
     229         -0.442582        1.000000        0.00000002        0.00000058        0.00000306        0.00000036
     230         -0.441328        1.000000        0.00000090        0.00002479        0.00001553        0.00000420
     231         -0.441179        1.000000        0.00000019        0.00001299        0.00000073        0.00000338
     232         -0.440683        1.000000        0.00000450        0.00004237        0.00000549        0.00002227
     233         -0.440185        1.000000        0.00000086        0.00000864        0.00000500        0.00000450
     234         -0.438756        1.000000        0.00000148        0.00003029        0.00001372        0.00004225
     235         -0.438564        1.000000        0.00000111        0.00002147        0.00001456        0.00001294
     236         -0.437271        1.000000        0.00000077        0.00000565        0.00000074        0.00000270
     237         -0.435959        1.000000        0.00000917        0.00053429        0.00099673        0.00046062
     238         -0.434529        1.000000        0.00000220        0.00002047        0.00001059        0.00000284
     239         -0.433545        1.000000        0.00000049        0.00000881        0.00000411        0.00000088
     240         -0.433074        1.000000        0.00000654        0.00008139        0.00000251        0.00000394
     241         -0.432837        1.000000        0.00000017        0.00734670        0.06606823        0.00846910
     242         -0.431823        1.000000        0.00009800        0.02298780        0.00026077        0.00235390
     243         -0.431471        1.000000        0.00011937        0.03364390        0.00025677        0.00365669
     244         -0.430913        1.000000        0.00000139        0.00000337        0.00001588        0.00000548
     245         -0.430774        1.000000        0.00000073        0.00000006        0.00000396        0.00009394
     246         -0.429968        1.000000        0.00000045        0.00000039        0.00000027        0.00000070
     247         -0.429478        1.000000        0.00000165        0.00001127        0.00001761        0.00000411
     248         -0.428684        1.000000        0.00000748        0.00019775        0.00003702        0.00002871
     249         -0.428226        1.000000        0.00000081        0.00017505        0.00183802        0.00019547
     250         -0.427981        1.000000        0.00001040        0.00008923        0.00000846        0.00008768
     251         -0.427617        1.000000        0.00001143        0.00026293        0.00013086        0.00016608
     252         -0.426983        1.000000        0.00000073        0.00002039        0.00002228        0.00001105
     253         -0.426975        1.000000        0.00000029        0.00001143        0.00008953        0.00001151
     254         -0.425958        1.000000        0.00000045        0.00000318        0.00000174        0.00000393
     255         -0.425514        1.000000        0.00000000        0.00000013        0.00000004        0.00000001
     256         -0.424988        1.000000        0.00000361        0.00000922        0.00004019        0.00000370
     257         -0.422951        1.000000        0.00001170        0.00018322        0.00003022        0.00000853
     258         -0.422638        1.000000        0.00000864        0.00019749        0.00025774        0.00016415
     259         -0.422444        1.000000        0.00001745        0.00049680        0.00064329        0.00034484